
     Program PWSCF v.7.3.1 starts on  7Aug2024 at 15:59: 4 

     This program is part of the open-source Quantum ESPRESSO suite
     for quantum simulation of materials; please cite
         "P. Giannozzi et al., J. Phys.:Condens. Matter 21 395502 (2009);
         "P. Giannozzi et al., J. Phys.:Condens. Matter 29 465901 (2017);
         "P. Giannozzi et al., J. Chem. Phys. 152 154105 (2020);
          URL http://www.quantum-espresso.org", 
     in publications or presentations arising from this work. More details at
     http://www.quantum-espresso.org/quote

     Parallel version (MPI & OpenMP), running on       4 processor cores
     Number of MPI processes:                 2
     Threads/MPI process:                     2

     MPI processes distributed on     1 nodes
     3937 MiB available memory on the printing compute node when the environment starts

     Reading input from hydrogen_absorption5.in

     Current dimensions of program PWSCF are:
     Max number of different atomic species (ntypx) = 10
     Max number of k-points (npk) =  40000
     Max angular momentum in pseudopotentials (lmaxx) =  4

     IMPORTANT: XC functional enforced from input :
     Exchange-correlation= LDA
                           (   1   1   0   0   0   0   0)
     Any further DFT definition will be discarded
     Please, verify this is what you really want


     R & G space division:  proc/nbgrp/npool/nimage =       2
     Subspace diagonalization in iterative solution of the eigenvalue problem:
     a serial algorithm will be used


     Parallelization info
     --------------------
     sticks:   dense  smooth     PW     G-vecs:    dense   smooth      PW
     Min         882     351     84                59496    14997    1857
     Max         883     352     85                59501    15000    1858
     Sum        1765     703    169               118997    29997    3715

     Using Slab Decomposition


     Title: 
     5H2_absorption_C                                                           


     bravais-lattice index     =            4
     lattice parameter (alat)  =       8.0000  a.u.
     unit-cell volume          =     880.6989 (a.u.)^3
     number of atoms/cell      =           34
     number of atomic types    =            2
     number of electrons       =       106.00
     number of Kohn-Sham states=           64
     kinetic-energy cutoff     =      40.0000  Ry
     charge density cutoff     =     400.0000  Ry
     scf convergence threshold =      1.0E-06
     mixing beta               =       0.0500
     number of iterations used =            8  local-TF  mixing
     energy convergence thresh.=      1.0E-04
     force convergence thresh. =      1.0E-03
     press convergence thresh. =      5.0E-01
     Exchange-correlation= LDA
                           (   1   1   0   0   0   0   0)
     nstep                     =           50


     celldm(1)=   8.000004  celldm(2)=   0.000000  celldm(3)=   1.986214
     celldm(4)=   0.000000  celldm(5)=   0.000000  celldm(6)=   0.000000

     crystal axes: (cart. coord. in units of alat)
               a(1) = (   1.000000   0.000000   0.000000 )  
               a(2) = (  -0.500000   0.866025   0.000000 )  
               a(3) = (   0.000000   0.000000   1.986214 )  

     reciprocal axes: (cart. coord. in units 2 pi/alat)
               b(1) = (  1.000000  0.577350 -0.000000 )  
               b(2) = (  0.000000  1.154701  0.000000 )  
               b(3) = (  0.000000 -0.000000  0.503470 )  


     PseudoPot. # 1 for C  read from file:
     /home/edoardocabiati/.burai/.pseudopot/C.pz-n-rrkjus_psl.0.1.UPF
     MD5 check sum: a3cecbabebb5b3a1aff122f23eb09bb0
     Pseudo is Ultrasoft + core correction, Zval =  4.0
     Generated using "atomic" code by A. Dal Corso  v.5.0.2 svn rev. 9415
     Using radial grid of 1073 points,  4 beta functions with: 
                l(1) =   0
                l(2) =   0
                l(3) =   1
                l(4) =   1
     Q(r) pseudized with 0 coefficients 


     PseudoPot. # 2 for H  read from file:
     /home/edoardocabiati/.burai/.pseudopot/H.pz-rrkjus_psl.0.1.UPF
     MD5 check sum: 1467ebfaa2880178e80d097b970df8c7
     Pseudo is Ultrasoft, Zval =  1.0
     Generated using "atomic" code by A. Dal Corso  v.5.0.2 svn rev. 9415
     Using radial grid of  929 points,  2 beta functions with: 
                l(1) =   0
                l(2) =   0
     Q(r) pseudized with 0 coefficients 


     atomic species   valence    mass     pseudopotential
     C                 4.00    12.01100     C ( 1.00)
     H                 1.00     1.00784     H ( 1.00)

     No symmetry found



   Cartesian axes

     site n.     atom                  positions (alat units)
         1        C      tau(   1) = (   0.0000598  -0.0000622   0.3469160  )
         2        C      tau(   2) = (   0.0000065   0.0000087   0.8298554  )
         3        C      tau(   3) = (   0.0000004   0.0000121   1.7015703  )
         4        C      tau(   4) = (   0.0000256   0.2886120   0.3389993  )
         5        C      tau(   5) = (   0.2500332   0.1443499   0.8369607  )
         6        C      tau(   6) = (   0.0000290   0.2886586   1.7060655  )
         7        C      tau(   7) = (   0.5000552  -0.0000367   0.3473475  )
         8        C      tau(   8) = (   0.5000528  -0.0000097   0.8292807  )
         9        C      tau(   9) = (   0.4999885   0.0000338   1.7033930  )
        10        C      tau(  10) = (   0.5000520   0.2886219   0.3387288  )
        11        C      tau(  11) = (   0.7500660   0.1442883   0.8369944  )
        12        C      tau(  12) = (   0.4999680   0.2887128   1.7044065  )
        13        C      tau(  13) = (  -0.2499410   0.4329444   0.3476772  )
        14        C      tau(  14) = (  -0.2499487   0.4329455   0.8288264  )
        15        C      tau(  15) = (  -0.2500289   0.4330488   1.7036026  )
        16        C      tau(  16) = (  -0.2499445   0.7216278   0.3391643  )
        17        C      tau(  17) = (   0.0000640   0.5773108   0.8369496  )
        18        C      tau(  18) = (  -0.2500342   0.7217320   1.7060912  )
        19        C      tau(  19) = (   0.2500654   0.4329301   0.3481700  )
        20        C      tau(  20) = (   0.2500093   0.4330295   0.8285283  )
        21        C      tau(  21) = (   0.2500058   0.4329950   1.7045808  )
        22        C      tau(  22) = (   0.2500511   0.7216584   0.3394812  )
        23        C      tau(  23) = (   0.5000108   0.5773285   0.8369252  )
        24        C      tau(  24) = (   0.2500154   0.7216846   1.7064194  )
        25        H      tau(  25) = (   0.2796368   1.0887686   1.3489980  )
        26        H      tau(  26) = (   0.2183630   0.9346853   1.3490330  )
        27        H      tau(  27) = (  -0.0741922   0.6111058   1.3482852  )
        28        H      tau(  28) = (   0.0768883   0.5419319   1.3490572  )
        29        H      tau(  29) = (   0.5008495   0.6614191   1.3495788  )
        30        H      tau(  30) = (   0.4979536   0.4956409   1.3478314  )
        31        H      tau(  31) = (   0.1670188   0.1439783   1.3483061  )
        32        H      tau(  32) = (   0.3327169   0.1436132   1.3483793  )
        33        H      tau(  33) = (  -0.2600000   0.7101408   1.2910394  )
        34        H      tau(  34) = (  -0.1750000   0.8227241   1.2314530  )

     number of k points=     1  Gaussian smearing, width (Ry)=  0.0100
                       cart. coord. in units 2pi/alat
        k(    1) = (   0.0000000   0.0000000   0.0000000), wk =   2.0000000

     Dense  grid:   118997 G-vectors     FFT dimensions: (  54,  54, 108)

     Smooth grid:    29997 G-vectors     FFT dimensions: (  36,  36,  64)

     Estimated max dynamical RAM per process >     149.84 MB

     Estimated total dynamical RAM >     299.69 MB

     Check: negative core charge=   -0.000003

     Initial potential from superposition of free atoms

     starting charge     105.9990, renormalised to     106.0000
     Starting wfcs are  106 randomized atomic wfcs

     total cpu time spent up to now is        1.8 secs

     Self-consistent Calculation

     iteration #  1     ecut=    40.00 Ry     beta= 0.05
     Davidson diagonalization with overlap
     ethr =  1.00E-02,  avg # of iterations =  5.0

     total cpu time spent up to now is        4.8 secs

     total energy              =    -295.11464767 Ry
     estimated scf accuracy    <       5.90735023 Ry

     iteration #  2     ecut=    40.00 Ry     beta= 0.05
     Davidson diagonalization with overlap
     ethr =  5.57E-03,  avg # of iterations =  1.0

     total cpu time spent up to now is        6.3 secs

     total energy              =    -292.49428937 Ry
     estimated scf accuracy    <       5.84132033 Ry

     iteration #  3     ecut=    40.00 Ry     beta= 0.05
     Davidson diagonalization with overlap
     ethr =  5.51E-03,  avg # of iterations =  1.0

     total cpu time spent up to now is        7.8 secs

     total energy              =    -291.97721382 Ry
     estimated scf accuracy    <       1.26338980 Ry

     iteration #  4     ecut=    40.00 Ry     beta= 0.05
     Davidson diagonalization with overlap
     ethr =  1.19E-03,  avg # of iterations =  4.0

     total cpu time spent up to now is        9.7 secs

     total energy              =    -292.35995648 Ry
     estimated scf accuracy    <       0.08849367 Ry

     iteration #  5     ecut=    40.00 Ry     beta= 0.05
     Davidson diagonalization with overlap
     ethr =  8.35E-05,  avg # of iterations =  6.0

     total cpu time spent up to now is       11.9 secs

     total energy              =    -292.39370254 Ry
     estimated scf accuracy    <       0.16373116 Ry

     iteration #  6     ecut=    40.00 Ry     beta= 0.05
     Davidson diagonalization with overlap
     ethr =  8.35E-05,  avg # of iterations =  1.0

     total cpu time spent up to now is       13.4 secs

     total energy              =    -292.28454298 Ry
     estimated scf accuracy    <       0.17444968 Ry

     iteration #  7     ecut=    40.00 Ry     beta= 0.05
     Davidson diagonalization with overlap
     ethr =  8.35E-05,  avg # of iterations =  3.0

     total cpu time spent up to now is       15.5 secs

     total energy              =    -292.32297950 Ry
     estimated scf accuracy    <       0.01026672 Ry

     iteration #  8     ecut=    40.00 Ry     beta= 0.05
     Davidson diagonalization with overlap
     ethr =  9.69E-06,  avg # of iterations =  5.0

     total cpu time spent up to now is       17.5 secs

     total energy              =    -292.32473033 Ry
     estimated scf accuracy    <       0.00577180 Ry

     iteration #  9     ecut=    40.00 Ry     beta= 0.05
     Davidson diagonalization with overlap
     ethr =  5.45E-06,  avg # of iterations =  2.0

     total cpu time spent up to now is       19.1 secs

     total energy              =    -292.32277087 Ry
     estimated scf accuracy    <       0.00550445 Ry

     iteration # 10     ecut=    40.00 Ry     beta= 0.05
     Davidson diagonalization with overlap
     ethr =  5.19E-06,  avg # of iterations =  2.0

     total cpu time spent up to now is       20.8 secs

     total energy              =    -292.32338968 Ry
     estimated scf accuracy    <       0.00139733 Ry

     iteration # 11     ecut=    40.00 Ry     beta= 0.05
     Davidson diagonalization with overlap
     ethr =  1.32E-06,  avg # of iterations =  5.0

     total cpu time spent up to now is       22.6 secs

     total energy              =    -292.32359178 Ry
     estimated scf accuracy    <       0.00128055 Ry

     iteration # 12     ecut=    40.00 Ry     beta= 0.05
     Davidson diagonalization with overlap
     ethr =  1.21E-06,  avg # of iterations =  1.0

     total cpu time spent up to now is       24.1 secs

     total energy              =    -292.32315907 Ry
     estimated scf accuracy    <       0.00123969 Ry

     iteration # 13     ecut=    40.00 Ry     beta= 0.05
     Davidson diagonalization with overlap
     ethr =  1.17E-06,  avg # of iterations =  3.0

     total cpu time spent up to now is       26.2 secs

     total energy              =    -292.32343863 Ry
     estimated scf accuracy    <       0.00107337 Ry

     iteration # 14     ecut=    40.00 Ry     beta= 0.05
     Davidson diagonalization with overlap
     ethr =  1.01E-06,  avg # of iterations =  1.0

     total cpu time spent up to now is       27.7 secs

     total energy              =    -292.32350526 Ry
     estimated scf accuracy    <       0.00054422 Ry

     iteration # 15     ecut=    40.00 Ry     beta= 0.05
     Davidson diagonalization with overlap
     ethr =  5.13E-07,  avg # of iterations =  1.0

     total cpu time spent up to now is       29.2 secs

     total energy              =    -292.32306394 Ry
     estimated scf accuracy    <       0.00062053 Ry

     iteration # 16     ecut=    40.00 Ry     beta= 0.05
     Davidson diagonalization with overlap
     ethr =  5.13E-07,  avg # of iterations =  4.0

     total cpu time spent up to now is       31.2 secs

     total energy              =    -292.32319506 Ry
     estimated scf accuracy    <       0.00007056 Ry

     iteration # 17     ecut=    40.00 Ry     beta= 0.05
     Davidson diagonalization with overlap
     ethr =  6.66E-08,  avg # of iterations =  2.0

     total cpu time spent up to now is       32.8 secs

     total energy              =    -292.32320875 Ry
     estimated scf accuracy    <       0.00000564 Ry

     iteration # 18     ecut=    40.00 Ry     beta= 0.05
     Davidson diagonalization with overlap
     ethr =  5.32E-09,  avg # of iterations =  5.0

     total cpu time spent up to now is       35.0 secs

     total energy              =    -292.32320987 Ry
     estimated scf accuracy    <       0.00000700 Ry

     iteration # 19     ecut=    40.00 Ry     beta= 0.05
     Davidson diagonalization with overlap
     ethr =  5.32E-09,  avg # of iterations =  1.0

     total cpu time spent up to now is       36.5 secs

     total energy              =    -292.32320818 Ry
     estimated scf accuracy    <       0.00000371 Ry

     iteration # 20     ecut=    40.00 Ry     beta= 0.05
     Davidson diagonalization with overlap
     ethr =  3.50E-09,  avg # of iterations =  4.0

     total cpu time spent up to now is       38.4 secs

     End of self-consistent calculation

          k = 0.0000 0.0000 0.0000 (  3715 PWs)   bands (ev):

   -10.2175  -9.4230  -7.7189  -3.2100  -2.7419  -2.7168  -2.5982  -2.5292
    -2.5081  -2.4587  -2.3347  -2.3092  -2.0852  -1.2799  -1.2036  -1.0322
    -0.7171  -0.6936  -0.6859  -0.1916  -0.1678  -0.0354   0.7193   4.1234
     6.4229   6.6492   6.6925   6.7007   6.8079   6.8855   6.9619   7.0497
     7.0808   7.3975   7.4536   7.4599   7.8124   9.0481   9.1043   9.2729
     9.5210   9.8773  10.0193  11.8028  11.9109  11.9333  12.0384  12.0453
    12.0957  12.1095  12.4068  12.4122  14.0199  16.2939  16.3710  16.9089
    17.2622  17.4023  18.0082  18.3552  18.5018  18.6602  19.7106  20.4543

     the Fermi energy is    15.5537 ev

!    total energy              =    -292.32321018 Ry
     estimated scf accuracy    <       0.00000047 Ry
     smearing contrib. (-TS)   =      -0.00000000 Ry
     internal energy E=F+TS    =    -292.32321018 Ry

     The total energy is F=E-TS. E is the sum of the following terms:
     one-electron contribution =       8.95277378 Ry
     hartree contribution      =      79.48513647 Ry
     xc contribution           =    -117.98705020 Ry
     ewald contribution        =    -262.77407023 Ry

     convergence has been achieved in  20 iterations

     Forces acting on atoms (cartesian axes, Ry/au):

     atom    1 type  1   force =     0.00469821   -0.00068789    0.00048090
     atom    2 type  1   force =     0.00073217   -0.00408074   -0.00430959
     atom    3 type  1   force =     0.01230934   -0.00477864   -0.01499661
     atom    4 type  1   force =     0.02212347    0.01466529   -0.02170207
     atom    5 type  1   force =    -0.00492247    0.01849110    0.00611701
     atom    6 type  1   force =    -0.00325906    0.00813318    0.04450442
     atom    7 type  1   force =    -0.00924966   -0.00292236   -0.00011526
     atom    8 type  1   force =     0.00468296   -0.00509918   -0.00323865
     atom    9 type  1   force =    -0.05015848   -0.03910135   -0.00026222
     atom   10 type  1   force =    -0.01391930    0.01055776   -0.02324976
     atom   11 type  1   force =     0.00008126   -0.00051123    0.02104896
     atom   12 type  1   force =     0.00653825    0.03583259    0.02434402
     atom   13 type  1   force =     0.00008863    0.00278395    0.00483178
     atom   14 type  1   force =    -0.00058228    0.00836478   -0.00456768
     atom   15 type  1   force =     0.00101268   -0.01547147    0.00179105
     atom   16 type  1   force =     0.00722844    0.00395673   -0.01846946
     atom   17 type  1   force =     0.00804783   -0.00645640    0.01304537
     atom   18 type  1   force =     0.04304324    0.03090263    0.09618374
     atom   19 type  1   force =    -0.00392043    0.00448081   -0.00033458
     atom   20 type  1   force =    -0.00763621   -0.00493691    0.05776270
     atom   21 type  1   force =    -0.00837026    0.02348361    0.05563988
     atom   22 type  1   force =     0.00107862   -0.02609088   -0.01616091
     atom   23 type  1   force =     0.00599408    0.00268659    0.01442907
     atom   24 type  1   force =     0.00735928   -0.00909621    0.03687884
     atom   25 type  2   force =     0.05994534    0.13854482   -0.00873423
     atom   26 type  2   force =    -0.05271959   -0.14004009   -0.00655978
     atom   27 type  2   force =    -0.04469768   -0.01025483    0.00680455
     atom   28 type  2   force =     0.22452268   -0.14212861   -0.03449178
     atom   29 type  2   force =    -0.06205422    0.12795448   -0.00406652
     atom   30 type  2   force =    -0.05928084   -0.18584131   -0.02340426
     atom   31 type  2   force =    -0.19383594    0.13621496    0.01487426
     atom   32 type  2   force =     0.15463639    0.16669309    0.05058122
     atom   33 type  2   force =    -0.17176515   -0.20915147   -0.04445246
     atom   34 type  2   force =     0.12224870    0.07290319   -0.22020194

     Total force =     0.674578     Total SCF correction =     0.000435


     Computing stress (Cartesian axis) and pressure

          total   stress  (Ry/bohr**3)                   (kbar)     P=     3313.71
   0.03214605  -0.00021158  -0.00007736         4728.85      -31.12      -11.38
  -0.00021158   0.03256910   0.00001237          -31.12     4791.08        1.82
  -0.00007736   0.00001237   0.00286337          -11.38        1.82      421.22


     BFGS Geometry Optimization
     Energy error            =      0.0E+00 Ry
     Gradient error          =      2.2E-01 Ry/Bohr
     Cell gradient error     =      4.8E+03 kbar

     number of scf cycles    =   1
     number of bfgs steps    =   0

     enthalpy           new  =    -292.3232101751 Ry

     new trust radius        =       0.5000000000 bohr
     new conv_thr            =       0.0000010000 Ry

     new unit-cell volume =   1041.94315 a.u.^3 (   154.40005 Ang^3 )
     density =      3.20861 g/cm^3

CELL_PARAMETERS (alat=  8.00000437)
   1.083145535  -0.000547239  -0.000200103
  -0.542046690   0.939252791   0.000127760
  -0.000397447   0.000063550   2.000924520

ATOMIC_POSITIONS (crystal)
C                0.0000238342       -0.0000718534        0.1746650573    0   0   1
C                0.0000115369        0.0000100443        0.4177794886    0   0   1
C                0.0000074235        0.0000140068        0.8565924951    0   0   1
C                0.1666558149        0.3332604120        0.1705347777    0   0   1
C                0.3333736254        0.1666809360        0.4214247045    0   0   1
C                0.1666860756        0.3333142111        0.8592431161    0   0   1
C                0.5000339929       -0.0000423261        0.1748783962    0   0   1
C                0.5000472005       -0.0000111523        0.4174971080    0   0   1
C                0.5000080142        0.0000390846        0.8576060861    0   0   1
C                0.6666879367        0.3332718199        0.1703885065    0   0   1
C                0.8333708835        0.1666097687        0.4215388925    0   0   1
C                0.6666563779        0.3333768030        0.8582765582    0   0   1
C                0.0000195365        0.4999211355        0.1750766072    0   0   1
C                0.0000125514        0.4999224501        0.4172597341    0   0   1
C               -0.0000080002        0.5000417306        0.8577249960    0   0   1
C                0.1666875101        0.8332639707        0.1706388890    0   0   1
C                0.3333746061        0.6666211428        0.4214641989    0   0   1
C                0.1666579372        0.8333842849        0.8595925257    0   0   1
C                0.5000177420        0.4999046233        0.1752910886    0   0   1
C                0.5000189925        0.5000194525        0.4175155029    0   0   1
C                0.4999955928        0.4999795555        0.8585681096    0   0   1
C                0.6667007110        0.8332993149        0.1708134655    0   0   1
C                0.8333315156        0.6666415104        0.4214609525    0   0   1
C                0.6666802516        0.8333296530        0.8593715955    0   0   1
H                0.9100473109        1.2592706006        0.6791235519
H                0.7562763884        1.0771904122        0.6791553599
H                0.2779753324        0.7054910931        0.6788658789
H                0.3916152000        0.6236466241        0.6789856714
H                0.8828728984        0.7656517683        0.6794463732
H                0.7819577395        0.5695416702        0.6784407089
H                0.2486550182        0.1682859645        0.6789289569
H                0.4188764905        0.1683194595        0.6791982750
H                0.1462170123        0.8168767163        0.6497105651
H                0.3021253124        0.9510886720        0.6185662411



     Writing config-only to output data dir ../results/5h2_abs/5H2abs_C.save/ :
     XML data file
     NEW-OLD atomic charge density approx. for the potential

     Check: negative core charge=   -0.000002

     total cpu time spent up to now is       42.5 secs

     Self-consistent Calculation

     iteration #  1     ecut=    40.00 Ry     beta= 0.05
     Davidson diagonalization with overlap
     ethr =  1.00E-06,  avg # of iterations = 14.0

     total cpu time spent up to now is       50.6 secs

     total energy              =    -295.66014021 Ry
     estimated scf accuracy    <       0.24284168 Ry

     iteration #  2     ecut=    40.00 Ry     beta= 0.05
     Davidson diagonalization with overlap
     ethr =  2.29E-04,  avg # of iterations =  1.0

     total cpu time spent up to now is       52.4 secs

     total energy              =    -295.52341259 Ry
     estimated scf accuracy    <       0.22666458 Ry

     iteration #  3     ecut=    40.00 Ry     beta= 0.05
     Davidson diagonalization with overlap
     ethr =  2.14E-04,  avg # of iterations =  2.0

     total cpu time spent up to now is       54.3 secs

     total energy              =    -295.56308626 Ry
     estimated scf accuracy    <       0.00470941 Ry

     iteration #  4     ecut=    40.00 Ry     beta= 0.05
     Davidson diagonalization with overlap
     ethr =  4.44E-06,  avg # of iterations =  5.0

     total cpu time spent up to now is       57.0 secs

     total energy              =    -295.56699997 Ry
     estimated scf accuracy    <       0.00368535 Ry

     iteration #  5     ecut=    40.00 Ry     beta= 0.05
     Davidson diagonalization with overlap
     ethr =  3.48E-06,  avg # of iterations =  2.0

     total cpu time spent up to now is       58.7 secs

     total energy              =    -295.56560383 Ry
     estimated scf accuracy    <       0.00418962 Ry

     iteration #  6     ecut=    40.00 Ry     beta= 0.05
     Davidson diagonalization with overlap
     ethr =  3.48E-06,  avg # of iterations =  2.0

     total cpu time spent up to now is       60.3 secs

     total energy              =    -295.56605104 Ry
     estimated scf accuracy    <       0.00094116 Ry

     iteration #  7     ecut=    40.00 Ry     beta= 0.05
     Davidson diagonalization with overlap
     ethr =  8.88E-07,  avg # of iterations =  2.0

     total cpu time spent up to now is       62.1 secs

     total energy              =    -295.56607787 Ry
     estimated scf accuracy    <       0.00082928 Ry

     iteration #  8     ecut=    40.00 Ry     beta= 0.05
     Davidson diagonalization with overlap
     ethr =  7.82E-07,  avg # of iterations =  1.0

     total cpu time spent up to now is       63.6 secs

     total energy              =    -295.56594757 Ry
     estimated scf accuracy    <       0.00070144 Ry

     iteration #  9     ecut=    40.00 Ry     beta= 0.05
     Davidson diagonalization with overlap
     ethr =  6.62E-07,  avg # of iterations =  2.0

     total cpu time spent up to now is       65.4 secs

     total energy              =    -295.56594979 Ry
     estimated scf accuracy    <       0.00040457 Ry

     iteration # 10     ecut=    40.00 Ry     beta= 0.05
     Davidson diagonalization with overlap
     ethr =  3.82E-07,  avg # of iterations =  1.0

     total cpu time spent up to now is       67.0 secs

     total energy              =    -295.56596517 Ry
     estimated scf accuracy    <       0.00018692 Ry

     iteration # 11     ecut=    40.00 Ry     beta= 0.05
     Davidson diagonalization with overlap
     ethr =  1.76E-07,  avg # of iterations =  2.0

     total cpu time spent up to now is       68.8 secs

     total energy              =    -295.56589805 Ry
     estimated scf accuracy    <       0.00018641 Ry

     iteration # 12     ecut=    40.00 Ry     beta= 0.05
     Davidson diagonalization with overlap
     ethr =  1.76E-07,  avg # of iterations =  2.0

     total cpu time spent up to now is       70.6 secs

     total energy              =    -295.56593076 Ry
     estimated scf accuracy    <       0.00005317 Ry

     iteration # 13     ecut=    40.00 Ry     beta= 0.05
     Davidson diagonalization with overlap
     ethr =  5.02E-08,  avg # of iterations =  2.0

     total cpu time spent up to now is       72.3 secs

     total energy              =    -295.56593708 Ry
     estimated scf accuracy    <       0.00003270 Ry

     iteration # 14     ecut=    40.00 Ry     beta= 0.05
     Davidson diagonalization with overlap
     ethr =  3.09E-08,  avg # of iterations =  1.0

     total cpu time spent up to now is       73.9 secs

     total energy              =    -295.56594042 Ry
     estimated scf accuracy    <       0.00003535 Ry

     iteration # 15     ecut=    40.00 Ry     beta= 0.05
     Davidson diagonalization with overlap
     ethr =  3.09E-08,  avg # of iterations =  1.0

     total cpu time spent up to now is       75.5 secs

     total energy              =    -295.56592598 Ry
     estimated scf accuracy    <       0.00004365 Ry

     iteration # 16     ecut=    40.00 Ry     beta= 0.05
     Davidson diagonalization with overlap
     ethr =  3.09E-08,  avg # of iterations =  2.0

     total cpu time spent up to now is       77.1 secs

     total energy              =    -295.56592604 Ry
     estimated scf accuracy    <       0.00000991 Ry

     iteration # 17     ecut=    40.00 Ry     beta= 0.05
     Davidson diagonalization with overlap
     ethr =  9.35E-09,  avg # of iterations =  4.0

     total cpu time spent up to now is       79.3 secs

     total energy              =    -295.56593114 Ry
     estimated scf accuracy    <       0.00000883 Ry

     iteration # 18     ecut=    40.00 Ry     beta= 0.05
     Davidson diagonalization with overlap
     ethr =  8.33E-09,  avg # of iterations =  1.0

     total cpu time spent up to now is       80.9 secs

     total energy              =    -295.56592799 Ry
     estimated scf accuracy    <       0.00000651 Ry

     iteration # 19     ecut=    40.00 Ry     beta= 0.05
     Davidson diagonalization with overlap
     ethr =  6.15E-09,  avg # of iterations =  4.0

     total cpu time spent up to now is       82.8 secs

     total energy              =    -295.56592984 Ry
     estimated scf accuracy    <       0.00000209 Ry

     iteration # 20     ecut=    40.00 Ry     beta= 0.05
     Davidson diagonalization with overlap
     ethr =  1.97E-09,  avg # of iterations =  2.0

     total cpu time spent up to now is       84.4 secs

     End of self-consistent calculation

          k = 0.0000 0.0000 0.0000 (  3715 PWs)   bands (ev):

   -10.7240  -9.8070  -8.2407  -4.1370  -4.0816  -4.0018  -3.9125  -3.7457
    -3.7179  -3.4146  -3.1926  -3.1481  -3.1276  -3.0633  -3.0317  -2.4548
    -1.9750  -1.9628  -1.9109  -1.8910  -1.8855  -1.7404   0.1939   3.2430
     4.5283   4.5665   4.5884   4.8301   4.8407   4.9452   5.0075   5.3847
     5.4058   5.4551   5.4836   6.3684   6.6537   7.0384   7.0831   7.2765
     7.7159   7.8798   8.0189   8.9396   8.9501   9.1141   9.1374   9.3794
     9.3911   9.7261   9.8478   9.8764  12.0361  13.8898  13.9410  14.3139
    14.6503  14.7389  15.1735  15.5756  15.6880  15.9879  17.1224  17.8504

     the Fermi energy is    12.8540 ev

!    total energy              =    -295.56593236 Ry
     estimated scf accuracy    <       0.00000037 Ry
     smearing contrib. (-TS)   =      -0.00000000 Ry
     internal energy E=F+TS    =    -295.56593236 Ry

     The total energy is F=E-TS. E is the sum of the following terms:
     one-electron contribution =      11.03316195 Ry
     hartree contribution      =      68.45552033 Ry
     xc contribution           =    -112.54107554 Ry
     ewald contribution        =    -262.51353910 Ry

     convergence has been achieved in  20 iterations

     Forces acting on atoms (cartesian axes, Ry/au):

     atom    1 type  1   force =     0.00707514   -0.00017126   -0.00919666
     atom    2 type  1   force =    -0.00272019   -0.00387944    0.00364768
     atom    3 type  1   force =     0.01808032   -0.00378373    0.00014577
     atom    4 type  1   force =     0.01803622    0.01199160   -0.02278364
     atom    5 type  1   force =    -0.00339575    0.02132373    0.00671452
     atom    6 type  1   force =     0.00363070    0.00673883    0.04166186
     atom    7 type  1   force =    -0.00934056   -0.00169345   -0.01158274
     atom    8 type  1   force =     0.00394826   -0.00599099    0.00617887
     atom    9 type  1   force =    -0.04075063   -0.03012496    0.00849013
     atom   10 type  1   force =    -0.01293469    0.00700759   -0.02370599
     atom   11 type  1   force =     0.00132086    0.00085169    0.02580776
     atom   12 type  1   force =    -0.00292924    0.03167109    0.02853021
     atom   13 type  1   force =     0.00165774    0.00462845   -0.00729606
     atom   14 type  1   force =    -0.00197094    0.00393155    0.00600784
     atom   15 type  1   force =     0.00235778   -0.00889079    0.00661615
     atom   16 type  1   force =     0.00587994    0.00381954   -0.01888784
     atom   17 type  1   force =     0.01265661   -0.00643488    0.01538122
     atom   18 type  1   force =     0.03444543    0.02016333    0.09698153
     atom   19 type  1   force =    -0.00260042    0.00739093   -0.01397957
     atom   20 type  1   force =    -0.00829841   -0.00511042    0.06265921
     atom   21 type  1   force =    -0.00848466    0.02158072    0.05810204
     atom   22 type  1   force =    -0.00010603   -0.02575139   -0.01960153
     atom   23 type  1   force =     0.00363814    0.00176442    0.01620940
     atom   24 type  1   force =     0.00287239   -0.01392298    0.03006668
     atom   25 type  2   force =     0.02333793    0.05007248   -0.01303369
     atom   26 type  2   force =    -0.01819879   -0.05066605   -0.01186132
     atom   27 type  2   force =     0.01168075   -0.02457255   -0.00508503
     atom   28 type  2   force =     0.11500953   -0.08164265   -0.04195720
     atom   29 type  2   force =    -0.04556231    0.04121310   -0.01054354
     atom   30 type  2   force =    -0.04216151   -0.08367788   -0.02556076
     atom   31 type  2   force =    -0.08842585    0.09862046    0.00193943
     atom   32 type  2   force =     0.05736119    0.12105878    0.02856336
     atom   33 type  2   force =    -0.08402073   -0.10543373   -0.07641344
     atom   34 type  2   force =     0.04891179   -0.00208120   -0.13221465

     Total force =     0.382185     Total SCF correction =     0.001484


     Computing stress (Cartesian axis) and pressure

          total   stress  (Ry/bohr**3)                   (kbar)     P=     1251.11
   0.01133349  -0.00014015  -0.00002205         1667.21      -20.62       -3.24
  -0.00014015   0.01147255   0.00003698          -20.62     1687.67        5.44
  -0.00002205   0.00003698   0.00270851           -3.24        5.44      398.44

     Energy error            =      3.2E+00 Ry
     Gradient error          =      1.3E-01 Ry/Bohr
     Cell gradient error     =      1.7E+03 kbar

     number of scf cycles    =   2
     number of bfgs steps    =   1

     enthalpy           old  =    -292.3232101751 Ry
     enthalpy           new  =    -295.5659323550 Ry

     CASE: enthalpy          _new < enthalpy          _old

     new trust radius        =       0.5757113378 bohr
     new conv_thr            =       0.0000010000 Ry

     new unit-cell volume =   1249.16146 a.u.^3 (   185.10663 Ang^3 )
     density =      2.67635 g/cm^3

CELL_PARAMETERS (alat=  8.00000437)
   1.136555014  -0.003570476  -0.000070276
  -0.571367129   0.986788242   0.001338637
  -0.000135963   0.003213696   2.179340119

ATOMIC_POSITIONS (crystal)
C                0.0000241761       -0.0000719229        0.1736932794    0   0   1
C                0.0000114013        0.0000100719        0.4183111450    0   0   1
C                0.0000074181        0.0000140079        0.8571400061    0   0   1
C                0.1666566619        0.3332602397        0.1689400278    0   0   1
C                0.3333733758        0.1666809868        0.4219045857    0   0   1
C                0.1666845268        0.3333145261        0.8619881341    0   0   1
C                0.5000344235       -0.0000424137        0.1736800828    0   0   1
C                0.5000469708       -0.0000111056        0.4182535089    0   0   1
C                0.5000076986        0.0000391488        0.8584967556    0   0   1
C                0.6666888180        0.3332716406        0.1687529506    0   0   1
C                0.8333699241        0.1666099639        0.4234707616    0   0   1
C                0.6666553173        0.3333770187        0.8603740710    0   0   1
C                0.0000198077        0.4999210803        0.1741476747    0   0   1
C                0.0000123281        0.4999224955        0.4180455610    0   0   1
C               -0.0000082462        0.5000417806        0.8583482367    0   0   1
C                0.1666882123        0.8332638279        0.1693338050    0   0   1
C                0.3333740343        0.6666212591        0.4225978153    0   0   1
C                0.1666543319        0.8333850182        0.8662456709    0   0   1
C                0.5000182617        0.4999045176        0.1738517454    0   0   1
C                0.5000166632        0.5000199263        0.4219695893    0   0   1
C                0.4999934329        0.4999799949        0.8626244763    0   0   1
C                0.6667014397        0.8332991667        0.1693523399    0   0   1
C                0.8333309130        0.6666416330        0.4226314210    0   0   1
C                0.6666791339        0.8333298804        0.8611836245    0   0   1
H                0.9117630769        1.2608182128        0.6780802718
H                0.7551759147        1.0756115911        0.6781571146
H                0.2809878558        0.7000278774        0.6780961187
H                0.3966095165        0.6142827855        0.6758519061
H                0.8772177431        0.7658003855        0.6784972841
H                0.7736483108        0.5632357852        0.6766186875
H                0.2498041768        0.1824780264        0.6786044030
H                0.4293955533        0.1857610977        0.6803670267
H                0.1347276517        0.8068989058        0.6433575232
H                0.3011163031        0.9446123830        0.6126571629



     Writing config-only to output data dir ../results/5h2_abs/5H2abs_C.save/ :
     XML data file
     NEW-OLD atomic charge density approx. for the potential

     Check: negative core charge=   -0.000003

     total cpu time spent up to now is       88.3 secs

     Self-consistent Calculation

     iteration #  1     ecut=    40.00 Ry     beta= 0.05
     Davidson diagonalization with overlap
     ethr =  1.00E-06,  avg # of iterations = 13.0

     total cpu time spent up to now is       94.1 secs

     total energy              =    -296.56172663 Ry
     estimated scf accuracy    <       0.10845823 Ry

     iteration #  2     ecut=    40.00 Ry     beta= 0.05
     Davidson diagonalization with overlap
     ethr =  1.02E-04,  avg # of iterations =  1.0

     total cpu time spent up to now is       95.6 secs

     total energy              =    -296.50642882 Ry
     estimated scf accuracy    <       0.10081125 Ry

     iteration #  3     ecut=    40.00 Ry     beta= 0.05
     Davidson diagonalization with overlap
     ethr =  9.51E-05,  avg # of iterations =  2.0

     total cpu time spent up to now is       97.4 secs

     total energy              =    -296.52275083 Ry
     estimated scf accuracy    <       0.00203892 Ry

     iteration #  4     ecut=    40.00 Ry     beta= 0.05
     Davidson diagonalization with overlap
     ethr =  1.92E-06,  avg # of iterations =  5.0

     total cpu time spent up to now is       99.8 secs

     total energy              =    -296.52380114 Ry
     estimated scf accuracy    <       0.00180714 Ry

     iteration #  5     ecut=    40.00 Ry     beta= 0.05
     Davidson diagonalization with overlap
     ethr =  1.70E-06,  avg # of iterations =  1.0

     total cpu time spent up to now is      101.3 secs

     total energy              =    -296.52335084 Ry
     estimated scf accuracy    <       0.00151163 Ry

     iteration #  6     ecut=    40.00 Ry     beta= 0.05
     Davidson diagonalization with overlap
     ethr =  1.43E-06,  avg # of iterations =  2.0

     total cpu time spent up to now is      102.9 secs

     total energy              =    -296.52344663 Ry
     estimated scf accuracy    <       0.00028630 Ry

     iteration #  7     ecut=    40.00 Ry     beta= 0.05
     Davidson diagonalization with overlap
     ethr =  2.70E-07,  avg # of iterations =  2.0

     total cpu time spent up to now is      104.7 secs

     total energy              =    -296.52348467 Ry
     estimated scf accuracy    <       0.00022005 Ry

     iteration #  8     ecut=    40.00 Ry     beta= 0.05
     Davidson diagonalization with overlap
     ethr =  2.08E-07,  avg # of iterations =  1.0

     total cpu time spent up to now is      106.2 secs

     total energy              =    -296.52341296 Ry
     estimated scf accuracy    <       0.00019691 Ry

     iteration #  9     ecut=    40.00 Ry     beta= 0.05
     Davidson diagonalization with overlap
     ethr =  1.86E-07,  avg # of iterations =  2.0

     total cpu time spent up to now is      107.8 secs

     total energy              =    -296.52344134 Ry
     estimated scf accuracy    <       0.00005582 Ry

     iteration # 10     ecut=    40.00 Ry     beta= 0.05
     Davidson diagonalization with overlap
     ethr =  5.27E-08,  avg # of iterations =  1.0

     total cpu time spent up to now is      109.3 secs

     total energy              =    -296.52344095 Ry
     estimated scf accuracy    <       0.00005190 Ry

     iteration # 11     ecut=    40.00 Ry     beta= 0.05
     Davidson diagonalization with overlap
     ethr =  4.90E-08,  avg # of iterations =  1.0

     total cpu time spent up to now is      110.8 secs

     total energy              =    -296.52342879 Ry
     estimated scf accuracy    <       0.00003877 Ry

     iteration # 12     ecut=    40.00 Ry     beta= 0.05
     Davidson diagonalization with overlap
     ethr =  3.66E-08,  avg # of iterations =  4.0

     total cpu time spent up to now is      112.6 secs

     total energy              =    -296.52343641 Ry
     estimated scf accuracy    <       0.00002014 Ry

     iteration # 13     ecut=    40.00 Ry     beta= 0.05
     Davidson diagonalization with overlap
     ethr =  1.90E-08,  avg # of iterations =  1.0

     total cpu time spent up to now is      114.1 secs

     total energy              =    -296.52343664 Ry
     estimated scf accuracy    <       0.00001357 Ry

     iteration # 14     ecut=    40.00 Ry     beta= 0.05
     Davidson diagonalization with overlap
     ethr =  1.28E-08,  avg # of iterations =  2.0

     total cpu time spent up to now is      115.7 secs

     total energy              =    -296.52343416 Ry
     estimated scf accuracy    <       0.00000914 Ry

     iteration # 15     ecut=    40.00 Ry     beta= 0.05
     Davidson diagonalization with overlap
     ethr =  8.63E-09,  avg # of iterations =  4.0

     total cpu time spent up to now is      117.5 secs

     total energy              =    -296.52343728 Ry
     estimated scf accuracy    <       0.00000493 Ry

     iteration # 16     ecut=    40.00 Ry     beta= 0.05
     Davidson diagonalization with overlap
     ethr =  4.65E-09,  avg # of iterations =  1.0

     total cpu time spent up to now is      119.1 secs

     total energy              =    -296.52343800 Ry
     estimated scf accuracy    <       0.00000259 Ry

     iteration # 17     ecut=    40.00 Ry     beta= 0.05
     Davidson diagonalization with overlap
     ethr =  2.44E-09,  avg # of iterations =  2.0

     total cpu time spent up to now is      120.7 secs

     total energy              =    -296.52343825 Ry
     estimated scf accuracy    <       0.00000188 Ry

     iteration # 18     ecut=    40.00 Ry     beta= 0.05
     Davidson diagonalization with overlap
     ethr =  1.77E-09,  avg # of iterations =  4.0

     total cpu time spent up to now is      122.4 secs

     End of self-consistent calculation

          k = 0.0000 0.0000 0.0000 (  3715 PWs)   bands (ev):

   -11.4405 -10.8278  -9.7874  -5.5741  -5.5372  -5.4154  -5.1840  -5.1371
    -5.0927  -4.9696  -4.9157  -4.8701  -4.5277  -4.5108  -4.4719  -4.0806
    -4.0343  -3.9775  -3.8305  -3.7479  -3.7333  -3.2088  -0.8254   1.8771
     2.5727   2.6552   2.7055   2.7259   2.8243   2.9059   3.1324   3.2099
     3.2639   3.3434   3.7168   4.0046   4.3516   5.2565   5.3556   5.3908
     5.5697   5.8871   6.0398   6.4130   6.4444   6.4782   6.5097   6.7053
     6.7356   7.4571   7.5938   7.6501   8.8672  10.9478  11.0173  11.2434
    11.6547  11.7671  12.1265  12.4427  12.5141  12.6782  13.6821  14.3651

     the Fermi energy is     9.9312 ev

!    total energy              =    -296.52344493 Ry
     estimated scf accuracy    <       0.00000063 Ry
     smearing contrib. (-TS)   =      -0.00000000 Ry
     internal energy E=F+TS    =    -296.52344493 Ry

     The total energy is F=E-TS. E is the sum of the following terms:
     one-electron contribution =     -19.27793251 Ry
     hartree contribution      =      73.92787262 Ry
     xc contribution           =    -108.84713476 Ry
     ewald contribution        =    -242.32625027 Ry

     convergence has been achieved in  18 iterations

     Forces acting on atoms (cartesian axes, Ry/au):

     atom    1 type  1   force =     0.00986014    0.00027922   -0.00280611
     atom    2 type  1   force =    -0.01033474   -0.00084548   -0.00216457
     atom    3 type  1   force =     0.02453421   -0.00365077    0.00007072
     atom    4 type  1   force =     0.00731561    0.00971995    0.01620212
     atom    5 type  1   force =     0.00350868    0.01385913   -0.01290472
     atom    6 type  1   force =    -0.00279804    0.00492076    0.00352811
     atom    7 type  1   force =    -0.00008888   -0.00074986   -0.00480040
     atom    8 type  1   force =    -0.00064918   -0.00300278    0.00208172
     atom    9 type  1   force =    -0.02113185   -0.02470561    0.00290875
     atom   10 type  1   force =    -0.01634253    0.00667338    0.01609825
     atom   11 type  1   force =     0.00788234   -0.00104384   -0.01300108
     atom   12 type  1   force =    -0.00947285    0.02171486   -0.00618735
     atom   13 type  1   force =     0.00723225    0.00152708   -0.00323676
     atom   14 type  1   force =    -0.00636550    0.00334001    0.00089974
     atom   15 type  1   force =     0.01018381    0.00073645    0.00388608
     atom   16 type  1   force =    -0.00092843    0.00417740    0.01550203
     atom   17 type  1   force =     0.01427711   -0.00523172   -0.01387742
     atom   18 type  1   force =     0.01481006    0.00970533    0.00228623
     atom   19 type  1   force =     0.00568597    0.00689843   -0.00904300
     atom   20 type  1   force =    -0.01209660   -0.00357417    0.02768132
     atom   21 type  1   force =    -0.00270868    0.01237008    0.03463146
     atom   22 type  1   force =    -0.00553909   -0.02065458    0.01683525
     atom   23 type  1   force =     0.00955544    0.00134583   -0.01185560
     atom   24 type  1   force =    -0.00963937   -0.01036819   -0.00707625
     atom   25 type  2   force =    -0.00202784   -0.00872646    0.00640947
     atom   26 type  2   force =     0.00235251    0.00874794    0.00677195
     atom   27 type  2   force =     0.04318644   -0.02632352    0.00548968
     atom   28 type  2   force =     0.04130664   -0.04154106   -0.01418497
     atom   29 type  2   force =    -0.02525391   -0.02030851    0.00755611
     atom   30 type  2   force =    -0.03438868   -0.00674835    0.00007649
     atom   31 type  2   force =     0.00739486    0.06113681    0.01067735
     atom   32 type  2   force =    -0.02285851    0.06109311    0.01802232
     atom   33 type  2   force =    -0.02798701   -0.03548139   -0.05040473
     atom   34 type  2   force =     0.00152560   -0.01528946   -0.04607218

     Total force =     0.167857     Total SCF correction =     0.000863


     Computing stress (Cartesian axis) and pressure

          total   stress  (Ry/bohr**3)                   (kbar)     P=      313.67
   0.00305930   0.00016565  -0.00000435          450.04       24.37       -0.64
   0.00016565   0.00312842   0.00002289           24.37      460.21        3.37
  -0.00000435   0.00002289   0.00020918           -0.64        3.37       30.77

     Energy error            =      9.6E-01 Ry
     Gradient error          =      6.1E-02 Ry/Bohr
     Cell gradient error     =      4.6E+02 kbar

     number of scf cycles    =   3
     number of bfgs steps    =   2

     enthalpy           old  =    -295.5659323550 Ry
     enthalpy           new  =    -296.5234449268 Ry

     CASE: enthalpy          _new < enthalpy          _old

     new trust radius        =       0.1689851276 bohr
     new conv_thr            =       0.0000006114 Ry

     new unit-cell volume =   1326.21119 a.u.^3 (   196.52422 Ang^3 )
     density =      2.52086 g/cm^3

CELL_PARAMETERS (alat=  8.00000437)
   1.161277684   0.004162021   0.000057350
  -0.577043538   1.005433705   0.002343316
   0.000093899   0.005443107   2.213923470

ATOMIC_POSITIONS (crystal)
C                0.0000238590       -0.0000727813        0.1732192226    0   0   1
C                0.0000110740        0.0000094266        0.4182543546    0   0   1
C                0.0000074267        0.0000140294        0.8573993711    0   0   1
C                0.1666590769        0.3332650771        0.1703599484    0   0   1
C                0.3333715403        0.1666771160        0.4207135524    0   0   1
C                0.1666846936        0.3333156526        0.8624811153    0   0   1
C                0.5000338492       -0.0000438756        0.1729739717    0   0   1
C                0.5000472110       -0.0000104698        0.4186392853    0   0   1
C                0.5000080352        0.0000400370        0.8589617919    0   0   1
C                0.6666912257        0.3332764454        0.1701688500    0   0   1
C                0.8333679283        0.1666060940        0.4224327643    0   0   1
C                0.6666542423        0.3333752025        0.8599912026    0   0   1
C                0.0000194165        0.4999200954        0.1736009476    0   0   1
C                0.0000124062        0.4999227756        0.4183367713    0   0   1
C               -0.0000077600        0.5000429598        0.8588322447    0   0   1
C                0.1666905005        0.8332684608        0.1707168100    0   0   1
C                0.3333719977        0.6666171093        0.4213849344    0   0   1
C                0.1666539010        0.8333858578        0.8669500096    0   0   1
C                0.5000171194        0.4999017758        0.1726921426    0   0   1
C                0.5000200068        0.5000283502        0.4250026500    0   0   1
C                0.4999977722        0.4999905019        0.8662592700    0   0   1
C                0.6667039177        0.8333041995        0.1708090479    0   0   1
C                0.8333291495        0.6666380926        0.4216066200    0   0   1
C                0.6666779242        0.8333277991        0.8605403047    0   0   1
H                0.9081556799        1.2562100738        0.6785567082
H                0.7588615030        1.0802537056        0.6786597914
H                0.2880494236        0.6931023553        0.6783943363
H                0.3984309609        0.6058927459        0.6741605703
H                0.8685758846        0.7585123524        0.6790580415
H                0.7674829864        0.5643755873        0.6764649686
H                0.2605286425        0.1964121690        0.6794284514
H                0.4293701065        0.1997336252        0.6818714368
H                0.1282273602        0.8012239292        0.6376303324
H                0.2964431744        0.9382290385        0.6090698115



     Writing config-only to output data dir ../results/5h2_abs/5H2abs_C.save/ :
     XML data file
     NEW-OLD atomic charge density approx. for the potential

     Check: negative core charge=   -0.000004

     total cpu time spent up to now is      126.2 secs

     Self-consistent Calculation

     iteration #  1     ecut=    40.00 Ry     beta= 0.05
     Davidson diagonalization with overlap
     ethr =  1.00E-06,  avg # of iterations = 10.0

     total cpu time spent up to now is      131.0 secs

     total energy              =    -296.66697070 Ry
     estimated scf accuracy    <       0.02353350 Ry

     iteration #  2     ecut=    40.00 Ry     beta= 0.05
     Davidson diagonalization with overlap
     ethr =  2.22E-05,  avg # of iterations =  1.0

     total cpu time spent up to now is      132.5 secs

     total energy              =    -296.65493683 Ry
     estimated scf accuracy    <       0.02185288 Ry

     iteration #  3     ecut=    40.00 Ry     beta= 0.05
     Davidson diagonalization with overlap
     ethr =  2.06E-05,  avg # of iterations =  2.0

     total cpu time spent up to now is      134.2 secs

     total energy              =    -296.65839871 Ry
     estimated scf accuracy    <       0.00053918 Ry

     iteration #  4     ecut=    40.00 Ry     beta= 0.05
     Davidson diagonalization with overlap
     ethr =  5.09E-07,  avg # of iterations =  4.0

     total cpu time spent up to now is      136.3 secs

     total energy              =    -296.65860779 Ry
     estimated scf accuracy    <       0.00054295 Ry

     iteration #  5     ecut=    40.00 Ry     beta= 0.05
     Davidson diagonalization with overlap
     ethr =  5.09E-07,  avg # of iterations =  1.0

     total cpu time spent up to now is      137.8 secs

     total energy              =    -296.65846644 Ry
     estimated scf accuracy    <       0.00050189 Ry

     iteration #  6     ecut=    40.00 Ry     beta= 0.05
     Davidson diagonalization with overlap
     ethr =  4.73E-07,  avg # of iterations =  2.0

     total cpu time spent up to now is      139.4 secs

     total energy              =    -296.65849319 Ry
     estimated scf accuracy    <       0.00011423 Ry

     iteration #  7     ecut=    40.00 Ry     beta= 0.05
     Davidson diagonalization with overlap
     ethr =  1.08E-07,  avg # of iterations =  4.0

     total cpu time spent up to now is      141.2 secs

     total energy              =    -296.65851482 Ry
     estimated scf accuracy    <       0.00010889 Ry

     iteration #  8     ecut=    40.00 Ry     beta= 0.05
     Davidson diagonalization with overlap
     ethr =  1.03E-07,  avg # of iterations =  1.0

     total cpu time spent up to now is      142.7 secs

     total energy              =    -296.65849546 Ry
     estimated scf accuracy    <       0.00012825 Ry

     iteration #  9     ecut=    40.00 Ry     beta= 0.05
     Davidson diagonalization with overlap
     ethr =  1.03E-07,  avg # of iterations =  1.0

     total cpu time spent up to now is      144.2 secs

     total energy              =    -296.65847585 Ry
     estimated scf accuracy    <       0.00006780 Ry

     iteration # 10     ecut=    40.00 Ry     beta= 0.05
     Davidson diagonalization with overlap
     ethr =  6.40E-08,  avg # of iterations =  4.0

     total cpu time spent up to now is      146.0 secs

     total energy              =    -296.65849572 Ry
     estimated scf accuracy    <       0.00003935 Ry

     iteration # 11     ecut=    40.00 Ry     beta= 0.05
     Davidson diagonalization with overlap
     ethr =  3.71E-08,  avg # of iterations =  1.0

     total cpu time spent up to now is      147.5 secs

     total energy              =    -296.65849457 Ry
     estimated scf accuracy    <       0.00004218 Ry

     iteration # 12     ecut=    40.00 Ry     beta= 0.05
     Davidson diagonalization with overlap
     ethr =  3.71E-08,  avg # of iterations =  1.0

     total cpu time spent up to now is      149.0 secs

     total energy              =    -296.65848010 Ry
     estimated scf accuracy    <       0.00003831 Ry

     iteration # 13     ecut=    40.00 Ry     beta= 0.05
     Davidson diagonalization with overlap
     ethr =  3.61E-08,  avg # of iterations =  2.0

     total cpu time spent up to now is      150.6 secs

     total energy              =    -296.65848523 Ry
     estimated scf accuracy    <       0.00001141 Ry

     iteration # 14     ecut=    40.00 Ry     beta= 0.05
     Davidson diagonalization with overlap
     ethr =  1.08E-08,  avg # of iterations =  4.0

     total cpu time spent up to now is      152.3 secs

     total energy              =    -296.65848384 Ry
     estimated scf accuracy    <       0.00000879 Ry

     iteration # 15     ecut=    40.00 Ry     beta= 0.05
     Davidson diagonalization with overlap
     ethr =  8.29E-09,  avg # of iterations =  2.0

     total cpu time spent up to now is      154.0 secs

     total energy              =    -296.65848417 Ry
     estimated scf accuracy    <       0.00000275 Ry

     iteration # 16     ecut=    40.00 Ry     beta= 0.05
     Davidson diagonalization with overlap
     ethr =  2.59E-09,  avg # of iterations =  4.0

     total cpu time spent up to now is      155.9 secs

     total energy              =    -296.65848479 Ry
     estimated scf accuracy    <       0.00000241 Ry

     iteration # 17     ecut=    40.00 Ry     beta= 0.05
     Davidson diagonalization with overlap
     ethr =  2.27E-09,  avg # of iterations =  1.0

     total cpu time spent up to now is      158.5 secs

     total energy              =    -296.65848532 Ry
     estimated scf accuracy    <       0.00000206 Ry

     iteration # 18     ecut=    40.00 Ry     beta= 0.05
     Davidson diagonalization with overlap
     ethr =  1.94E-09,  avg # of iterations =  1.0

     total cpu time spent up to now is      160.6 secs

     total energy              =    -296.65848502 Ry
     estimated scf accuracy    <       0.00000263 Ry

     iteration # 19     ecut=    40.00 Ry     beta= 0.05
     Davidson diagonalization with overlap
     ethr =  1.94E-09,  avg # of iterations =  1.0

     total cpu time spent up to now is      162.4 secs

     total energy              =    -296.65848516 Ry
     estimated scf accuracy    <       0.00000147 Ry

     iteration # 20     ecut=    40.00 Ry     beta= 0.05
     Davidson diagonalization with overlap
     ethr =  1.38E-09,  avg # of iterations =  2.0

     total cpu time spent up to now is      164.1 secs

     End of self-consistent calculation

          k = 0.0000 0.0000 0.0000 (  3715 PWs)   bands (ev):

   -11.6131 -11.0104 -10.0561  -6.0778  -6.0081  -5.8910  -5.6611  -5.6247
    -5.5323  -5.4178  -5.3932  -5.3152  -4.8337  -4.8129  -4.7770  -4.4860
    -4.4671  -4.4423  -4.1982  -4.1374  -4.1237  -3.2698  -1.0681   1.6482
     1.9851   2.0846   2.1309   2.1434   2.2869   2.3284   2.5234   2.6175
     2.6588   2.7418   3.1859   3.5422   3.7384   4.6207   4.7699   4.8140
     4.9928   5.3123   5.4345   5.6244   5.6498   5.7056   5.7332   5.8969
     5.9192   6.7327   6.9279   6.9762   7.9702  10.1217  10.1939  10.2909
    10.8606  10.9464  11.2895  11.5897  11.6014  11.7591  13.0875  13.7156

     the Fermi energy is     8.9403 ev

!    total energy              =    -296.65848631 Ry
     estimated scf accuracy    <       0.00000033 Ry
     smearing contrib. (-TS)   =      -0.00000000 Ry
     internal energy E=F+TS    =    -296.65848631 Ry

     The total energy is F=E-TS. E is the sum of the following terms:
     one-electron contribution =     -24.72400719 Ry
     hartree contribution      =      73.77180446 Ry
     xc contribution           =    -107.48444099 Ry
     ewald contribution        =    -238.22184259 Ry

     convergence has been achieved in  20 iterations

     Forces acting on atoms (cartesian axes, Ry/au):

     atom    1 type  1   force =    -0.00156272    0.00062564    0.00786100
     atom    2 type  1   force =     0.00065486   -0.00063316   -0.00820476
     atom    3 type  1   force =     0.01037183   -0.00346601    0.00278149
     atom    4 type  1   force =     0.01963340    0.00897632    0.00672222
     atom    5 type  1   force =    -0.00836939    0.01677061    0.00037539
     atom    6 type  1   force =     0.01439862    0.00322405    0.00487691
     atom    7 type  1   force =    -0.01316879   -0.00018436    0.00641828
     atom    8 type  1   force =     0.01471819   -0.00187110   -0.00676597
     atom    9 type  1   force =    -0.03059839   -0.01909201   -0.00021681
     atom   10 type  1   force =    -0.00423944    0.00633151    0.00673866
     atom   11 type  1   force =    -0.00575805   -0.00096325   -0.00641281
     atom   12 type  1   force =     0.00082425    0.01759458    0.00286639
     atom   13 type  1   force =    -0.00533597    0.00331777    0.00637455
     atom   14 type  1   force =     0.00675309    0.00049644   -0.00545016
     atom   15 type  1   force =    -0.00496039    0.00765015    0.00220183
     atom   16 type  1   force =     0.01072509    0.00386052    0.00426043
     atom   17 type  1   force =     0.00233049   -0.00446528   -0.00330781
     atom   18 type  1   force =     0.02353913    0.00212089   -0.01126244
     atom   19 type  1   force =    -0.00716429    0.00841817    0.00314175
     atom   20 type  1   force =     0.00244861   -0.00514797    0.00289261
     atom   21 type  1   force =    -0.01384250    0.00886808    0.01920492
     atom   22 type  1   force =     0.00677610   -0.02197222    0.00610092
     atom   23 type  1   force =    -0.00636967    0.00046944   -0.00000665
     atom   24 type  1   force =     0.00321662   -0.01302454   -0.00052299
     atom   25 type  2   force =     0.00139735    0.00248120    0.00492202
     atom   26 type  2   force =    -0.00179396   -0.00192095    0.00495066
     atom   27 type  2   force =     0.03357608   -0.01846028    0.00415896
     atom   28 type  2   force =     0.02721488   -0.02665955   -0.00995979
     atom   29 type  2   force =    -0.01725420   -0.00793661    0.00714074
     atom   30 type  2   force =    -0.02676116   -0.01219967    0.00060144
     atom   31 type  2   force =    -0.00733748    0.03885335    0.00454637
     atom   32 type  2   force =    -0.00072582    0.03823555    0.00757038
     atom   33 type  2   force =    -0.00883498   -0.01062391   -0.04183690
     atom   34 type  2   force =    -0.01450138   -0.01967339   -0.02276086

     Total force =     0.107614     Total SCF correction =     0.000971


     Computing stress (Cartesian axis) and pressure

          total   stress  (Ry/bohr**3)                   (kbar)     P=       36.94
   0.00041718  -0.00041699  -0.00000803           61.37      -61.34       -1.18
  -0.00041699   0.00035719  -0.00000175          -61.34       52.54       -0.26
  -0.00000803  -0.00000175  -0.00002112           -1.18       -0.26       -3.11

     Energy error            =      1.4E-01 Ry
     Gradient error          =      4.2E-02 Ry/Bohr
     Cell gradient error     =      6.1E+01 kbar

     number of scf cycles    =   4
     number of bfgs steps    =   3

     enthalpy           old  =    -296.5234449268 Ry
     enthalpy           new  =    -296.6584863102 Ry

     CASE: enthalpy          _new < enthalpy          _old

     new trust radius        =       0.1124651414 bohr
     new conv_thr            =       0.0000004184 Ry

     new unit-cell volume =   1351.09219 a.u.^3 (   200.21121 Ang^3 )
     density =      2.47443 g/cm^3

CELL_PARAMETERS (alat=  8.00000437)
   1.171063824  -0.010838747  -0.000197474
  -0.594911047   1.019388215   0.002683319
  -0.000364785   0.005807158   2.222538134

ATOMIC_POSITIONS (crystal)
C                0.0000257849       -0.0000691403        0.1737654358    0   0   1
C                0.0000089235        0.0000052814        0.4175515573    0   0   1
C                0.0000081315        0.0000153910        0.8577301451    0   0   1
C                0.1666613387        0.3332694299        0.1712363844    0   0   1
C                0.3333712187        0.1666764373        0.4204875259    0   0   1
C                0.1666859189        0.3333182916        0.8630432433    0   0   1
C                0.5000353556       -0.0000410735        0.1733377081    0   0   1
C                0.5000455479       -0.0000136269        0.4181649968    0   0   1
C                0.5000080465        0.0000401311        0.8590726201    0   0   1
C                0.6666934910        0.3332807986        0.1710463368    0   0   1
C                0.8333658349        0.1666021086        0.4216786856    0   0   1
C                0.6666546966        0.3333762018        0.8601875033    0   0   1
C                0.0000209482        0.4999229835        0.1739987578    0   0   1
C                0.0000110397        0.4999201808        0.4179575859    0   0   1
C               -0.0000071021        0.5000442982        0.8591467036    0   0   1
C                0.1666921077        0.8332715680        0.1713767191    0   0   1
C                0.3333706911        0.6666145738        0.4208464362    0   0   1
C                0.1666508549        0.8333805726        0.8662180134    0   0   1
C                0.5000176736        0.4999026939        0.1726644696    0   0   1
C                0.5000214165        0.5000316533        0.4259940539    0   0   1
C                0.5000035316        0.5000022254        0.8687876296    0   0   1
C                0.6667060331        0.8333082934        0.1716376739    0   0   1
C                0.8333287372        0.6666373033        0.4213953290    0   0   1
C                0.6666774901        0.8333270865        0.8603632078    0   0   1
H                0.9076062978        1.2553958612        0.6790690933
H                0.7594218563        1.0811989580        0.6791784677
H                0.2939239276        0.6876288649        0.6787874108
H                0.4007732750        0.5986019788        0.6728635406
H                0.8625382849        0.7549158244        0.6797765681
H                0.7601578110        0.5623689922        0.6764533521
H                0.2659383714        0.2076313807        0.6799883093
H                0.4329772794        0.2108564855        0.6828483976
H                0.1243813070        0.7979697609        0.6325959249
H                0.2903549491        0.9323380892        0.6063672900



     Writing config-only to output data dir ../results/5h2_abs/5H2abs_C.save/ :
     XML data file
     NEW-OLD atomic charge density approx. for the potential

     Check: negative core charge=   -0.000005

     total cpu time spent up to now is      169.1 secs

     Self-consistent Calculation

     iteration #  1     ecut=    40.00 Ry     beta= 0.05
     Davidson diagonalization with overlap
     ethr =  1.00E-06,  avg # of iterations = 11.0

     total cpu time spent up to now is      175.5 secs

     total energy              =    -296.67567314 Ry
     estimated scf accuracy    <       0.00627911 Ry

     iteration #  2     ecut=    40.00 Ry     beta= 0.05
     Davidson diagonalization with overlap
     ethr =  5.92E-06,  avg # of iterations =  1.0

     total cpu time spent up to now is      177.1 secs

     total energy              =    -296.67242847 Ry
     estimated scf accuracy    <       0.00590767 Ry

     iteration #  3     ecut=    40.00 Ry     beta= 0.05
     Davidson diagonalization with overlap
     ethr =  5.57E-06,  avg # of iterations =  2.0

     total cpu time spent up to now is      179.2 secs

     total energy              =    -296.67338686 Ry
     estimated scf accuracy    <       0.00041123 Ry

     iteration #  4     ecut=    40.00 Ry     beta= 0.05
     Davidson diagonalization with overlap
     ethr =  3.88E-07,  avg # of iterations =  2.0

     total cpu time spent up to now is      181.6 secs

     total energy              =    -296.67343248 Ry
     estimated scf accuracy    <       0.00015513 Ry

     iteration #  5     ecut=    40.00 Ry     beta= 0.05
     Davidson diagonalization with overlap
     ethr =  1.46E-07,  avg # of iterations =  1.0

     total cpu time spent up to now is      183.4 secs

     total energy              =    -296.67342631 Ry
     estimated scf accuracy    <       0.00016198 Ry

     iteration #  6     ecut=    40.00 Ry     beta= 0.05
     Davidson diagonalization with overlap
     ethr =  1.46E-07,  avg # of iterations =  1.0

     total cpu time spent up to now is      184.9 secs

     total energy              =    -296.67338761 Ry
     estimated scf accuracy    <       0.00012323 Ry

     iteration #  7     ecut=    40.00 Ry     beta= 0.05
     Davidson diagonalization with overlap
     ethr =  1.16E-07,  avg # of iterations =  2.0

     total cpu time spent up to now is      186.7 secs

     total energy              =    -296.67340511 Ry
     estimated scf accuracy    <       0.00003655 Ry

     iteration #  8     ecut=    40.00 Ry     beta= 0.05
     Davidson diagonalization with overlap
     ethr =  3.45E-08,  avg # of iterations =  1.0

     total cpu time spent up to now is      188.2 secs

     total energy              =    -296.67340574 Ry
     estimated scf accuracy    <       0.00003412 Ry

     iteration #  9     ecut=    40.00 Ry     beta= 0.05
     Davidson diagonalization with overlap
     ethr =  3.22E-08,  avg # of iterations =  1.0

     total cpu time spent up to now is      190.3 secs

     total energy              =    -296.67340129 Ry
     estimated scf accuracy    <       0.00003221 Ry

     iteration # 10     ecut=    40.00 Ry     beta= 0.05
     Davidson diagonalization with overlap
     ethr =  3.04E-08,  avg # of iterations =  1.0

     total cpu time spent up to now is      192.7 secs

     total energy              =    -296.67339870 Ry
     estimated scf accuracy    <       0.00001990 Ry

     iteration # 11     ecut=    40.00 Ry     beta= 0.05
     Davidson diagonalization with overlap
     ethr =  1.88E-08,  avg # of iterations =  2.0

     total cpu time spent up to now is      194.4 secs

     total energy              =    -296.67339999 Ry
     estimated scf accuracy    <       0.00001097 Ry

     iteration # 12     ecut=    40.00 Ry     beta= 0.05
     Davidson diagonalization with overlap
     ethr =  1.04E-08,  avg # of iterations =  1.0

     total cpu time spent up to now is      196.2 secs

     total energy              =    -296.67339676 Ry
     estimated scf accuracy    <       0.00000855 Ry

     iteration # 13     ecut=    40.00 Ry     beta= 0.05
     Davidson diagonalization with overlap
     ethr =  8.06E-09,  avg # of iterations =  2.0

     total cpu time spent up to now is      198.8 secs

     total energy              =    -296.67339806 Ry
     estimated scf accuracy    <       0.00000227 Ry

     iteration # 14     ecut=    40.00 Ry     beta= 0.05
     Davidson diagonalization with overlap
     ethr =  2.14E-09,  avg # of iterations =  2.0

     total cpu time spent up to now is      200.7 secs

     total energy              =    -296.67339817 Ry
     estimated scf accuracy    <       0.00000141 Ry

     iteration # 15     ecut=    40.00 Ry     beta= 0.05
     Davidson diagonalization with overlap
     ethr =  1.33E-09,  avg # of iterations =  1.0

     total cpu time spent up to now is      203.4 secs

     total energy              =    -296.67339823 Ry
     estimated scf accuracy    <       0.00000135 Ry

     iteration # 16     ecut=    40.00 Ry     beta= 0.05
     Davidson diagonalization with overlap
     ethr =  1.28E-09,  avg # of iterations =  1.0

     total cpu time spent up to now is      205.3 secs

     total energy              =    -296.67339809 Ry
     estimated scf accuracy    <       0.00000092 Ry

     iteration # 17     ecut=    40.00 Ry     beta= 0.05
     Davidson diagonalization with overlap
     ethr =  8.72E-10,  avg # of iterations =  3.0

     total cpu time spent up to now is      207.8 secs

     End of self-consistent calculation

          k = 0.0000 0.0000 0.0000 (  3715 PWs)   bands (ev):

   -11.6819 -11.0403 -10.1265  -6.3245  -6.1643  -5.9909  -5.8976  -5.7358
    -5.6561  -5.5863  -5.5186  -5.4033  -4.8971  -4.8873  -4.8406  -4.6321
    -4.5764  -4.5413  -4.3039  -4.2519  -4.2302  -3.1963  -1.1590   1.6593
     1.7136   1.8830   1.9331   2.0563   2.1061   2.2556   2.2786   2.4185
     2.5852   2.7130   2.9980   3.4402   3.6020   4.2529   4.5236   4.6901
     4.8281   5.0984   5.2829   5.3541   5.4297   5.4755   5.5515   5.6237
     5.6926   6.4270   6.7147   6.8404   7.6118   9.9168   9.9662   9.9961
    10.6072  10.7267  11.0560  11.2680  11.3753  11.5140  12.9685  13.5435

     the Fermi energy is     8.7907 ev

!    total energy              =    -296.67339825 Ry
     estimated scf accuracy    <       0.00000022 Ry
     smearing contrib. (-TS)   =      -0.00000000 Ry
     internal energy E=F+TS    =    -296.67339825 Ry

     The total energy is F=E-TS. E is the sum of the following terms:
     one-electron contribution =     -26.71596179 Ry
     hartree contribution      =      73.89655348 Ry
     xc contribution           =    -107.04653476 Ry
     ewald contribution        =    -236.80745518 Ry

     convergence has been achieved in  17 iterations

     Forces acting on atoms (cartesian axes, Ry/au):

     atom    1 type  1   force =     0.01822519   -0.00078419    0.01056967
     atom    2 type  1   force =    -0.02166517    0.00289652   -0.00859975
     atom    3 type  1   force =     0.03679013   -0.00420719   -0.00105806
     atom    4 type  1   force =    -0.00068086    0.01014153    0.00309947
     atom    5 type  1   force =     0.01239266    0.01692010    0.00300396
     atom    6 type  1   force =    -0.00751523    0.00666677    0.00944280
     atom    7 type  1   force =     0.00591879   -0.00288046    0.00879562
     atom    8 type  1   force =    -0.00448450    0.00083047   -0.00707325
     atom    9 type  1   force =    -0.00486044   -0.01953026   -0.00283583
     atom   10 type  1   force =    -0.02530204    0.00806274    0.00300222
     atom   11 type  1   force =     0.01507168   -0.00232095   -0.00394301
     atom   12 type  1   force =    -0.02501425    0.01629253    0.00513671
     atom   13 type  1   force =     0.01517424    0.00318823    0.00832883
     atom   14 type  1   force =    -0.01291086   -0.00035638   -0.00576228
     atom   15 type  1   force =     0.02070397    0.00884681   -0.00123735
     atom   16 type  1   force =    -0.00773461    0.00451801    0.00076578
     atom   17 type  1   force =     0.02465704   -0.00733625    0.00051244
     atom   18 type  1   force =    -0.00433634    0.00233510   -0.01167315
     atom   19 type  1   force =     0.01429186    0.00661091    0.00708465
     atom   20 type  1   force =    -0.01839405   -0.00357923   -0.00803265
     atom   21 type  1   force =     0.00636387    0.00717867    0.00979361
     atom   22 type  1   force =    -0.01341845   -0.02059176    0.00190708
     atom   23 type  1   force =     0.01223390   -0.00235356    0.00228443
     atom   24 type  1   force =    -0.02385100   -0.01452376    0.00547404
     atom   25 type  2   force =     0.00414590    0.00992501    0.00405064
     atom   26 type  2   force =    -0.00547760   -0.00878716    0.00381327
     atom   27 type  2   force =     0.03370858   -0.01780514    0.00184103
     atom   28 type  2   force =     0.00975316   -0.01274131   -0.00924324
     atom   29 type  2   force =    -0.01396372   -0.00605287    0.00766028
     atom   30 type  2   force =    -0.02166418   -0.00830348    0.00227067
     atom   31 type  2   force =    -0.00741937    0.02491077    0.00071172
     atom   32 type  2   force =     0.00031547    0.02243552    0.00318365
     atom   33 type  2   force =    -0.01317706   -0.02037069   -0.02475378
     atom   34 type  2   force =     0.00212330    0.00076494   -0.01852019

     Total force =     0.081228     Total SCF correction =     0.000709


     Computing stress (Cartesian axis) and pressure

          total   stress  (Ry/bohr**3)                   (kbar)     P=      -45.19
  -0.00047084   0.00071013  -0.00001273          -69.26      104.46       -1.87
   0.00071013  -0.00036657  -0.00001753          104.46      -53.93       -2.58
  -0.00001273  -0.00001753  -0.00008409           -1.87       -2.58      -12.37

     Energy error            =      1.5E-02 Ry
     Gradient error          =      3.4E-02 Ry/Bohr
     Cell gradient error     =      1.0E+02 kbar

     number of scf cycles    =   5
     number of bfgs steps    =   4

     enthalpy           old  =    -296.6584863102 Ry
     enthalpy           new  =    -296.6733982527 Ry

     CASE: enthalpy          _new < enthalpy          _old

     new trust radius        =       0.0763188997 bohr
     new conv_thr            =       0.0000003371 Ry

     new unit-cell volume =   1352.75114 a.u.^3 (   200.45704 Ang^3 )
     density =      2.47140 g/cm^3

CELL_PARAMETERS (alat=  8.00000437)
   1.171382103  -0.001944067  -0.000669433
  -0.587374363   1.016396904   0.002576101
  -0.001391036   0.004984047   2.221285362

ATOMIC_POSITIONS (crystal)
C                0.0000282695       -0.0000638727        0.1746297740    0   0   1
C                0.0000066560        0.0000005097        0.4167517276    0   0   1
C                0.0000083359        0.0000157367        0.8578098826    0   0   1
C                0.1666627169        0.3332722137        0.1717093727    0   0   1
C                0.3333716296        0.1666773669        0.4206308207    0   0   1
C                0.1666878539        0.3333225354        0.8638066605    0   0   1
C                0.5000373999       -0.0000367439        0.1740364148    0   0   1
C                0.5000436948       -0.0000175193        0.4175243079    0   0   1
C                0.5000076250        0.0000392030        0.8589423532    0   0   1
C                0.6666948579        0.3332835545        0.1715140822    0   0   1
C                0.8333643885        0.1665991622        0.4211917210    0   0   1
C                0.6666557370        0.3333784879        0.8606003278    0   0   1
C                0.0000229245        0.4999271689        0.1746805978    0   0   1
C                0.0000095338        0.4999170178        0.4174397427    0   0   1
C               -0.0000069852        0.5000444813        0.8592020555    0   0   1
C                0.1666928379        0.8332729987        0.1716243477    0   0   1
C                0.3333702718        0.6666137985        0.4207090288    0   0   1
C                0.1666477136        0.8333741279        0.8652471249    0   0   1
C                0.5000190439        0.4999056348        0.1731139934    0   0   1
C                0.5000207224        0.5000300718        0.4258654332    0   0   1
C                0.5000074578        0.5000103879        0.8703101772    0   0   1
C                0.6667071645        0.8333105515        0.1720252401    0   0   1
C                0.8333289953        0.6666379213        0.4215004047    0   0   1
C                0.6666781425        0.8333286407        0.8606356198    0   0   1
H                0.9088678043        1.2568121235        0.6794949307
H                0.7580954972        1.0799897718        0.6795919701
H                0.2987706991        0.6831610928        0.6790590262
H                0.4022586604        0.5937926716        0.6718433257
H                0.8583470120        0.7531596633        0.6804883214
H                0.7539105894        0.5599690938        0.6765622446
H                0.2683659238        0.2154705453        0.6802537743
H                0.4365405333        0.2183725311        0.6834203191
H                0.1199102084        0.7939338296        0.6292098285
H                0.2881679017        0.9300974765        0.6041880080



     Writing config-only to output data dir ../results/5h2_abs/5H2abs_C.save/ :
     XML data file
     NEW-OLD atomic charge density approx. for the potential

     Check: negative core charge=   -0.000005

     total cpu time spent up to now is      212.1 secs

     Self-consistent Calculation

     iteration #  1     ecut=    40.00 Ry     beta= 0.05
     Davidson diagonalization with overlap
     ethr =  1.00E-06,  avg # of iterations =  7.0

     total cpu time spent up to now is      215.7 secs

     total energy              =    -296.69262090 Ry
     estimated scf accuracy    <       0.00201892 Ry

     iteration #  2     ecut=    40.00 Ry     beta= 0.05
     Davidson diagonalization with overlap
     ethr =  1.90E-06,  avg # of iterations =  1.0

     total cpu time spent up to now is      217.2 secs

     total energy              =    -296.69172890 Ry
     estimated scf accuracy    <       0.00192696 Ry

     iteration #  3     ecut=    40.00 Ry     beta= 0.05
     Davidson diagonalization with overlap
     ethr =  1.82E-06,  avg # of iterations =  2.0

     total cpu time spent up to now is      219.0 secs

     total energy              =    -296.69192521 Ry
     estimated scf accuracy    <       0.00002717 Ry

     iteration #  4     ecut=    40.00 Ry     beta= 0.05
     Davidson diagonalization with overlap
     ethr =  2.56E-08,  avg # of iterations =  5.0

     total cpu time spent up to now is      221.4 secs

     total energy              =    -296.69194617 Ry
     estimated scf accuracy    <       0.00003305 Ry

     iteration #  5     ecut=    40.00 Ry     beta= 0.05
     Davidson diagonalization with overlap
     ethr =  2.56E-08,  avg # of iterations =  1.0

     total cpu time spent up to now is      223.0 secs

     total energy              =    -296.69193706 Ry
     estimated scf accuracy    <       0.00003672 Ry

     iteration #  6     ecut=    40.00 Ry     beta= 0.05
[...]
     atom   14 type  1   force =     0.00128715   -0.00347891    0.00019796
     atom   15 type  1   force =     0.00385097    0.02627093   -0.00021135
     atom   16 type  1   force =     0.00088963    0.00205805   -0.00021566
     atom   17 type  1   force =    -0.00026635   -0.00419619    0.00044156
     atom   18 type  1   force =     0.00189754   -0.01048835    0.00047528
     atom   19 type  1   force =     0.00010845   -0.00082654   -0.00023212
     atom   20 type  1   force =    -0.00115414   -0.00133665   -0.00048598
     atom   21 type  1   force =    -0.00587042    0.00196487    0.00016783
     atom   22 type  1   force =     0.00101283   -0.00640041   -0.00073168
     atom   23 type  1   force =    -0.00051560   -0.00394843    0.00009885
     atom   24 type  1   force =    -0.00246808   -0.01303691   -0.00058896
     atom   25 type  2   force =     0.00021762   -0.00047443   -0.00025165
     atom   26 type  2   force =     0.00025379   -0.00012793    0.00006431
     atom   27 type  2   force =    -0.00055970   -0.00028534   -0.00062359
     atom   28 type  2   force =     0.00011989   -0.00031643    0.00042809
     atom   29 type  2   force =     0.00034471    0.00008878    0.00041133
     atom   30 type  2   force =    -0.00109379   -0.00104469   -0.00004225
     atom   31 type  2   force =     0.00026424    0.00052319   -0.00076253
     atom   32 type  2   force =    -0.00019807    0.00027913   -0.00033457
     atom   33 type  2   force =     0.00003909   -0.00106860    0.00026509
     atom   34 type  2   force =    -0.00035469    0.00056708   -0.00040713

     Total force =     0.003237     Total SCF correction =     0.000193


     Computing stress (Cartesian axis) and pressure

          total   stress  (Ry/bohr**3)                   (kbar)     P=       -0.24
  -0.00000091   0.00000200  -0.00000379           -0.13        0.29       -0.56
   0.00000200   0.00000215   0.00000252            0.29        0.32        0.37
  -0.00000379   0.00000252  -0.00000608           -0.56        0.37       -0.89

     Energy error            =      3.5E-05 Ry
     Gradient error          =      1.1E-03 Ry/Bohr
     Cell gradient error     =      8.9E-01 kbar

     number of scf cycles    =  49
     number of bfgs steps    =  48

     enthalpy           old  =    -296.7409202988 Ry
     enthalpy           new  =    -296.7409554607 Ry

     CASE: enthalpy          _new < enthalpy          _old

     new trust radius        =       0.0143618237 bohr
     new conv_thr            =       0.0000000100 Ry

     new unit-cell volume =   1343.73293 a.u.^3 (   199.12068 Ang^3 )
     density =      2.48798 g/cm^3

CELL_PARAMETERS (alat=  8.00000437)
   1.167176413   0.000058291   0.001656938
  -0.583588364   1.008137388   0.003356566
   0.003406380   0.009823749   2.230398118

ATOMIC_POSITIONS (crystal)
C                0.0000024952       -0.0000543952        0.1780743806    0   0   1
C                0.0000248213        0.0000199544        0.4136482763    0   0   1
C               -0.0000172061       -0.0000278261        0.8612616014    0   0   1
C                0.1666533892        0.3332922097        0.1742090233    0   0   1
C                0.3334227420        0.1667162227        0.4184203372    0   0   1
C                0.1668723453        0.3335634163        0.8645503535    0   0   1
C                0.4999937494       -0.0000458883        0.1783840456    0   0   1
C                0.5000412812       -0.0000537300        0.4132623496    0   0   1
C                0.4999355084       -0.0000472432        0.8638099776    0   0   1
C                0.6666528685        0.3332513709        0.1740374288    0   0   1
C                0.8333869681        0.1666183209        0.4179579748    0   0   1
C                0.6667227893        0.3334800483        0.8638032805    0   0   1
C               -0.0000079482        0.4999035329        0.1775887294    0   0   1
C               -0.0000044319        0.4998868963        0.4126723777    0   0   1
C                0.0000562925        0.5001079109        0.8640802214    0   0   1
C                0.1666327629        0.8332311309        0.1747261128    0   0   1
C                0.3333369134        0.6665413193        0.4153351752    0   0   1
C                0.1665340483        0.8332004475        0.8717639394    0   0   1
C                0.4999736363        0.4999265890        0.1786952967    0   0   1
C                0.5000682845        0.4999685825        0.4137305685    0   0   1
C                0.5001493290        0.5002674160        0.8734669520    0   0   1
C                0.6666532216        0.8332919576        0.1749694896    0   0   1
C                0.8333529130        0.6666265408        0.4153106831    0   0   1
C                0.6666999828        0.8334318876        0.8665979255    0   0   1
H                0.8842694574        1.2675601078        0.6825264827
H                0.7844289023        1.0782192740        0.6816848013
H                0.3079635069        0.6937122682        0.6740021805
H                0.4322942711        0.6094113269        0.6539231532
H                0.7964721125        0.6627330807        0.6766732650
H                0.5992334114        0.5754520755        0.6360049787
H                0.2428547682        0.1353873429        0.6881394314
H                0.4334844531        0.2150328092        0.6841981947
H               -0.0027399217        0.7256168985        0.6396449979
H                0.2040530229        0.7931143259        0.6280133556



     Writing config-only to output data dir ../results/5h2_abs/5H2abs_C.save/ :
     XML data file
     NEW-OLD atomic charge density approx. for the potential

     Check: negative core charge=   -0.000005

     total cpu time spent up to now is     2094.3 secs

     Self-consistent Calculation

     iteration #  1     ecut=    40.00 Ry     beta= 0.05
     Davidson diagonalization with overlap
     ethr =  1.00E-06,  avg # of iterations =  2.0

     Threshold (ethr) on eigenvalues was too large:
     Diagonalizing with lowered threshold

     Davidson diagonalization with overlap
     ethr =  1.60E-08,  avg # of iterations =  4.0

     total cpu time spent up to now is     2098.7 secs

     total energy              =    -296.74098887 Ry
     estimated scf accuracy    <       0.00002070 Ry

     iteration #  2     ecut=    40.00 Ry     beta= 0.05
     Davidson diagonalization with overlap
     ethr =  1.95E-08,  avg # of iterations =  1.0

     total cpu time spent up to now is     2100.4 secs

     total energy              =    -296.74097858 Ry
     estimated scf accuracy    <       0.00001953 Ry

     iteration #  3     ecut=    40.00 Ry     beta= 0.05
     Davidson diagonalization with overlap
     ethr =  1.84E-08,  avg # of iterations =  2.0

     total cpu time spent up to now is     2102.2 secs

     total energy              =    -296.74098178 Ry
     estimated scf accuracy    <       0.00000071 Ry

     iteration #  4     ecut=    40.00 Ry     beta= 0.05
     Davidson diagonalization with overlap
     ethr =  6.67E-10,  avg # of iterations =  4.0

     total cpu time spent up to now is     2104.7 secs

     total energy              =    -296.74098198 Ry
     estimated scf accuracy    <       0.00000014 Ry

     iteration #  5     ecut=    40.00 Ry     beta= 0.05
     Davidson diagonalization with overlap
     ethr =  1.33E-10,  avg # of iterations =  4.0

     total cpu time spent up to now is     2106.7 secs

     total energy              =    -296.74098206 Ry
     estimated scf accuracy    <       0.00000016 Ry

     iteration #  6     ecut=    40.00 Ry     beta= 0.05
     Davidson diagonalization with overlap
     ethr =  1.33E-10,  avg # of iterations =  1.0

     total cpu time spent up to now is     2108.3 secs

     total energy              =    -296.74098204 Ry
     estimated scf accuracy    <       0.00000011 Ry

     iteration #  7     ecut=    40.00 Ry     beta= 0.05
     Davidson diagonalization with overlap
     ethr =  1.08E-10,  avg # of iterations =  2.0

     total cpu time spent up to now is     2110.5 secs

     total energy              =    -296.74098205 Ry
     estimated scf accuracy    <       0.00000001 Ry

     iteration #  8     ecut=    40.00 Ry     beta= 0.05
     Davidson diagonalization with overlap
     ethr =  1.22E-11,  avg # of iterations =  4.0

     total cpu time spent up to now is     2112.5 secs

     total energy              =    -296.74098205 Ry
     estimated scf accuracy    <       0.00000001 Ry

     iteration #  9     ecut=    40.00 Ry     beta= 0.05
     Davidson diagonalization with overlap
     ethr =  1.17E-11,  avg # of iterations =  1.0

     total cpu time spent up to now is     2114.6 secs

     total energy              =    -296.74098205 Ry
     estimated scf accuracy    <       0.00000001 Ry

     iteration # 10     ecut=    40.00 Ry     beta= 0.05
     Davidson diagonalization with overlap
     ethr =  1.16E-11,  avg # of iterations =  1.0

     total cpu time spent up to now is     2116.2 secs

     total energy              =    -296.74098212 Ry
     estimated scf accuracy    <       0.00000001 Ry

     iteration # 11     ecut=    40.00 Ry     beta= 0.05
     Davidson diagonalization with overlap
     ethr =  9.67E-12,  avg # of iterations =  2.0

     total cpu time spent up to now is     2118.0 secs

     End of self-consistent calculation

          k = 0.0000 0.0000 0.0000 (  3715 PWs)   bands (ev):

   -11.9939 -10.8365 -10.1562  -6.4268  -6.4169  -6.3685  -5.8383  -5.8296
    -5.8056  -5.4617  -5.3854  -5.2955  -4.7240  -4.6925  -4.6806  -4.6261
    -4.5711  -4.5292  -4.3447  -4.2946  -4.2811  -3.3953  -1.2977   1.4235
     1.6946   1.7270   1.7401   2.2819   2.3368   2.3638   2.3807   2.4274
     2.4427   2.5976   3.1829   3.3425   3.6600   3.8840   4.5100   4.5694
     4.5892   5.2948   5.3057   5.4704   5.5769   5.6073   5.6260   5.8217
     5.8428   6.3834   6.7543   6.8089   7.5134  10.1143  10.1318  10.2463
    10.7162  10.7335  10.9581  11.3416  11.4918  11.6844  13.7184  14.1013

     the Fermi energy is     8.2577 ev

!    total energy              =    -296.74098206 Ry
     estimated scf accuracy    <          5.0E-09 Ry
     smearing contrib. (-TS)   =      -0.00000000 Ry
     internal energy E=F+TS    =    -296.74098206 Ry

     The total energy is F=E-TS. E is the sum of the following terms:
     one-electron contribution =     -41.89830481 Ry
     hartree contribution      =      81.63889866 Ry
     xc contribution           =    -107.34328304 Ry
     ewald contribution        =    -229.13829287 Ry

     convergence has been achieved in  11 iterations

     Forces acting on atoms (cartesian axes, Ry/au):

     atom    1 type  1   force =     0.00266340   -0.00360853    0.00017291
     atom    2 type  1   force =    -0.00121940    0.00599819   -0.00007949
     atom    3 type  1   force =     0.02008166   -0.01280358   -0.00034075
     atom    4 type  1   force =     0.00636402    0.00679718   -0.00026365
     atom    5 type  1   force =    -0.00071350   -0.00347654   -0.00044454
     atom    6 type  1   force =     0.01637128    0.01989026    0.00074426
     atom    7 type  1   force =    -0.00318915   -0.00364985    0.00007971
     atom    8 type  1   force =     0.00114237    0.00460706   -0.00022241
     atom    9 type  1   force =    -0.01464136   -0.01652880    0.00026350
     atom   10 type  1   force =    -0.00378923    0.00773040    0.00015848
     atom   11 type  1   force =    -0.00009406   -0.00277152   -0.00021493
     atom   12 type  1   force =    -0.01977421    0.01106011    0.00022757
     atom   13 type  1   force =    -0.00114779    0.00051358    0.00066455
     atom   14 type  1   force =     0.00138836   -0.00328006    0.00014225
     atom   15 type  1   force =     0.00371388    0.02616067   -0.00002221
     atom   16 type  1   force =     0.00086643    0.00209355    0.00007825
     atom   17 type  1   force =    -0.00051477   -0.00400263    0.00072848
     atom   18 type  1   force =     0.00190187   -0.01040517    0.00030283
     atom   19 type  1   force =     0.00005901   -0.00096033   -0.00059802
     atom   20 type  1   force =    -0.00114099   -0.00121542   -0.00008067
     atom   21 type  1   force =    -0.00590845    0.00196824    0.00049548
     atom   22 type  1   force =     0.00110393   -0.00598109   -0.00034484
     atom   23 type  1   force =    -0.00037478   -0.00366139    0.00017376
     atom   24 type  1   force =    -0.00228517   -0.01314794   -0.00048455
     atom   25 type  2   force =     0.00027539   -0.00034535   -0.00024589
     atom   26 type  2   force =     0.00019515   -0.00023821    0.00006909
     atom   27 type  2   force =    -0.00064679   -0.00009471   -0.00098270
     atom   28 type  2   force =     0.00005990   -0.00010515    0.00030316
     atom   29 type  2   force =     0.00025114    0.00015318    0.00062993
     atom   30 type  2   force =    -0.00117888   -0.00101331   -0.00015771
     atom   31 type  2   force =     0.00019818    0.00024155   -0.00062116
     atom   32 type  2   force =    -0.00003213    0.00013897   -0.00021424
     atom   33 type  2   force =     0.00040538   -0.00058624    0.00036029
     atom   34 type  2   force =    -0.00039068    0.00052289   -0.00027674

     Total force =     0.003127     Total SCF correction =     0.000136


     Computing stress (Cartesian axis) and pressure

          total   stress  (Ry/bohr**3)                   (kbar)     P=       -0.05
  -0.00000029   0.00000035  -0.00000382           -0.04        0.05       -0.56
   0.00000035   0.00000192   0.00000142            0.05        0.28        0.21
  -0.00000382   0.00000142  -0.00000265           -0.56        0.21       -0.39

     Energy error            =      2.7E-05 Ry
     Gradient error          =      1.2E-03 Ry/Bohr
     Cell gradient error     =      5.6E-01 kbar

     number of scf cycles    =  50
     number of bfgs steps    =  49

     enthalpy           old  =    -296.7409554607 Ry
     enthalpy           new  =    -296.7409820608 Ry

     CASE: enthalpy          _new < enthalpy          _old

     new trust radius        =       0.0129958728 bohr

     The maximum number of steps has been reached.

     End of BFGS Geometry Optimization
     new unit-cell volume =   1343.34159 a.u.^3 (   199.06269 Ang^3 )
     density =      2.48871 g/cm^3

CELL_PARAMETERS (alat=  8.00000437)
   1.167173566   0.000072467   0.001473854
  -0.583573396   1.008137549   0.003511013
   0.003026441   0.009970838   2.229738199

ATOMIC_POSITIONS (crystal)
C                0.0000021689       -0.0000552961        0.1780004636    0   0   1
C                0.0000253298        0.0000213996        0.4137605579    0   0   1
C               -0.0000167507       -0.0000272014        0.8613467122    0   0   1
C                0.1666534571        0.3332923290        0.1741861008    0   0   1
C                0.3334226044        0.1667162716        0.4184563457    0   0   1
C                0.1668723256        0.3335634608        0.8645345798    0   0   1
C                0.4999938981       -0.0000460377        0.1783804101    0   0   1
C                0.5000415172       -0.0000529637        0.4133124534    0   0   1
C                0.4999349578       -0.0000476946        0.8637880699    0   0   1
C                0.6666539747        0.3332524519        0.1741399410    0   0   1
C                0.8333877147        0.1666193069        0.4180600786    0   0   1
C                0.6667236188        0.3334807330        0.8639161169    0   0   1
C               -0.0000072034        0.4999038727        0.1776516859    0   0   1
C               -0.0000039981        0.4998876359        0.4127333846    0   0   1
C                0.0000562484        0.5001079957        0.8641021643    0   0   1
C                0.1666327455        0.8332310161        0.1746880763    0   0   1
C                0.3333370298        0.6665414625        0.4153733895    0   0   1
C                0.1665343017        0.8332009828        0.8718593099    0   0   1
C                0.4999740282        0.4999277142        0.1787761538    0   0   1
C                0.5000671508        0.4999667568        0.4135676477    0   0   1
C                0.5001494561        0.5002676723        0.8734546152    0   0   1
C                0.6666523605        0.8332913605        0.1748636255    0   0   1
C                0.8333527505        0.6666263711        0.4153074951    0   0   1
C                0.6666991095        0.8334310253        0.8665021039    0   0   1
H                0.8841114093        1.2673731362        0.6824354236
H                0.7844358774        1.0780379564        0.6816971084
H                0.3071116072        0.6931199435        0.6740248355
H                0.4318652993        0.6091301606        0.6541096286
H                0.7958808186        0.6621841435        0.6765323565
H                0.5983818794        0.5748692559        0.6358703386
H                0.2429081223        0.1354835826        0.6879027410
H                0.4334812463        0.2151292404        0.6840203376
H               -0.0034951923        0.7240204657        0.6397474620
H                0.2037806426        0.7932574829        0.6280579207



     Writing config-only to output data dir ../results/5h2_abs/5H2abs_C.save/ :
     XML data file
     NEW-OLD atomic charge density approx. for the potential

     Check: negative core charge=   -0.000005

     Writing all to output data dir ../results/5h2_abs/5H2abs_C.save/ :
     XML data file, charge density, pseudopotentials, collected wavefunctions

     init_run     :      1.99s CPU      1.74s WALL (       1 calls)
     electrons    :   2259.69s CPU   1883.93s WALL (      50 calls)
     update_pot   :      8.01s CPU      5.82s WALL (      50 calls)
     forces       :     79.78s CPU     69.26s WALL (      50 calls)
     stress       :    207.34s CPU    141.19s WALL (      50 calls)

     Called by init_run:
     wfcinit      :      0.95s CPU      0.77s WALL (       1 calls)
     potinit      :      0.14s CPU      0.11s WALL (       1 calls)
     hinit0       :      0.57s CPU      0.54s WALL (       1 calls)

     Called by electrons:
     c_bands      :   1333.62s CPU   1091.47s WALL (     846 calls)
     sum_band     :    516.38s CPU    462.84s WALL (     846 calls)
     v_of_rho     :     36.39s CPU     21.22s WALL (     888 calls)
     newd         :    264.78s CPU    246.43s WALL (     888 calls)
     mix_rho      :    107.68s CPU     67.37s WALL (     846 calls)

     Called by c_bands:
     init_us_2    :     12.62s CPU      9.15s WALL (    1693 calls)
     cegterg      :   1305.27s CPU   1074.46s WALL (     846 calls)

     Called by *egterg:
     cdiaghg      :     28.57s CPU     28.74s WALL (    2773 calls)
     h_psi        :    837.33s CPU    615.34s WALL (    2832 calls)
     s_psi        :    147.12s CPU    142.42s WALL (    2832 calls)
     g_psi        :      3.88s CPU      2.51s WALL (    1985 calls)

     Called by h_psi:
     h_psi:calbec :    136.62s CPU    131.09s WALL (    2832 calls)
     vloc_psi     :    561.37s CPU    344.98s WALL (    2832 calls)
     add_vuspsi   :    136.37s CPU    137.53s WALL (    2832 calls)

     General routines
     calbec       :    223.04s CPU    216.98s WALL (    3928 calls)
     fft          :     81.76s CPU     51.61s WALL (    5687 calls)
     ffts         :     42.34s CPU     27.96s WALL (   16689 calls)
     fftw         :    479.50s CPU    303.44s WALL (  314246 calls)
     interpolate  :     16.35s CPU     10.34s WALL (     888 calls)

     Parallel routines

     PWSCF        :  42m58.63s CPU  35m22.78s WALL


   This run was terminated on:  16:34:27   7Aug2024            

=------------------------------------------------------------------------------=
   JOB DONE.
=------------------------------------------------------------------------------=
