
     Program PWSCF v.7.3.1 starts on  7Aug2024 at 18:19:17 

     This program is part of the open-source Quantum ESPRESSO suite
     for quantum simulation of materials; please cite
         "P. Giannozzi et al., J. Phys.:Condens. Matter 21 395502 (2009);
         "P. Giannozzi et al., J. Phys.:Condens. Matter 29 465901 (2017);
         "P. Giannozzi et al., J. Chem. Phys. 152 154105 (2020);
          URL http://www.quantum-espresso.org", 
     in publications or presentations arising from this work. More details at
     http://www.quantum-espresso.org/quote

     Parallel version (MPI & OpenMP), running on       4 processor cores
     Number of MPI processes:                 2
     Threads/MPI process:                     2

     MPI processes distributed on     1 nodes
     2540 MiB available memory on the printing compute node when the environment starts

     Reading input from hydrogen_absorption5.in

     Current dimensions of program PWSCF are:
     Max number of different atomic species (ntypx) = 10
     Max number of k-points (npk) =  40000
     Max angular momentum in pseudopotentials (lmaxx) =  4

     File ../results/5h2_abs/5H2abs_C.update deleted, as requested

     File ../results/5h2_abs/5H2abs_C.bfgs deleted, as requested

     IMPORTANT: XC functional enforced from input :
     Exchange-correlation= LDA
                           (   1   1   0   0   0   0   0)
     Any further DFT definition will be discarded
     Please, verify this is what you really want


     R & G space division:  proc/nbgrp/npool/nimage =       2
     Subspace diagonalization in iterative solution of the eigenvalue problem:
     a serial algorithm will be used


     Parallelization info
     --------------------
     sticks:   dense  smooth     PW     G-vecs:    dense   smooth      PW
     Min        1209     482    125               100094    25301    3191
     Max        1210     485    128               100097    25304    3192
     Sum        2419     967    253               200191    50605    6383

     Using Slab Decomposition


     Title: 
     5H2_absorption_C                                                           


     bravais-lattice index     =            0
     lattice parameter (alat)  =       8.0000  a.u.
     unit-cell volume          =    1482.8106 (a.u.)^3
     number of atoms/cell      =           34
     number of atomic types    =            2
     number of electrons       =       106.00
     number of Kohn-Sham states=           64
     kinetic-energy cutoff     =      40.0000  Ry
     charge density cutoff     =     400.0000  Ry
     scf convergence threshold =      1.0E-06
     mixing beta               =       0.0500
     number of iterations used =            8  local-TF  mixing
     energy convergence thresh.=      1.0E-04
     force convergence thresh. =      1.0E-03
     press convergence thresh. =      5.0E-01
     Exchange-correlation= LDA
                           (   1   1   0   0   0   0   0)
     nstep                     =           50


     celldm(1)=   8.000004  celldm(2)=   0.000000  celldm(3)=   0.000000
     celldm(4)=   0.000000  celldm(5)=   0.000000  celldm(6)=   0.000000

     crystal axes: (cart. coord. in units of alat)
               a(1) = (   1.175521   0.000018   0.004697 )  
               a(2) = (  -0.587803   1.018057   0.000867 )  
               a(3) = (   0.008583   0.007618   2.420019 )  

     reciprocal axes: (cart. coord. in units 2 pi/alat)
               b(1) = (  0.850697  0.491177 -0.004563 )  
               b(2) = ( -0.000003  0.982264 -0.003092 )  
               b(3) = ( -0.001651 -0.001305  0.413230 )  


     PseudoPot. # 1 for C  read from file:
     /home/edoardocabiati/.burai/.pseudopot/C.pz-n-rrkjus_psl.0.1.UPF
     MD5 check sum: a3cecbabebb5b3a1aff122f23eb09bb0
     Pseudo is Ultrasoft + core correction, Zval =  4.0
     Generated using "atomic" code by A. Dal Corso  v.5.0.2 svn rev. 9415
     Using radial grid of 1073 points,  4 beta functions with: 
                l(1) =   0
                l(2) =   0
                l(3) =   1
                l(4) =   1
     Q(r) pseudized with 0 coefficients 


     PseudoPot. # 2 for H  read from file:
     /home/edoardocabiati/.burai/.pseudopot/H.pz-rrkjus_psl.0.1.UPF
     MD5 check sum: 1467ebfaa2880178e80d097b970df8c7
     Pseudo is Ultrasoft, Zval =  1.0
     Generated using "atomic" code by A. Dal Corso  v.5.0.2 svn rev. 9415
     Using radial grid of  929 points,  2 beta functions with: 
                l(1) =   0
                l(2) =   0
     Q(r) pseudized with 0 coefficients 


     atomic species   valence    mass     pseudopotential
     C                 4.00    12.01100     C ( 1.00)
     H                 1.00     1.00784     H ( 1.00)

     No symmetry found



   Cartesian axes

     site n.     atom                  positions (alat units)
         1        C      tau(   1) = (   0.0016076   0.0013622   0.4440529  )
         2        C      tau(   2) = (   0.0035568   0.0031705   0.9872281  )
         3        C      tau(   3) = (   0.0073990   0.0065510   2.0904131  )
         4        C      tau(   4) = (   0.0015105   0.3406430   0.4399000  )
         5        C      tau(   5) = (   0.2974835   0.1728920   0.9945853  )
         6        C      tau(   6) = (   0.0075346   0.3462191   2.0926262  )
         7        C      tau(   7) = (   0.5893687   0.0013959   0.4469485  )
         8        C      tau(   8) = (   0.5913554   0.0030792   0.9889720  )
         9        C      tau(   9) = (   0.5951450   0.0065604   2.0945253  )
        10        C      tau(  10) = (   0.5892868   0.3406022   0.4424284  )
        11        C      tau(  11) = (   0.8853100   0.1728547   0.9981924  )
        12        C      tau(  12) = (   0.5951684   0.3461600   2.0968478  )
        13        C      tau(  13) = (  -0.2923212   0.5103015   0.4445684  )
        14        C      tau(  14) = (  -0.2903266   0.5120183   0.9883144  )
        15        C      tau(  15) = (  -0.2864738   0.5157405   2.0887345  )
        16        C      tau(  16) = (  -0.2923249   0.8496880   0.4394535  )
        17        C      tau(  17) = (   0.0035418   0.6816793   0.9952470  )
        18        C      tau(  18) = (  -0.2865566   0.8548063   2.1080270  )
        19        C      tau(  19) = (   0.2954314   0.5103710   0.4479297  )
        20        C      tau(  20) = (   0.2973961   0.5120184   0.9903855  )
        21        C      tau(  21) = (   0.3013698   0.5159639   2.1101727  )
        22        C      tau(  22) = (   0.2954038   0.8497341   0.4418843  )
        23        C      tau(  23) = (   0.5912794   0.6817914   0.9970794  )
        24        C      tau(  24) = (   0.3012917   0.8551572   2.0935042  )
        25        H      tau(  25) = (   0.3028071   1.2900648   1.6710263  )
        26        H      tau(  26) = (   0.2933563   1.1031933   1.6692944  )
        27        H      tau(  27) = (  -0.0619215   0.7387610   1.6131057  )
        28        H      tau(  28) = (   0.1121065   0.6343340   1.6096568  )
        29        H      tau(  29) = (   0.5284784   0.6437825   1.6207847  )
        30        H      tau(  30) = (   0.3247476   0.5244553   1.5608321  )
        31        H      tau(  31) = (   0.3167621   0.0832273   1.6100298  )
        32        H      tau(  32) = (   0.3131538   0.2864587   1.6117846  )
        33        H      tau(  33) = (  -0.4737125   0.7487578   1.5953920  )
        34        H      tau(  34) = (  -0.2648396   0.8640975   1.5510632  )

     number of k points=     1  Gaussian smearing, width (Ry)=  0.0100
                       cart. coord. in units 2pi/alat
        k(    1) = (   0.0000000   0.0000000   0.0000000), wk =   2.0000000

     Dense  grid:   200191 G-vectors     FFT dimensions: (  60,  60, 125)

     Smooth grid:    50605 G-vectors     FFT dimensions: (  40,  40,  80)

     Estimated max dynamical RAM per process >     248.22 MB

     Estimated total dynamical RAM >     496.44 MB

     Check: negative core charge=   -0.000002

     Initial potential from superposition of free atoms

     starting charge     105.9990, renormalised to     106.0000
     Starting wfcs are  106 randomized atomic wfcs

     total cpu time spent up to now is        3.2 secs

     Self-consistent Calculation

     iteration #  1     ecut=    40.00 Ry     beta= 0.05
     Davidson diagonalization with overlap
     ethr =  1.00E-02,  avg # of iterations =  3.0

     total cpu time spent up to now is        9.2 secs

     total energy              =    -297.68747369 Ry
     estimated scf accuracy    <       1.83381307 Ry

     iteration #  2     ecut=    40.00 Ry     beta= 0.05
     Davidson diagonalization with overlap
     ethr =  1.73E-03,  avg # of iterations =  4.0

     total cpu time spent up to now is       12.9 secs

     total energy              =    -298.56263255 Ry
     estimated scf accuracy    <       2.25683126 Ry

     iteration #  3     ecut=    40.00 Ry     beta= 0.05
     Davidson diagonalization with overlap
     ethr =  1.73E-03,  avg # of iterations =  1.0

     total cpu time spent up to now is       16.1 secs

     total energy              =    -296.68850995 Ry
     estimated scf accuracy    <       3.46482370 Ry

     iteration #  4     ecut=    40.00 Ry     beta= 0.05
     Davidson diagonalization with overlap
     ethr =  1.73E-03,  avg # of iterations =  2.0

     total cpu time spent up to now is       19.7 secs

     total energy              =    -296.88376351 Ry
     estimated scf accuracy    <       0.17618045 Ry

     iteration #  5     ecut=    40.00 Ry     beta= 0.05
     Davidson diagonalization with overlap
     ethr =  1.66E-04,  avg # of iterations =  5.0

     total cpu time spent up to now is       23.9 secs

     total energy              =    -296.94462179 Ry
     estimated scf accuracy    <       0.08826730 Ry

     iteration #  6     ecut=    40.00 Ry     beta= 0.05
     Davidson diagonalization with overlap
     ethr =  8.33E-05,  avg # of iterations = 16.0

     total cpu time spent up to now is       28.9 secs

     total energy              =    -296.91356815 Ry
     estimated scf accuracy    <       0.07685940 Ry

     iteration #  7     ecut=    40.00 Ry     beta= 0.05
     Davidson diagonalization with overlap
     ethr =  7.25E-05,  avg # of iterations =  2.0

     total cpu time spent up to now is       32.6 secs

     total energy              =    -296.92170003 Ry
     estimated scf accuracy    <       0.00837755 Ry

     iteration #  8     ecut=    40.00 Ry     beta= 0.05
     Davidson diagonalization with overlap
     c_bands:  1 eigenvalues not converged
     ethr =  7.90E-06,  avg # of iterations = 20.0

     total cpu time spent up to now is       38.7 secs

     total energy              =    -296.92947959 Ry
     estimated scf accuracy    <       0.00883414 Ry

     iteration #  9     ecut=    40.00 Ry     beta= 0.05
     Davidson diagonalization with overlap
     ethr =  7.90E-06,  avg # of iterations =  2.0

     total cpu time spent up to now is       41.9 secs

     total energy              =    -296.92547846 Ry
     estimated scf accuracy    <       0.00771158 Ry

     iteration # 10     ecut=    40.00 Ry     beta= 0.05
     Davidson diagonalization with overlap
     ethr =  7.28E-06,  avg # of iterations =  2.0

     total cpu time spent up to now is       45.2 secs

     total energy              =    -296.92608512 Ry
     estimated scf accuracy    <       0.00075339 Ry

     iteration # 11     ecut=    40.00 Ry     beta= 0.05
     Davidson diagonalization with overlap
     ethr =  7.11E-07,  avg # of iterations = 15.0

     total cpu time spent up to now is       50.2 secs

     total energy              =    -296.92640295 Ry
     estimated scf accuracy    <       0.00037258 Ry

     iteration # 12     ecut=    40.00 Ry     beta= 0.05
     Davidson diagonalization with overlap
     ethr =  3.51E-07,  avg # of iterations =  2.0

     total cpu time spent up to now is       53.7 secs

     total energy              =    -296.92640317 Ry
     estimated scf accuracy    <       0.00017041 Ry

     iteration # 13     ecut=    40.00 Ry     beta= 0.05
     Davidson diagonalization with overlap
     ethr =  1.61E-07,  avg # of iterations =  2.0

     total cpu time spent up to now is       57.0 secs

     total energy              =    -296.92635346 Ry
     estimated scf accuracy    <       0.00012515 Ry

     iteration # 14     ecut=    40.00 Ry     beta= 0.05
     Davidson diagonalization with overlap
     ethr =  1.18E-07,  avg # of iterations =  4.0

     total cpu time spent up to now is       60.7 secs

     total energy              =    -296.92638308 Ry
     estimated scf accuracy    <       0.00001002 Ry

     iteration # 15     ecut=    40.00 Ry     beta= 0.05
     Davidson diagonalization with overlap
     ethr =  9.45E-09,  avg # of iterations =  5.0

     total cpu time spent up to now is       65.2 secs

     total energy              =    -296.92638883 Ry
     estimated scf accuracy    <       0.00000710 Ry

     iteration # 16     ecut=    40.00 Ry     beta= 0.05
     Davidson diagonalization with overlap
     ethr =  6.70E-09,  avg # of iterations =  4.0

     total cpu time spent up to now is       68.8 secs

     total energy              =    -296.92638934 Ry
     estimated scf accuracy    <       0.00000916 Ry

     iteration # 17     ecut=    40.00 Ry     beta= 0.05
     Davidson diagonalization with overlap
     ethr =  6.70E-09,  avg # of iterations =  2.0

     total cpu time spent up to now is       71.9 secs

     total energy              =    -296.92638670 Ry
     estimated scf accuracy    <       0.00000609 Ry

     iteration # 18     ecut=    40.00 Ry     beta= 0.05
     Davidson diagonalization with overlap
     ethr =  5.74E-09,  avg # of iterations =  4.0

     total cpu time spent up to now is       75.2 secs

     total energy              =    -296.92638773 Ry
     estimated scf accuracy    <       0.00000116 Ry

     iteration # 19     ecut=    40.00 Ry     beta= 0.05
     Davidson diagonalization with overlap
     ethr =  1.09E-09,  avg # of iterations =  4.0

     total cpu time spent up to now is       79.5 secs

     total energy              =    -296.92638762 Ry
     estimated scf accuracy    <       0.00000127 Ry

     iteration # 20     ecut=    40.00 Ry     beta= 0.05
     Davidson diagonalization with overlap
     ethr =  1.09E-09,  avg # of iterations =  2.0

     total cpu time spent up to now is       84.6 secs

     total energy              =    -296.92638786 Ry
     estimated scf accuracy    <       0.00000115 Ry

     iteration # 21     ecut=    40.00 Ry     beta= 0.05
     Davidson diagonalization with overlap
     ethr =  1.09E-09,  avg # of iterations =  1.0

     total cpu time spent up to now is       87.6 secs

     total energy              =    -296.92638855 Ry
     estimated scf accuracy    <       0.00000113 Ry

     iteration # 22     ecut=    40.00 Ry     beta= 0.05
     Davidson diagonalization with overlap
     ethr =  1.06E-09,  avg # of iterations =  4.0

     total cpu time spent up to now is       91.7 secs

     total energy              =    -296.92638857 Ry
     estimated scf accuracy    <       0.00000181 Ry

     iteration # 23     ecut=    40.00 Ry     beta= 0.05
     Davidson diagonalization with overlap
     ethr =  1.06E-09,  avg # of iterations =  6.0

     total cpu time spent up to now is       98.1 secs

     total energy              =    -296.92638864 Ry
     estimated scf accuracy    <       0.00000655 Ry

     iteration # 24     ecut=    40.00 Ry     beta= 0.05
     Davidson diagonalization with overlap
     ethr =  1.06E-09,  avg # of iterations =  2.0

     total cpu time spent up to now is      101.6 secs

     total energy              =    -296.92638839 Ry
     estimated scf accuracy    <       0.00000353 Ry

     iteration # 25     ecut=    40.00 Ry     beta= 0.05
     Davidson diagonalization with overlap
     ethr =  1.06E-09,  avg # of iterations =  4.0

     total cpu time spent up to now is      104.9 secs

     total energy              =    -296.92638819 Ry
     estimated scf accuracy    <       0.00000215 Ry

     iteration # 26     ecut=    40.00 Ry     beta= 0.05
     Davidson diagonalization with overlap
     ethr =  1.06E-09,  avg # of iterations =  4.0

     total cpu time spent up to now is      108.2 secs

     total energy              =    -296.92638800 Ry
     estimated scf accuracy    <       0.00000107 Ry

     iteration # 27     ecut=    40.00 Ry     beta= 0.05
     Davidson diagonalization with overlap
     ethr =  1.01E-09,  avg # of iterations =  4.0

     total cpu time spent up to now is      111.8 secs

     End of self-consistent calculation

          k = 0.0000 0.0000 0.0000 (  6383 PWs)   bands (ev):

   -12.7683 -11.7350 -11.1804  -7.3288  -7.3127  -7.3073  -6.7773  -6.7668
    -6.7431  -6.5308  -6.4596  -6.4153  -5.7443  -5.7253  -5.7189  -5.6529
    -5.5475  -5.5293  -5.3876  -5.3721  -5.3607  -4.5724  -2.0525   0.2118
     0.6747   0.6784   0.6816   1.0209   1.1712   1.2105   1.2187   1.2234
     1.2453   1.2767   2.0084   2.0641   2.2347   2.5588   3.5872   3.6288
     3.6558   4.1364   4.1598   4.3917   4.3937   4.5220   4.5475   4.5705
     4.7579   5.2513   5.5149   5.5670   5.9044   8.8631   8.8948   8.9902
     9.3946   9.4617   9.5331   9.8096   9.8265   9.9841  12.1944  13.1535

     the Fermi energy is     7.3533 ev

!    total energy              =    -296.92638844 Ry
     estimated scf accuracy    <       0.00000027 Ry
     smearing contrib. (-TS)   =      -0.00000000 Ry
     internal energy E=F+TS    =    -296.92638844 Ry

     The total energy is F=E-TS. E is the sum of the following terms:
     one-electron contribution =     -94.28937299 Ry
     hartree contribution      =     103.12700839 Ry
     xc contribution           =    -106.64919776 Ry
     ewald contribution        =    -199.11482608 Ry

     convergence has been achieved in  27 iterations

     Forces acting on atoms (cartesian axes, Ry/au):

     atom    1 type  1   force =     0.00095038   -0.00123991    0.00015393
     atom    2 type  1   force =    -0.00123243    0.00033312    0.00031940
     atom    3 type  1   force =     0.01878532   -0.00030376    0.00052483
     atom    4 type  1   force =     0.00365745    0.00249775   -0.00068228
     atom    5 type  1   force =    -0.00133395   -0.00238293   -0.00028206
     atom    6 type  1   force =     0.01729587   -0.00011477   -0.00055400
     atom    7 type  1   force =    -0.00154908   -0.00148876    0.00031788
     atom    8 type  1   force =     0.00167652    0.00086854   -0.00004838
     atom    9 type  1   force =    -0.01783629   -0.00179894   -0.00035529
     atom   10 type  1   force =    -0.00089845    0.00378822   -0.00051513
     atom   11 type  1   force =    -0.00166874   -0.00166278   -0.00001875
     atom   12 type  1   force =    -0.01581502    0.00288657    0.00063723
     atom   13 type  1   force =    -0.00048356    0.00149591   -0.00020330
     atom   14 type  1   force =    -0.00048519   -0.00109418    0.00005603
     atom   15 type  1   force =     0.00078257    0.01676187   -0.00162933
     atom   16 type  1   force =     0.00108093    0.00088890    0.00104505
     atom   17 type  1   force =    -0.00134632   -0.00013330   -0.00020824
     atom   18 type  1   force =    -0.00105122    0.00177508    0.00035008
     atom   19 type  1   force =     0.00046157    0.00081345   -0.00011574
     atom   20 type  1   force =    -0.00006402    0.00062617   -0.00054632
     atom   21 type  1   force =    -0.00130483   -0.00396357    0.00072301
     atom   22 type  1   force =     0.00190416   -0.00266888    0.00047170
     atom   23 type  1   force =    -0.00014170   -0.00036343    0.00013330
     atom   24 type  1   force =     0.00232855   -0.01319248   -0.00104607
     atom   25 type  2   force =     0.00002244   -0.00029683    0.00018195
     atom   26 type  2   force =     0.00024048    0.00012546    0.00019235
     atom   27 type  2   force =    -0.00065699   -0.00047769    0.00023390
     atom   28 type  2   force =    -0.00017552    0.00040656    0.00039996
     atom   29 type  2   force =    -0.00148599   -0.00055826    0.00058351
     atom   30 type  2   force =    -0.00037046   -0.00055614    0.00035830
     atom   31 type  2   force =    -0.00068970    0.00168683   -0.00005594
     atom   32 type  2   force =     0.00027856   -0.00108875   -0.00029044
     atom   33 type  2   force =    -0.00024603   -0.00103532    0.00011825
     atom   34 type  2   force =    -0.00062931   -0.00053373   -0.00024939

     Total force =     0.004425     Total SCF correction =     0.001136
     SCF correction compared to forces is large: reduce conv_thr to get better values


     Computing stress (Cartesian axis) and pressure

          total   stress  (Ry/bohr**3)                   (kbar)     P=        5.14
   0.00001710  -0.00000056   0.00000106            2.52       -0.08        0.16
  -0.00000056   0.00001688   0.00000024           -0.08        2.48        0.04
   0.00000106   0.00000024   0.00007088            0.16        0.04       10.43


     BFGS Geometry Optimization
     Energy error            =      0.0E+00 Ry
     Gradient error          =      1.7E-03 Ry/Bohr
     Cell gradient error     =      1.0E+01 kbar

     number of scf cycles    =   1
     number of bfgs steps    =   0

     enthalpy           new  =    -296.9263884360 Ry

     new trust radius        =       0.0136493145 bohr
     new conv_thr            =       0.0000010000 Ry

     new unit-cell volume =   1486.70049 a.u.^3 (   220.30628 Ang^3 )
     density =      2.24873 g/cm^3

CELL_PARAMETERS (alat=  8.00000437)
   1.176024223   0.000001798   0.004736103
  -0.588068765   1.018495104   0.000858772
   0.008650543   0.007635404   2.424307971

ATOMIC_POSITIONS (crystal)
C                0.0000102472       -0.0000350481        0.1834994293    0   0   1
C                0.0000779299        0.0000616583        0.4079585880    0   0   1
C               -0.0000272722       -0.0000287774        0.8638273813    0   0   1
C                0.1665940673        0.3332414801        0.1812975269    0   0   1
C                0.3334505508        0.1667496190        0.4102609653    0   0   1
C                0.1669156979        0.3336085178        0.8642426833    0   0   1
C                0.5000201079       -0.0000126170        0.1837340007    0   0   1
C                0.5000637778       -0.0000348834        0.4076898920    0   0   1
C                0.4999527863       -0.0000336665        0.8645108296    0   0   1
C                0.6665818326        0.3331918228        0.1813805986    0   0   1
C                0.8334778172        0.1667001099        0.4107946712    0   0   1
C                0.6667650207        0.3335352295        0.8650786069    0   0   1
C               -0.0000569180        0.4998770700        0.1835151100    0   0   1
C                0.0000017859        0.4998821673        0.4082150357    0   0   1
C                0.0000871000        0.5001365471        0.8628431623    0   0   1
C                0.1666614478        0.8332596063        0.1810230423    0   0   1
C                0.3332968392        0.6665118914        0.4103595267    0   0   1
C                0.1664688055        0.8331282739        0.8704752967    0   0   1
C                0.4999611766        0.4999332752        0.1839381551    0   0   1
C                0.4999666266        0.4998744116        0.4080694134    0   0   1
C                0.5001743565        0.5002871419        0.8708527578    0   0   1
C                0.6666523236        0.8332959397        0.1810275030    0   0   1
C                0.8333299170        0.6666145256        0.4101639077    0   0   1
C                0.6667889820        0.8335166872        0.8634309204    0   0   1
H                0.8836060699        1.2619800566        0.6883438764
H                0.7838362724        1.0784801424        0.6878880726
H                0.3027256823        0.7206121407        0.6657338170
H                0.3995998104        0.6181559032        0.6641659386
H                0.7581975005        0.6272827403        0.6680744678
H                0.5266660514        0.5102582096        0.6437804754
H                0.3030312773        0.0769793412        0.6646777351
H                0.3997088928        0.2762600561        0.6651317537
H               -0.0425830241        0.7304191757        0.6590748526
H                0.1919491938        0.8439113508        0.6402425207



     Writing config-only to output data dir ../results/5h2_abs/5H2abs_C.save/ :
     XML data file
     NEW-OLD atomic charge density approx. for the potential

     Check: negative core charge=   -0.000002

     total cpu time spent up to now is      119.2 secs

     Self-consistent Calculation

     iteration #  1     ecut=    40.00 Ry     beta= 0.05
     Davidson diagonalization with overlap
     ethr =  1.00E-06,  avg # of iterations =  3.0

     Threshold (ethr) on eigenvalues was too large:
     Diagonalizing with lowered threshold

     Davidson diagonalization with overlap
     ethr =  4.44E-08,  avg # of iterations =  6.0

     total cpu time spent up to now is      127.6 secs

     total energy              =    -296.92657791 Ry
     estimated scf accuracy    <       0.00001706 Ry

     iteration #  2     ecut=    40.00 Ry     beta= 0.05
     Davidson diagonalization with overlap
     ethr =  1.61E-08,  avg # of iterations =  2.0

     total cpu time spent up to now is      130.9 secs

     total energy              =    -296.92657691 Ry
     estimated scf accuracy    <       0.00001469 Ry

     iteration #  3     ecut=    40.00 Ry     beta= 0.05
     Davidson diagonalization with overlap
     ethr =  1.39E-08,  avg # of iterations =  1.0

     total cpu time spent up to now is      134.5 secs

     total energy              =    -296.92657545 Ry
     estimated scf accuracy    <       0.00000819 Ry

     iteration #  4     ecut=    40.00 Ry     beta= 0.05
     Davidson diagonalization with overlap
     ethr =  7.73E-09,  avg # of iterations =  3.0

     total cpu time spent up to now is      139.3 secs

     End of self-consistent calculation

          k = 0.0000 0.0000 0.0000 (  6383 PWs)   bands (ev):

   -12.7773 -11.7563 -11.2027  -7.3442  -7.3286  -7.3228  -6.7955  -6.7851
    -6.7610  -6.5584  -6.4874  -6.4435  -5.7673  -5.7480  -5.7418  -5.6757
    -5.5716  -5.5534  -5.4105  -5.3955  -5.3841  -4.5921  -2.0650   0.1829
     0.6537   0.6578   0.6608   0.9992   1.1423   1.1836   1.1923   1.1968
     1.2165   1.2469   1.9851   2.0323   2.1993   2.5264   3.5684   3.6102
     3.6373   4.1102   4.1337   4.3630   4.3649   4.4925   4.5149   4.5384
     4.7311   5.2240   5.4860   5.5385   5.8676   8.8293   8.8614   8.9555
     9.3596   9.4266   9.4990   9.7714   9.7894   9.9442  12.1558  13.1160

     the Fermi energy is     7.3230 ev

!    total energy              =    -296.92657633 Ry
     estimated scf accuracy    <       0.00000075 Ry
     smearing contrib. (-TS)   =      -0.00000000 Ry
     internal energy E=F+TS    =    -296.92657633 Ry

     The total energy is F=E-TS. E is the sum of the following terms:
     one-electron contribution =     -95.05280782 Ry
     hartree contribution      =     103.38827814 Ry
     xc contribution           =    -106.61616883 Ry
     ewald contribution        =    -198.64587783 Ry

     convergence has been achieved in   4 iterations

     Forces acting on atoms (cartesian axes, Ry/au):

     atom    1 type  1   force =     0.00093097   -0.00122897    0.00031101
     atom    2 type  1   force =    -0.00122575    0.00034717    0.00011614
     atom    3 type  1   force =     0.01855607   -0.00021554    0.00034106
     atom    4 type  1   force =     0.00355281    0.00243131    0.00002665
     atom    5 type  1   force =    -0.00132382   -0.00242575   -0.00074726
     atom    6 type  1   force =     0.01708289   -0.00018967   -0.00051088
     atom    7 type  1   force =    -0.00147806   -0.00146551    0.00042259
     atom    8 type  1   force =     0.00161468    0.00087825   -0.00017004
     atom    9 type  1   force =    -0.01762471   -0.00169318   -0.00028371
     atom   10 type  1   force =    -0.00083655    0.00373171    0.00015075
     atom   11 type  1   force =    -0.00163629   -0.00165319   -0.00054053
     atom   12 type  1   force =    -0.01565303    0.00275963    0.00031285
     atom   13 type  1   force =    -0.00046463    0.00146248   -0.00000297
     atom   14 type  1   force =    -0.00050030   -0.00109273   -0.00009163
     atom   15 type  1   force =     0.00080700    0.01651482   -0.00113845
     atom   16 type  1   force =     0.00104309    0.00088535    0.00144656
     atom   17 type  1   force =    -0.00137572   -0.00010823   -0.00073031
     atom   18 type  1   force =    -0.00104575    0.00174038   -0.00038662
     atom   19 type  1   force =     0.00048803    0.00081849   -0.00000548
     atom   20 type  1   force =    -0.00009129    0.00058603   -0.00055930
     atom   21 type  1   force =    -0.00129946   -0.00395469    0.00002454
     atom   22 type  1   force =     0.00189382   -0.00255778    0.00099489
     atom   23 type  1   force =    -0.00007316   -0.00033019   -0.00042098
     atom   24 type  1   force =     0.00229686   -0.01299220   -0.00073851
     atom   25 type  2   force =     0.00000954   -0.00061095    0.00031377
     atom   26 type  2   force =     0.00024278    0.00043591    0.00032907
     atom   27 type  2   force =    -0.00051977   -0.00051317    0.00014921
     atom   28 type  2   force =    -0.00030103    0.00050768    0.00038159
     atom   29 type  2   force =    -0.00110979   -0.00032531    0.00043873
     atom   30 type  2   force =    -0.00039803   -0.00032877    0.00063760
     atom   31 type  2   force =    -0.00064346    0.00078082   -0.00012195
     atom   32 type  2   force =     0.00026983   -0.00054347   -0.00023911
     atom   33 type  2   force =    -0.00047489   -0.00115655    0.00013630
     atom   34 type  2   force =    -0.00071286   -0.00049419    0.00015441

     Total force =     0.003969     Total SCF correction =     0.002028
     SCF correction compared to forces is large: reduce conv_thr to get better values


     Computing stress (Cartesian axis) and pressure

          total   stress  (Ry/bohr**3)                   (kbar)     P=        0.62
  -0.00001880   0.00000051   0.00000079           -2.77        0.07        0.12
   0.00000051  -0.00001804  -0.00000009            0.07       -2.65       -0.01
   0.00000079  -0.00000009   0.00004943            0.12       -0.01        7.27

     Energy error            =      1.9E-04 Ry
     Gradient error          =      1.4E-03 Ry/Bohr
     Cell gradient error     =      7.3E+00 kbar

     number of scf cycles    =   2
     number of bfgs steps    =   1

     enthalpy           old  =    -296.9263884360 Ry
     enthalpy           new  =    -296.9265763281 Ry

     CASE: enthalpy          _new < enthalpy          _old

     new trust radius        =       0.0204645338 bohr
     new conv_thr            =       0.0000000145 Ry

     new unit-cell volume =   1489.99784 a.u.^3 (   220.79490 Ang^3 )
     density =      2.24375 g/cm^3

CELL_PARAMETERS (alat=  8.00000437)
   1.175758694   0.000006873   0.004796804
  -0.587931469   1.018280241   0.000838704
   0.008747949   0.007638019   2.430741080

ATOMIC_POSITIONS (crystal)
C                0.0000099854       -0.0000352260        0.1835232424    0   0   1
C                0.0000777256        0.0000615196        0.4079771303    0   0   1
C               -0.0000277042       -0.0000290707        0.8638666121    0   0   1
C                0.1665943278        0.3332416566        0.1812739443    0   0   1
C                0.3334511442        0.1667500223        0.4102069843    0   0   1
C                0.1669162505        0.3336088931        0.8641924719    0   0   1
C                0.5000197079       -0.0000128887        0.1837703626    0   0   1
C                0.5000639064       -0.0000347960        0.4076781904    0   0   1
C                0.4999531125       -0.0000334449        0.8644811903    0   0   1
C                0.6665819456        0.3331918991        0.1813704134    0   0   1
C                0.8334781711        0.1667003506        0.4107624503    0   0   1
C                0.6667645611        0.3335349176        0.8651203331    0   0   1
C               -0.0000568334        0.4998771273        0.1835074463    0   0   1
C                0.0000018218        0.4998821918        0.4082117553    0   0   1
C                0.0000884921        0.5001374922        0.8627167256    0   0   1
C                0.1666600960        0.8332586881        0.1811459259    0   0   1
C                0.3332973917        0.6665122669        0.4103092542    0   0   1
C                0.1664689107        0.8331283458        0.8704656420    0   0   1
C                0.4999612272        0.4999333095        0.1839335714    0   0   1
C                0.4999672072        0.4998748059        0.4080166606    0   0   1
C                0.5001740466        0.5002869319        0.8708808263    0   0   1
C                0.6666514944        0.8332953763        0.1811029156    0   0   1
C                0.8333301324        0.6666146722        0.4101442620    0   0   1
C                0.6667898806        0.8335172973        0.8633493016    0   0   1
H                0.8835533397        1.2618692757        0.6883690240
H                0.7839190139        1.0785512944        0.6879141687
H                0.3025568775        0.7204991196        0.6657515053
H                0.3996029465        0.6182615307        0.6642028879
H                0.7579042135        0.6271884549        0.6681221579
H                0.5265425472        0.5101636042        0.6438311406
H                0.3030298349        0.0772352573        0.6646684712
H                0.3996773426        0.2760896369        0.6651072286
H               -0.0427841894        0.7301682658        0.6590876385
H                0.1917583865        0.8437961810        0.6402427501



     Writing config-only to output data dir ../results/5h2_abs/5H2abs_C.save/ :
     XML data file
     NEW-OLD atomic charge density approx. for the potential

     Check: negative core charge=   -0.000002

     total cpu time spent up to now is      148.4 secs

     Self-consistent Calculation

     iteration #  1     ecut=    40.00 Ry     beta= 0.05
     Davidson diagonalization with overlap
     ethr =  1.00E-06,  avg # of iterations =  5.0

     Threshold (ethr) on eigenvalues was too large:
     Diagonalizing with lowered threshold

     Davidson diagonalization with overlap
     ethr =  1.58E-08,  avg # of iterations =  5.0

     total cpu time spent up to now is      160.6 secs

     total energy              =    -296.92679516 Ry
     estimated scf accuracy    <       0.00002118 Ry

     iteration #  2     ecut=    40.00 Ry     beta= 0.05
     Davidson diagonalization with overlap
     ethr =  2.00E-08,  avg # of iterations =  1.0

     total cpu time spent up to now is      163.6 secs

     total energy              =    -296.92678824 Ry
     estimated scf accuracy    <       0.00001998 Ry

     iteration #  3     ecut=    40.00 Ry     beta= 0.05
     Davidson diagonalization with overlap
     ethr =  1.88E-08,  avg # of iterations =  2.0

     total cpu time spent up to now is      166.7 secs

     total energy              =    -296.92678909 Ry
     estimated scf accuracy    <       0.00000207 Ry

     iteration #  4     ecut=    40.00 Ry     beta= 0.05
     Davidson diagonalization with overlap
     ethr =  1.95E-09,  avg # of iterations =  4.0

     total cpu time spent up to now is      171.0 secs

     total energy              =    -296.92679000 Ry
     estimated scf accuracy    <       0.00000119 Ry

     iteration #  5     ecut=    40.00 Ry     beta= 0.05
     Davidson diagonalization with overlap
     ethr =  1.12E-09,  avg # of iterations =  1.0

     total cpu time spent up to now is      174.3 secs

     total energy              =    -296.92678997 Ry
     estimated scf accuracy    <       0.00000111 Ry

     iteration #  6     ecut=    40.00 Ry     beta= 0.05
     Davidson diagonalization with overlap
     ethr =  1.05E-09,  avg # of iterations =  1.0

     total cpu time spent up to now is      177.4 secs

     total energy              =    -296.92678987 Ry
     estimated scf accuracy    <       0.00000083 Ry

     iteration #  7     ecut=    40.00 Ry     beta= 0.05
     Davidson diagonalization with overlap
     ethr =  7.78E-10,  avg # of iterations =  2.0

     total cpu time spent up to now is      180.6 secs

     total energy              =    -296.92678992 Ry
     estimated scf accuracy    <       0.00000042 Ry

     iteration #  8     ecut=    40.00 Ry     beta= 0.05
     Davidson diagonalization with overlap
     ethr =  3.95E-10,  avg # of iterations =  1.0

     total cpu time spent up to now is      184.0 secs

     total energy              =    -296.92678983 Ry
     estimated scf accuracy    <       0.00000037 Ry

     iteration #  9     ecut=    40.00 Ry     beta= 0.05
     Davidson diagonalization with overlap
     ethr =  3.52E-10,  avg # of iterations =  2.0

     total cpu time spent up to now is      187.2 secs

     total energy              =    -296.92678985 Ry
     estimated scf accuracy    <       0.00000020 Ry

     iteration # 10     ecut=    40.00 Ry     beta= 0.05
     Davidson diagonalization with overlap
     ethr =  1.92E-10,  avg # of iterations =  1.0

     total cpu time spent up to now is      190.2 secs

     total energy              =    -296.92678987 Ry
     estimated scf accuracy    <       0.00000014 Ry

     iteration # 11     ecut=    40.00 Ry     beta= 0.05
     Davidson diagonalization with overlap
     ethr =  1.29E-10,  avg # of iterations =  1.0

     total cpu time spent up to now is      193.1 secs

     total energy              =    -296.92678979 Ry
     estimated scf accuracy    <       0.00000015 Ry

     iteration # 12     ecut=    40.00 Ry     beta= 0.05
     Davidson diagonalization with overlap
     ethr =  1.29E-10,  avg # of iterations =  2.0

     total cpu time spent up to now is      196.2 secs

     total energy              =    -296.92678983 Ry
     estimated scf accuracy    <       0.00000010 Ry

     iteration # 13     ecut=    40.00 Ry     beta= 0.05
     Davidson diagonalization with overlap
     ethr =  9.29E-11,  avg # of iterations =  1.0

     total cpu time spent up to now is      199.4 secs

     total energy              =    -296.92678983 Ry
     estimated scf accuracy    <       0.00000007 Ry

     iteration # 14     ecut=    40.00 Ry     beta= 0.05
     Davidson diagonalization with overlap
     ethr =  6.71E-11,  avg # of iterations =  1.0

     total cpu time spent up to now is      202.4 secs

     total energy              =    -296.92678975 Ry
     estimated scf accuracy    <       0.00000005 Ry

     iteration # 15     ecut=    40.00 Ry     beta= 0.05
     Davidson diagonalization with overlap
     ethr =  4.85E-11,  avg # of iterations =  4.0

     total cpu time spent up to now is      205.6 secs

     End of self-consistent calculation

          k = 0.0000 0.0000 0.0000 (  6383 PWs)   bands (ev):

   -12.7938 -11.7878 -11.2381  -7.3595  -7.3440  -7.3380  -6.8160  -6.8052
    -6.7813  -6.5880  -6.5177  -6.4733  -5.7973  -5.7778  -5.7720  -5.7053
    -5.6030  -5.5849  -5.4421  -5.4277  -5.4164  -4.6140  -2.0835   0.1462
     0.6339   0.6378   0.6409   0.9868   1.1122   1.1550   1.1638   1.1682
     1.1867   1.2161   1.9694   2.0049   2.1489   2.4901   3.5534   3.5953
     3.6226   4.0903   4.1137   4.3387   4.3406   4.4661   4.4873   4.5115
     4.7066   5.1976   5.4561   5.5095   5.8279   8.7978   8.8298   8.9224
     9.3285   9.3957   9.4698   9.7361   9.7553   9.9061  12.1226  13.0877

     the Fermi energy is     7.2976 ev

!    total energy              =    -296.92678981 Ry
     estimated scf accuracy    <          6.8E-09 Ry
     smearing contrib. (-TS)   =      -0.00000000 Ry
     internal energy E=F+TS    =    -296.92678981 Ry

     The total energy is F=E-TS. E is the sum of the following terms:
     one-electron contribution =     -96.47158840 Ry
     hartree contribution      =     104.00127518 Ry
     xc contribution           =    -106.61899991 Ry
     ewald contribution        =    -197.83747668 Ry

     convergence has been achieved in  15 iterations

     Forces acting on atoms (cartesian axes, Ry/au):

     atom    1 type  1   force =     0.00088873   -0.00119489    0.00026483
     atom    2 type  1   force =    -0.00122526    0.00034470    0.00004079
     atom    3 type  1   force =     0.01840814   -0.00019385    0.00005217
     atom    4 type  1   force =     0.00347168    0.00236820    0.00077307
     atom    5 type  1   force =    -0.00133312   -0.00244524   -0.00109075
     atom    6 type  1   force =     0.01702032   -0.00021367   -0.00043665
     atom    7 type  1   force =    -0.00138468   -0.00140337    0.00035820
     atom    8 type  1   force =     0.00157117    0.00086456   -0.00012187
     atom    9 type  1   force =    -0.01755822   -0.00162344   -0.00020763
     atom   10 type  1   force =    -0.00074801    0.00369763    0.00081639
     atom   11 type  1   force =    -0.00161279   -0.00161242   -0.00107643
     atom   12 type  1   force =    -0.01558791    0.00269758   -0.00012843
     atom   13 type  1   force =    -0.00046793    0.00143602    0.00001840
     atom   14 type  1   force =    -0.00050696   -0.00113125   -0.00009287
     atom   15 type  1   force =     0.00076039    0.01646511   -0.00053891
     atom   16 type  1   force =     0.00099661    0.00083086    0.00153129
     atom   17 type  1   force =    -0.00142834   -0.00007915   -0.00114828
     atom   18 type  1   force =    -0.00101413    0.00166304   -0.00111347
     atom   19 type  1   force =     0.00051430    0.00084530   -0.00001009
     atom   20 type  1   force =    -0.00010615    0.00052681   -0.00035892
     atom   21 type  1   force =    -0.00133732   -0.00391182   -0.00068931
     atom   22 type  1   force =     0.00191831   -0.00249811    0.00129585
     atom   23 type  1   force =    -0.00003015   -0.00028679   -0.00096275
     atom   24 type  1   force =     0.00232214   -0.01299367   -0.00044031
     atom   25 type  2   force =     0.00003508   -0.00004443    0.00050346
     atom   26 type  2   force =     0.00019067   -0.00014666    0.00051109
     atom   27 type  2   force =    -0.00067095   -0.00035086    0.00005983
     atom   28 type  2   force =    -0.00016709    0.00044393    0.00038160
     atom   29 type  2   force =    -0.00087810   -0.00018889    0.00032320
     atom   30 type  2   force =    -0.00042262   -0.00000891    0.00097121
     atom   31 type  2   force =    -0.00058470   -0.00064819   -0.00018688
     atom   32 type  2   force =     0.00024526    0.00032009   -0.00012782
     atom   33 type  2   force =    -0.00044773   -0.00108306    0.00014760
     atom   34 type  2   force =    -0.00083064   -0.00044516    0.00068238

     Total force =     0.004469     Total SCF correction =     0.000084


     Computing stress (Cartesian axis) and pressure

          total   stress  (Ry/bohr**3)                   (kbar)     P=        2.10
   0.00000259   0.00000027   0.00000065            0.38        0.04        0.10
   0.00000027   0.00000408  -0.00000044            0.04        0.60       -0.07
   0.00000065  -0.00000044   0.00003611            0.10       -0.07        5.31

     Energy error            =      2.1E-04 Ry
     Gradient error          =      1.5E-03 Ry/Bohr
     Cell gradient error     =      5.3E+00 kbar

     number of scf cycles    =   3
     number of bfgs steps    =   2

     enthalpy           old  =    -296.9265763281 Ry
     enthalpy           new  =    -296.9267898130 Ry

     CASE: enthalpy          _new < enthalpy          _old

     new trust radius        =       0.0306494789 bohr
     new conv_thr            =       0.0000000153 Ry

     new unit-cell volume =   1496.07557 a.u.^3 (   221.69553 Ang^3 )
     density =      2.23464 g/cm^3

CELL_PARAMETERS (alat=  8.00000437)
   1.175783159   0.000018497   0.004891535
  -0.587933377   1.018364503   0.000790599
   0.008904671   0.007606772   2.440390477

ATOMIC_POSITIONS (crystal)
C                0.0000095262       -0.0000355391        0.1835651706    0   0   1
C                0.0000774750        0.0000613494        0.4079998926    0   0   1
C               -0.0000281831       -0.0000293960        0.8639101288    0   0   1
C                0.1665940043        0.3332414325        0.1813040328    0   0   1
C                0.3334525814        0.1667510039        0.4100755251    0   0   1
C                0.1669171524        0.3336095075        0.8641102220    0   0   1
C                0.5000190326       -0.0000133490        0.1838319929    0   0   1
C                0.5000641210       -0.0000346496        0.4076585855    0   0   1
C                0.4999536076       -0.0000331078        0.8644360702    0   0   1
C                0.6665814393        0.3331915507        0.1814171408    0   0   1
C                0.8334793589        0.1667011629        0.4106536395    0   0   1
C                0.6667641922        0.3335346680        0.8651536927    0   0   1
C               -0.0000567483        0.4998771849        0.1834997562    0   0   1
C                0.0000019201        0.4998822591        0.4082027342    0   0   1
C                0.0000903337        0.5001387449        0.8625491010    0   0   1
C                0.1666575524        0.8332569531        0.1813782170    0   0   1
C                0.3332988318        0.6665132508        0.4101774827    0   0   1
C                0.1664698686        0.8331290022        0.8703776675    0   0   1
C                0.4999612947        0.4999333553        0.1839274457    0   0   1
C                0.4999680665        0.4998753911        0.4079383287    0   0   1
C                0.5001742538        0.5002870765        0.8708613726    0   0   1
C                0.6666496639        0.8332941265        0.1812702725    0   0   1
C                0.8333310888        0.6666153268        0.4100565597    0   0   1
C                0.6667911452        0.8335181578        0.8632341392    0   0   1
H                0.8835066122        1.2617598101        0.6884306059
H                0.7840122376        1.0785874394        0.6879772048
H                0.3022549349        0.7203270304        0.6657741913
H                0.3996207334        0.6184416673        0.6642678320
H                0.7574569315        0.6270582546        0.6681944999
H                0.5263535529        0.5100652814        0.6439519664
H                0.3028871339        0.0773845280        0.6646461266
H                0.3997087352        0.2759714293        0.6650731712
H               -0.0431415924        0.7297322793        0.6591114936
H                0.1914042701        0.8436032201        0.6402919006



     Writing config-only to output data dir ../results/5h2_abs/5H2abs_C.save/ :
     XML data file
     NEW-OLD atomic charge density approx. for the potential

     Check: negative core charge=   -0.000002

     total cpu time spent up to now is      214.2 secs

     Self-consistent Calculation

     iteration #  1     ecut=    40.00 Ry     beta= 0.05
     Davidson diagonalization with overlap
     ethr =  1.00E-06,  avg # of iterations =  7.0

     Threshold (ethr) on eigenvalues was too large:
     Diagonalizing with lowered threshold

     Davidson diagonalization with overlap
     ethr =  4.29E-08,  avg # of iterations =  6.0

     total cpu time spent up to now is      224.5 secs

     total energy              =    -296.92699062 Ry
     estimated scf accuracy    <       0.00004337 Ry

     iteration #  2     ecut=    40.00 Ry     beta= 0.05
     Davidson diagonalization with overlap
     ethr =  4.09E-08,  avg # of iterations =  1.0

     total cpu time spent up to now is      227.5 secs

     total energy              =    -296.92697985 Ry
     estimated scf accuracy    <       0.00004073 Ry

     iteration #  3     ecut=    40.00 Ry     beta= 0.05
     Davidson diagonalization with overlap
     ethr =  3.84E-08,  avg # of iterations =  1.0

     total cpu time spent up to now is      230.4 secs

     total energy              =    -296.92697999 Ry
     estimated scf accuracy    <       0.00000583 Ry

     iteration #  4     ecut=    40.00 Ry     beta= 0.05
     Davidson diagonalization with overlap
     ethr =  5.50E-09,  avg # of iterations =  4.0

     total cpu time spent up to now is      234.0 secs

     total energy              =    -296.92698148 Ry
     estimated scf accuracy    <       0.00000157 Ry

     iteration #  5     ecut=    40.00 Ry     beta= 0.05
     Davidson diagonalization with overlap
     ethr =  1.48E-09,  avg # of iterations =  2.0

     total cpu time spent up to now is      237.3 secs

     total energy              =    -296.92698155 Ry
     estimated scf accuracy    <       0.00000138 Ry

     iteration #  6     ecut=    40.00 Ry     beta= 0.05
     Davidson diagonalization with overlap
     ethr =  1.30E-09,  avg # of iterations =  1.0

     total cpu time spent up to now is      240.2 secs

     total energy              =    -296.92698122 Ry
     estimated scf accuracy    <       0.00000109 Ry

     iteration #  7     ecut=    40.00 Ry     beta= 0.05
     Davidson diagonalization with overlap
     ethr =  1.03E-09,  avg # of iterations =  2.0

     total cpu time spent up to now is      243.6 secs

     total energy              =    -296.92698143 Ry
     estimated scf accuracy    <       0.00000046 Ry

     iteration #  8     ecut=    40.00 Ry     beta= 0.05
     Davidson diagonalization with overlap
     ethr =  4.32E-10,  avg # of iterations =  2.0

     total cpu time spent up to now is      246.7 secs

     total energy              =    -296.92698139 Ry
     estimated scf accuracy    <       0.00000043 Ry

     iteration #  9     ecut=    40.00 Ry     beta= 0.05
     Davidson diagonalization with overlap
     ethr =  4.07E-10,  avg # of iterations =  1.0

     total cpu time spent up to now is      249.6 secs

     total energy              =    -296.92698134 Ry
     estimated scf accuracy    <       0.00000035 Ry

     iteration # 10     ecut=    40.00 Ry     beta= 0.05
     Davidson diagonalization with overlap
     ethr =  3.30E-10,  avg # of iterations =  2.0

     total cpu time spent up to now is      252.7 secs

     total energy              =    -296.92698136 Ry
     estimated scf accuracy    <       0.00000016 Ry

     iteration # 11     ecut=    40.00 Ry     beta= 0.05
     Davidson diagonalization with overlap
     ethr =  1.52E-10,  avg # of iterations =  1.0

     total cpu time spent up to now is      255.7 secs

     total energy              =    -296.92698133 Ry
     estimated scf accuracy    <       0.00000012 Ry

     iteration # 12     ecut=    40.00 Ry     beta= 0.05
     Davidson diagonalization with overlap
     ethr =  1.17E-10,  avg # of iterations =  2.0

     total cpu time spent up to now is      258.8 secs

     total energy              =    -296.92698133 Ry
     estimated scf accuracy    <       0.00000008 Ry

     iteration # 13     ecut=    40.00 Ry     beta= 0.05
     Davidson diagonalization with overlap
     ethr =  7.15E-11,  avg # of iterations =  2.0

     total cpu time spent up to now is      261.9 secs

     total energy              =    -296.92698134 Ry
     estimated scf accuracy    <       0.00000005 Ry

     iteration # 14     ecut=    40.00 Ry     beta= 0.05
     Davidson diagonalization with overlap
     ethr =  4.78E-11,  avg # of iterations =  1.0

     total cpu time spent up to now is      265.1 secs

     total energy              =    -296.92698127 Ry
     estimated scf accuracy    <       0.00000004 Ry

     iteration # 15     ecut=    40.00 Ry     beta= 0.05
     Davidson diagonalization with overlap
     ethr =  4.05E-11,  avg # of iterations =  2.0

     total cpu time spent up to now is      270.2 secs

     total energy              =    -296.92698122 Ry
     estimated scf accuracy    <       0.00000003 Ry

     iteration # 16     ecut=    40.00 Ry     beta= 0.05
     Davidson diagonalization with overlap
     ethr =  2.38E-11,  avg # of iterations =  2.0

     total cpu time spent up to now is      273.6 secs

     total energy              =    -296.92698128 Ry
     estimated scf accuracy    <       0.00000002 Ry

     iteration # 17     ecut=    40.00 Ry     beta= 0.05
     Davidson diagonalization with overlap
     ethr =  1.61E-11,  avg # of iterations =  1.0

     total cpu time spent up to now is      277.0 secs

     End of self-consistent calculation

          k = 0.0000 0.0000 0.0000 (  6383 PWs)   bands (ev):

   -12.8195 -11.8343 -11.2898  -7.3881  -7.3727  -7.3668  -6.8514  -6.8400
    -6.8161  -6.6369  -6.5667  -6.5226  -5.8441  -5.8242  -5.8190  -5.7511
    -5.6512  -5.6332  -5.4906  -5.4772  -5.4660  -4.6506  -2.1124   0.0889
     0.5974   0.6010   0.6049   0.9541   1.0625   1.1067   1.1157   1.1206
     1.1364   1.1650   1.9366   1.9618   2.0753   2.4337   3.5253   3.5671
     3.5946   4.0508   4.0740   4.2930   4.2951   4.4175   4.4383   4.4636
     4.6638   5.1516   5.4043   5.4588   5.7622   8.7428   8.7746   8.8653
     9.2732   9.3408   9.4177   9.6752   9.6958   9.8405  12.0599  13.0346

     the Fermi energy is     7.2513 ev

!    total energy              =    -296.92698122 Ry
     estimated scf accuracy    <       0.00000001 Ry
     smearing contrib. (-TS)   =      -0.00000000 Ry
     internal energy E=F+TS    =    -296.92698122 Ry

     The total energy is F=E-TS. E is the sum of the following terms:
     one-electron contribution =     -98.59661941 Ry
     hartree contribution      =     104.88223716 Ry
     xc contribution           =    -106.60093150 Ry
     ewald contribution        =    -196.61166746 Ry

     convergence has been achieved in  17 iterations

     Forces acting on atoms (cartesian axes, Ry/au):

     atom    1 type  1   force =     0.00082646   -0.00111239    0.00068218
     atom    2 type  1   force =    -0.00120418    0.00031128   -0.00052908
     atom    3 type  1   force =     0.01809839   -0.00005454   -0.00049764
     atom    4 type  1   force =     0.00333594    0.00221018    0.00146054
     atom    5 type  1   force =    -0.00134786   -0.00243596   -0.00124796
     atom    6 type  1   force =     0.01685744   -0.00034102   -0.00035081
     atom    7 type  1   force =    -0.00126822   -0.00128642    0.00071760
     atom    8 type  1   force =     0.00150231    0.00081881   -0.00052966
     atom    9 type  1   force =    -0.01739678   -0.00143563   -0.00027238
     atom   10 type  1   force =    -0.00059819    0.00356325    0.00140713
     atom   11 type  1   force =    -0.00158740   -0.00151383   -0.00140098
     atom   12 type  1   force =    -0.01541256    0.00249465   -0.00072977
     atom   13 type  1   force =    -0.00046844    0.00143369    0.00054624
     atom   14 type  1   force =    -0.00051163   -0.00121072   -0.00054677
     atom   15 type  1   force =     0.00071303    0.01629425    0.00007145
     atom   16 type  1   force =     0.00094518    0.00073050    0.00138590
     atom   17 type  1   force =    -0.00150080    0.00000405   -0.00138864
     atom   18 type  1   force =    -0.00095513    0.00156006   -0.00182549
     atom   19 type  1   force =     0.00053689    0.00090322    0.00044148
     atom   20 type  1   force =    -0.00012425    0.00040451   -0.00050097
     atom   21 type  1   force =    -0.00139408   -0.00381061   -0.00157276
     atom   22 type  1   force =     0.00194232   -0.00239272    0.00144918
     atom   23 type  1   force =     0.00002852   -0.00018544   -0.00134821
     atom   24 type  1   force =     0.00234371   -0.01292772   -0.00005287
     atom   25 type  2   force =     0.00003605   -0.00002097    0.00076189
     atom   26 type  2   force =     0.00015887   -0.00019054    0.00077286
     atom   27 type  2   force =    -0.00055558   -0.00031227   -0.00005249
     atom   28 type  2   force =    -0.00033394    0.00053589    0.00039908
     atom   29 type  2   force =    -0.00035495    0.00009433    0.00016356
     atom   30 type  2   force =    -0.00048650    0.00021513    0.00135256
     atom   31 type  2   force =    -0.00051760   -0.00144493   -0.00027477
     atom   32 type  2   force =     0.00023073    0.00048863   -0.00001543
     atom   33 type  2   force =    -0.00059794   -0.00108026    0.00019701
     atom   34 type  2   force =    -0.00093977   -0.00030644    0.00132803

     Total force =     0.006024     Total SCF correction =     0.000365


     Computing stress (Cartesian axis) and pressure

          total   stress  (Ry/bohr**3)                   (kbar)     P=        0.71
   0.00000358  -0.00000015   0.00000025            0.53       -0.02        0.04
  -0.00000015   0.00000085  -0.00000086           -0.02        0.13       -0.13
   0.00000025  -0.00000086   0.00000996            0.04       -0.13        1.46

     Energy error            =      1.9E-04 Ry
     Gradient error          =      1.8E-03 Ry/Bohr
     Cell gradient error     =      1.5E+00 kbar

     number of scf cycles    =   4
     number of bfgs steps    =   3

     enthalpy           old  =    -296.9267898130 Ry
     enthalpy           new  =    -296.9269812181 Ry

     CASE: enthalpy          _new < enthalpy          _old

     new trust radius        =       0.0244847067 bohr
     new conv_thr            =       0.0000000183 Ry

     new unit-cell volume =   1501.00340 a.u.^3 (   222.42576 Ang^3 )
     density =      2.22730 g/cm^3

CELL_PARAMETERS (alat=  8.00000437)
   1.175913945   0.000012960   0.004970041
  -0.588003250   1.018385474   0.000723330
   0.009036257   0.007516674   2.448113109

ATOMIC_POSITIONS (crystal)
C                0.0000086059       -0.0000361750        0.1836500843    0   0   1
C                0.0000777697        0.0000615579        0.4079721300    0   0   1
C               -0.0000281239       -0.0000293479        0.8639038163    0   0   1
C                0.1665927699        0.3332405704        0.1814190696    0   0   1
C                0.3334544621        0.1667523017        0.4099021585    0   0   1
C                0.1669180679        0.3336101350        0.8640263557    0   0   1
C                0.5000179324       -0.0000141076        0.1839333197    0   0   1
C                0.5000647531       -0.0000342120        0.4076001612    0   0   1
C                0.4999542054       -0.0000326976        0.8643812505    0   0   1
C                0.6665801112        0.3331906258        0.1815405927    0   0   1
C                0.8334811619        0.1667024104        0.4104870401    0   0   1
C                0.6667644679        0.3335348670        0.8651272347    0   0   1
C               -0.0000571782        0.4998768843        0.1835398451    0   0   1
C                0.0000024774        0.4998826462        0.4081510755    0   0   1
C                0.0000916618        0.5001396457        0.8624285854    0   0   1
C                0.1666547711        0.8332550413        0.1816336952    0   0   1
C                0.3333008151        0.6665146206        0.4099945194    0   0   1
C                0.1664718397        0.8331303707        0.8701949781    0   0   1
C                0.4999609311        0.4999331015        0.1839612986    0   0   1
C                0.4999691312        0.4998761222        0.4078406390    0   0   1
C                0.5001755364        0.5002879731        0.8707417607    0   0   1
C                0.6666473469        0.8332925291        0.1814836819    0   0   1
C                0.8333326932        0.6666164386        0.4099081087    0   0   1
C                0.6667921128        0.8335188158        0.8631461273    0   0   1
H                0.8834661713        1.2616593469        0.6885279273
H                0.7840953852        1.0785995176        0.6880764552
H                0.3019382761        0.7201469787        0.6657875048
H                0.3996228391        0.6186637961        0.6643428550
H                0.7570960531        0.6269809077        0.6682586511
H                0.5261591112        0.5100191828        0.6441312494
H                0.3026172474        0.0773059103        0.6646115350
H                0.3997825285        0.2759219203        0.6650469390
H               -0.0435752687        0.7292405118        0.6591433206
H                0.1909932867        0.8434163343        0.6404181101



     Writing config-only to output data dir ../results/5h2_abs/5H2abs_C.save/ :
     XML data file
     NEW-OLD atomic charge density approx. for the potential

     Check: negative core charge=   -0.000002

     total cpu time spent up to now is      285.3 secs

     Self-consistent Calculation

     iteration #  1     ecut=    40.00 Ry     beta= 0.05
     Davidson diagonalization with overlap
     ethr =  1.00E-06,  avg # of iterations =  7.0

     Threshold (ethr) on eigenvalues was too large:
     Diagonalizing with lowered threshold

     Davidson diagonalization with overlap
     ethr =  3.15E-08,  avg # of iterations =  6.0

     total cpu time spent up to now is      296.7 secs

     total energy              =    -296.92708923 Ry
     estimated scf accuracy    <       0.00004817 Ry

     iteration #  2     ecut=    40.00 Ry     beta= 0.05
     Davidson diagonalization with overlap
     ethr =  4.54E-08,  avg # of iterations =  1.0

     total cpu time spent up to now is      299.6 secs

     total energy              =    -296.92707225 Ry
     estimated scf accuracy    <       0.00004550 Ry

     iteration #  3     ecut=    40.00 Ry     beta= 0.05
     Davidson diagonalization with overlap
     ethr =  4.29E-08,  avg # of iterations =  2.0

     total cpu time spent up to now is      302.8 secs

     total energy              =    -296.92707688 Ry
     estimated scf accuracy    <       0.00000147 Ry

     iteration #  4     ecut=    40.00 Ry     beta= 0.05
     Davidson diagonalization with overlap
     ethr =  1.39E-09,  avg # of iterations =  5.0

     total cpu time spent up to now is      307.0 secs

     total energy              =    -296.92707734 Ry
     estimated scf accuracy    <       0.00000106 Ry

     iteration #  5     ecut=    40.00 Ry     beta= 0.05
     Davidson diagonalization with overlap
     ethr =  1.00E-09,  avg # of iterations =  1.0

     total cpu time spent up to now is      309.9 secs

     total energy              =    -296.92707730 Ry
     estimated scf accuracy    <       0.00000086 Ry

     iteration #  6     ecut=    40.00 Ry     beta= 0.05
     Davidson diagonalization with overlap
     ethr =  8.13E-10,  avg # of iterations =  1.0

     total cpu time spent up to now is      312.8 secs

     total energy              =    -296.92707735 Ry
     estimated scf accuracy    <       0.00000036 Ry

     iteration #  7     ecut=    40.00 Ry     beta= 0.05
     Davidson diagonalization with overlap
     ethr =  3.43E-10,  avg # of iterations =  2.0

     total cpu time spent up to now is      316.4 secs

     total energy              =    -296.92707732 Ry
     estimated scf accuracy    <       0.00000024 Ry

     iteration #  8     ecut=    40.00 Ry     beta= 0.05
     Davidson diagonalization with overlap
     ethr =  2.24E-10,  avg # of iterations =  1.0

     total cpu time spent up to now is      319.6 secs

     total energy              =    -296.92707721 Ry
     estimated scf accuracy    <       0.00000019 Ry

     iteration #  9     ecut=    40.00 Ry     beta= 0.05
     Davidson diagonalization with overlap
     ethr =  1.79E-10,  avg # of iterations =  4.0

     total cpu time spent up to now is      323.3 secs

     total energy              =    -296.92707724 Ry
     estimated scf accuracy    <       0.00000008 Ry

     iteration # 10     ecut=    40.00 Ry     beta= 0.05
     Davidson diagonalization with overlap
     ethr =  7.33E-11,  avg # of iterations =  4.0

     total cpu time spent up to now is      326.5 secs

     total energy              =    -296.92707730 Ry
     estimated scf accuracy    <       0.00000006 Ry

     iteration # 11     ecut=    40.00 Ry     beta= 0.05
     Davidson diagonalization with overlap
     ethr =  6.03E-11,  avg # of iterations =  1.0

     total cpu time spent up to now is      329.5 secs

     total energy              =    -296.92707723 Ry
     estimated scf accuracy    <       0.00000006 Ry

     iteration # 12     ecut=    40.00 Ry     beta= 0.05
     Davidson diagonalization with overlap
     ethr =  5.70E-11,  avg # of iterations =  2.0

     total cpu time spent up to now is      332.7 secs

     total energy              =    -296.92707724 Ry
     estimated scf accuracy    <       0.00000003 Ry

     iteration # 13     ecut=    40.00 Ry     beta= 0.05
     Davidson diagonalization with overlap
     ethr =  3.16E-11,  avg # of iterations =  1.0

     total cpu time spent up to now is      335.8 secs

     total energy              =    -296.92707724 Ry
     estimated scf accuracy    <       0.00000003 Ry

     iteration # 14     ecut=    40.00 Ry     beta= 0.05
     Davidson diagonalization with overlap
     ethr =  2.85E-11,  avg # of iterations =  1.0

     total cpu time spent up to now is      339.1 secs

     total energy              =    -296.92707723 Ry
     estimated scf accuracy    <       0.00000002 Ry

     iteration # 15     ecut=    40.00 Ry     beta= 0.05
     Davidson diagonalization with overlap
     ethr =  2.31E-11,  avg # of iterations =  4.0

     total cpu time spent up to now is      342.6 secs

     End of self-consistent calculation

          k = 0.0000 0.0000 0.0000 (  6383 PWs)   bands (ev):

   -12.8426 -11.8718 -11.3294  -7.4138  -7.3984  -7.3917  -6.8804  -6.8695
    -6.8457  -6.6762  -6.6071  -6.5625  -5.8809  -5.8606  -5.8557  -5.7884
    -5.6901  -5.6722  -5.5285  -5.5158  -5.5046  -4.6811  -2.1366   0.0425
     0.5672   0.5707   0.5734   0.9246   1.0220   1.0687   1.0780   1.0818
     1.0967   1.1233   1.9065   1.9291   2.0212   2.3898   3.5015   3.5428
     3.5713   4.0182   4.0409   4.2562   4.2582   4.3773   4.3988   4.4258
     4.6283   5.1152   5.3627   5.4167   5.7097   8.7001   8.7316   8.8218
     9.2299   9.2977   9.3771   9.6271   9.6489   9.7884  12.0086  12.9932

     the Fermi energy is     7.2145 ev

!    total energy              =    -296.92707728 Ry
     estimated scf accuracy    <       0.00000001 Ry
     smearing contrib. (-TS)   =      -0.00000000 Ry
     internal energy E=F+TS    =    -296.92707728 Ry

     The total energy is F=E-TS. E is the sum of the following terms:
     one-electron contribution =    -100.47460970 Ry
     hartree contribution      =     105.67408072 Ry
     xc contribution           =    -106.58730562 Ry
     ewald contribution        =    -195.53924268 Ry

     convergence has been achieved in  15 iterations

     Forces acting on atoms (cartesian axes, Ry/au):

     atom    1 type  1   force =     0.00080469   -0.00115137    0.00116854
     atom    2 type  1   force =    -0.00120897    0.00038487   -0.00114596
     atom    3 type  1   force =     0.01789677   -0.00005786   -0.00092062
     atom    4 type  1   force =     0.00321996    0.00218374    0.00154315
     atom    5 type  1   force =    -0.00134191   -0.00249984   -0.00100149
     atom    6 type  1   force =     0.01670122   -0.00031942   -0.00031963
     atom    7 type  1   force =    -0.00116606   -0.00129950    0.00114584
     atom    8 type  1   force =     0.00142829    0.00087889   -0.00103002
     atom    9 type  1   force =    -0.01724535   -0.00140676   -0.00044177
     atom   10 type  1   force =    -0.00051196    0.00355304    0.00143156
     atom   11 type  1   force =    -0.00154934   -0.00152064   -0.00124340
     atom   12 type  1   force =    -0.01532039    0.00244329   -0.00107767
     atom   13 type  1   force =    -0.00044747    0.00135176    0.00114553
     atom   14 type  1   force =    -0.00053394   -0.00118041   -0.00108179
     atom   15 type  1   force =     0.00071315    0.01602221    0.00025755
     atom   16 type  1   force =     0.00088835    0.00073064    0.00091011
     atom   17 type  1   force =    -0.00152111   -0.00003418   -0.00115922
     atom   18 type  1   force =    -0.00093634    0.00165545   -0.00178289
     atom   19 type  1   force =     0.00057557    0.00084597    0.00100536
     atom   20 type  1   force =    -0.00016040    0.00041063   -0.00080091
     atom   21 type  1   force =    -0.00140999   -0.00384574   -0.00176133
     atom   22 type  1   force =     0.00194179   -0.00223147    0.00116639
     atom   23 type  1   force =     0.00007426   -0.00021133   -0.00122716
     atom   24 type  1   force =     0.00231317   -0.01276595    0.00008059
     atom   25 type  2   force =     0.00003981    0.00006258    0.00090665
     atom   26 type  2   force =     0.00013585   -0.00028963    0.00092045
     atom   27 type  2   force =    -0.00052362   -0.00025324   -0.00013696
     atom   28 type  2   force =    -0.00042303    0.00055233    0.00039413
     atom   29 type  2   force =    -0.00017233    0.00016163    0.00006784
     atom   30 type  2   force =    -0.00057170    0.00019227    0.00147016
     atom   31 type  2   force =    -0.00047028   -0.00131519   -0.00033636
     atom   32 type  2   force =     0.00021726    0.00010522    0.00001760
     atom   33 type  2   force =    -0.00048389   -0.00093073    0.00021062
     atom   34 type  2   force =    -0.00095209   -0.00022129    0.00162514

     Total force =     0.006488     Total SCF correction =     0.000232


     Computing stress (Cartesian axis) and pressure

          total   stress  (Ry/bohr**3)                   (kbar)     P=       -0.41
  -0.00000246   0.00000059  -0.00000022           -0.36        0.09       -0.03
   0.00000059   0.00000087  -0.00000104            0.09        0.13       -0.15
  -0.00000022  -0.00000104  -0.00000671           -0.03       -0.15       -0.99

     Energy error            =      9.6E-05 Ry
     Gradient error          =      1.8E-03 Ry/Bohr
     Cell gradient error     =      9.9E-01 kbar

     number of scf cycles    =   5
     number of bfgs steps    =   4

     enthalpy           old  =    -296.9269812181 Ry
     enthalpy           new  =    -296.9270772774 Ry

     CASE: enthalpy          _new < enthalpy          _old

     new trust radius        =       0.0170559726 bohr
     new conv_thr            =       0.0000000100 Ry

     new unit-cell volume =   1504.41000 a.u.^3 (   222.93056 Ang^3 )
     density =      2.22226 g/cm^3

CELL_PARAMETERS (alat=  8.00000437)
   1.175899878   0.000036851   0.005018305
  -0.587975193   1.018456196   0.000645300
   0.009114273   0.007373903   2.453499132

ATOMIC_POSITIONS (crystal)
C                0.0000070237       -0.0000372850        0.1837970875    0   0   1
C                0.0000788678        0.0000623373        0.4078693135    0   0   1
C               -0.0000274124       -0.0000288371        0.8638366487    0   0   1
C                0.1665908703        0.3332392284        0.1815965769    0   0   1
C                0.3334564797        0.1667537080        0.4097153539    0   0   1
C                0.1669189924        0.3336107739        0.8639413129    0   0   1
C                0.5000162332       -0.0000152967        0.1840909218    0   0   1
C                0.5000660254       -0.0000333172        0.4074817763    0   0   1
C                0.4999550076       -0.0000321393        0.8643071342    0   0   1
C                0.6665782166        0.3331892905        0.1817173437    0   0   1
C                0.8334832817        0.1667038936        0.4102902617    0   0   1
C                0.6667654167        0.3335355450        0.8650379141    0   0   1
C               -0.0000583813        0.4998760335        0.1836522128    0   0   1
C                0.0000037285        0.4998835280        0.4080344842    0   0   1
C                0.0000925574        0.5001402465        0.8623479003    0   0   1
C                0.1666521416        0.8332532206        0.1818760362    0   0   1
C                0.3333030110        0.6665161533        0.4097910130    0   0   1
C                0.1664744396        0.8331321974        0.8699529532    0   0   1
C                0.4999598718        0.4999323528        0.1840601863    0   0   1
C                0.4999705635        0.4998771194        0.4077082545    0   0   1
C                0.5001776385        0.5002894590        0.8705452753    0   0   1
C                0.6666448907        0.8332908190        0.1817109063    0   0   1
C                0.8333346524        0.6666178119        0.4097260075    0   0   1
C                0.6667928249        0.8335192977        0.8630815764    0   0   1
H                0.8834446250        1.2615917027        0.6886604120
H                0.7841539607        1.0785642189        0.6882114068
H                0.3016095538        0.7199718241        0.6657888762
H                0.3996080527        0.6189160515        0.6644254300
H                0.7568031235        0.6269414268        0.6683123429
H                0.5259417852        0.5100016257        0.6443600111
H                0.3022732282        0.0770928169        0.6645637318
H                0.3998561753        0.2758618341        0.6650272443
H               -0.0440284561        0.7287315575        0.6591813418
H                0.1905404227        0.8432406409        0.6406169816



     Writing config-only to output data dir ../results/5h2_abs/5H2abs_C.save/ :
     XML data file
     NEW-OLD atomic charge density approx. for the potential

     Check: negative core charge=   -0.000002

     total cpu time spent up to now is      351.0 secs

     Self-consistent Calculation

     iteration #  1     ecut=    40.00 Ry     beta= 0.05
     Davidson diagonalization with overlap
     ethr =  1.00E-06,  avg # of iterations =  6.0

     Threshold (ethr) on eigenvalues was too large:
     Diagonalizing with lowered threshold

     Davidson diagonalization with overlap
     ethr =  4.33E-08,  avg # of iterations =  4.0

     total cpu time spent up to now is      360.7 secs

     total energy              =    -296.92716773 Ry
     estimated scf accuracy    <       0.00005473 Ry

     iteration #  2     ecut=    40.00 Ry     beta= 0.05
     Davidson diagonalization with overlap
     ethr =  5.16E-08,  avg # of iterations =  1.0

     total cpu time spent up to now is      363.7 secs

     total energy              =    -296.92714764 Ry
     estimated scf accuracy    <       0.00005220 Ry

     iteration #  3     ecut=    40.00 Ry     beta= 0.05
     Davidson diagonalization with overlap
     ethr =  4.92E-08,  avg # of iterations =  2.0

     total cpu time spent up to now is      366.9 secs

     total energy              =    -296.92715081 Ry
     estimated scf accuracy    <       0.00000304 Ry

     iteration #  4     ecut=    40.00 Ry     beta= 0.05
     Davidson diagonalization with overlap
     ethr =  2.86E-09,  avg # of iterations =  4.0

     total cpu time spent up to now is      371.4 secs

     total energy              =    -296.92715196 Ry
     estimated scf accuracy    <       0.00000060 Ry

     iteration #  5     ecut=    40.00 Ry     beta= 0.05
     Davidson diagonalization with overlap
     ethr =  5.66E-10,  avg # of iterations =  4.0

     total cpu time spent up to now is      374.8 secs

     total energy              =    -296.92715199 Ry
     estimated scf accuracy    <       0.00000057 Ry

     iteration #  6     ecut=    40.00 Ry     beta= 0.05
     Davidson diagonalization with overlap
     ethr =  5.38E-10,  avg # of iterations =  1.0

     total cpu time spent up to now is      377.9 secs

     total energy              =    -296.92715166 Ry
     estimated scf accuracy    <       0.00000054 Ry

     iteration #  7     ecut=    40.00 Ry     beta= 0.05
     Davidson diagonalization with overlap
     ethr =  5.12E-10,  avg # of iterations =  2.0

     total cpu time spent up to now is      381.1 secs

     total energy              =    -296.92715189 Ry
     estimated scf accuracy    <       0.00000013 Ry

     iteration #  8     ecut=    40.00 Ry     beta= 0.05
     Davidson diagonalization with overlap
     ethr =  1.24E-10,  avg # of iterations =  2.0

     total cpu time spent up to now is      384.4 secs

     total energy              =    -296.92715194 Ry
     estimated scf accuracy    <       0.00000011 Ry

     iteration #  9     ecut=    40.00 Ry     beta= 0.05
     Davidson diagonalization with overlap
     ethr =  1.08E-10,  avg # of iterations =  1.0

     total cpu time spent up to now is      387.4 secs

     total energy              =    -296.92715188 Ry
     estimated scf accuracy    <       0.00000009 Ry

     iteration # 10     ecut=    40.00 Ry     beta= 0.05
     Davidson diagonalization with overlap
     ethr =  8.15E-11,  avg # of iterations =  4.0

     total cpu time spent up to now is      390.8 secs

     total energy              =    -296.92715189 Ry
     estimated scf accuracy    <       0.00000004 Ry

     iteration # 11     ecut=    40.00 Ry     beta= 0.05
     Davidson diagonalization with overlap
     ethr =  3.75E-11,  avg # of iterations =  1.0

     total cpu time spent up to now is      393.8 secs

     total energy              =    -296.92715188 Ry
     estimated scf accuracy    <       0.00000003 Ry

     iteration # 12     ecut=    40.00 Ry     beta= 0.05
     Davidson diagonalization with overlap
     ethr =  3.15E-11,  avg # of iterations =  2.0

     total cpu time spent up to now is      397.8 secs

     total energy              =    -296.92715188 Ry
     estimated scf accuracy    <       0.00000001 Ry

     iteration # 13     ecut=    40.00 Ry     beta= 0.05
     Davidson diagonalization with overlap
     ethr =  1.21E-11,  avg # of iterations =  2.0

     total cpu time spent up to now is      401.0 secs

     End of self-consistent calculation

          k = 0.0000 0.0000 0.0000 (  6383 PWs)   bands (ev):

   -12.8626 -11.8981 -11.3555  -7.4347  -7.4192  -7.4131  -6.9030  -6.8917
    -6.8680  -6.7043  -6.6343  -6.5906  -5.9059  -5.8855  -5.8809  -5.8148
    -5.7174  -5.6993  -5.5540  -5.5420  -5.5308  -4.7033  -2.1558   0.0099
     0.5439   0.5469   0.5509   0.9024   0.9945   1.0416   1.0518   1.0564
     1.0684   1.0950   1.8836   1.9077   1.9888   2.3617   3.4830   3.5232
     3.5517   3.9943   4.0169   4.2303   4.2326   4.3495   4.3711   4.3992
     4.6042   5.0908   5.3331   5.3874   5.6739   8.6736   8.7048   8.7954
     9.2015   9.2692   9.3502   9.5947   9.6162   9.7530  11.9714  12.9677

     the Fermi energy is     7.1904 ev

!    total energy              =    -296.92715178 Ry
     estimated scf accuracy    <          9.2E-09 Ry
     smearing contrib. (-TS)   =      -0.00000000 Ry
     internal energy E=F+TS    =    -296.92715178 Ry

     The total energy is F=E-TS. E is the sum of the following terms:
     one-electron contribution =    -102.02077383 Ry
     hartree contribution      =     106.34476569 Ry
     xc contribution           =    -106.58052733 Ry
     ewald contribution        =    -194.67061630 Ry

     convergence has been achieved in  13 iterations

     Forces acting on atoms (cartesian axes, Ry/au):

     atom    1 type  1   force =     0.00076685   -0.00107913    0.00143230
     atom    2 type  1   force =    -0.00117389    0.00033259   -0.00150235
     atom    3 type  1   force =     0.01775821    0.00006919   -0.00111315
     atom    4 type  1   force =     0.00318699    0.00206459    0.00131459
     atom    5 type  1   force =    -0.00137080   -0.00241108   -0.00065592
[...]
        25        H      tau(  25) = (   0.3029766   1.2887543   1.7030038  )
        26        H      tau(  26) = (   0.2943057   1.1021814   1.7014391  )
        27        H      tau(  27) = (  -0.0651549   0.7365859   1.6409794  )
        28        H      tau(  28) = (   0.1104846   0.6357012   1.6396053  )
        29        H      tau(  29) = (   0.5249480   0.6421264   1.6499569  )
        30        H      tau(  30) = (   0.3219717   0.5227844   1.5927324  )
        31        H      tau(  31) = (   0.3139943   0.0817193   1.6371323  )
        32        H      tau(  32) = (   0.3141965   0.2839454   1.6394386  )
        33        H      tau(  33) = (  -0.4756730   0.7435987   1.6241230  )
        34        H      tau(  34) = (  -0.2690564   0.8616105   1.5821430  )

     number of k points=     1  Gaussian smearing, width (Ry)=  0.0100
                       cart. coord. in units 2pi/alat
        k(    1) = (   0.0000000   0.0000000   0.0000000), wk =   2.0000000

     Dense  grid:   203877 G-vectors     FFT dimensions: (  60,  60, 125)

     Smooth grid:    51535 G-vectors     FFT dimensions: (  40,  40,  80)

     Estimated max dynamical RAM per process >     254.00 MB

     Estimated total dynamical RAM >     508.01 MB

     Check: negative core charge=   -0.000002

     Initial potential from superposition of free atoms

     starting charge     105.9990, renormalised to     106.0000
     Starting wfcs are  106 randomized atomic wfcs

     total cpu time spent up to now is      865.1 secs

     Self-consistent Calculation

     iteration #  1     ecut=    40.00 Ry     beta= 0.05
     Davidson diagonalization with overlap
     c_bands:  2 eigenvalues not converged
     ethr =  1.00E-06,  avg # of iterations = 20.0

     total cpu time spent up to now is      889.1 secs

     total energy              =    -298.05531535 Ry
     estimated scf accuracy    <       2.67453252 Ry

     iteration #  2     ecut=    40.00 Ry     beta= 0.05
     Davidson diagonalization with overlap
     ethr =  2.52E-03,  avg # of iterations =  1.0

     total cpu time spent up to now is      894.8 secs

     total energy              =    -296.56271625 Ry
     estimated scf accuracy    <       2.49302329 Ry

     iteration #  3     ecut=    40.00 Ry     beta= 0.05
     Davidson diagonalization with overlap
     ethr =  2.35E-03,  avg # of iterations =  2.0

     total cpu time spent up to now is      900.8 secs

     total energy              =    -296.88012569 Ry
     estimated scf accuracy    <       0.06119534 Ry

     iteration #  4     ecut=    40.00 Ry     beta= 0.05
     Davidson diagonalization with overlap
     ethr =  5.77E-05,  avg # of iterations = 14.0

     total cpu time spent up to now is      909.1 secs

     total energy              =    -296.94416843 Ry
     estimated scf accuracy    <       0.03493228 Ry

     iteration #  5     ecut=    40.00 Ry     beta= 0.05
     Davidson diagonalization with overlap
     ethr =  3.30E-05,  avg # of iterations =  2.0

     total cpu time spent up to now is      914.5 secs

     total energy              =    -296.92140871 Ry
     estimated scf accuracy    <       0.05063247 Ry

     iteration #  6     ecut=    40.00 Ry     beta= 0.05
     Davidson diagonalization with overlap
     ethr =  3.30E-05,  avg # of iterations = 16.0

     total cpu time spent up to now is      918.9 secs

     total energy              =    -296.92884304 Ry
     estimated scf accuracy    <       0.00402248 Ry

     iteration #  7     ecut=    40.00 Ry     beta= 0.05
     Davidson diagonalization with overlap
     ethr =  3.79E-06,  avg # of iterations =  5.0

     total cpu time spent up to now is      925.4 secs

     total energy              =    -296.92951671 Ry
     estimated scf accuracy    <       0.00682508 Ry

     iteration #  8     ecut=    40.00 Ry     beta= 0.05
     Davidson diagonalization with overlap
     ethr =  3.79E-06,  avg # of iterations =  1.0

     total cpu time spent up to now is      930.0 secs

     total energy              =    -296.92744250 Ry
     estimated scf accuracy    <       0.00463415 Ry

     iteration #  9     ecut=    40.00 Ry     beta= 0.05
     Davidson diagonalization with overlap
     ethr =  3.79E-06,  avg # of iterations =  2.0

     total cpu time spent up to now is      934.3 secs

     total energy              =    -296.92786732 Ry
     estimated scf accuracy    <       0.00018030 Ry

     iteration # 10     ecut=    40.00 Ry     beta= 0.05
     Davidson diagonalization with overlap
     ethr =  1.70E-07,  avg # of iterations =  6.0

     total cpu time spent up to now is      940.3 secs

     total energy              =    -296.92809044 Ry
     estimated scf accuracy    <       0.00008029 Ry

     iteration # 11     ecut=    40.00 Ry     beta= 0.05
     Davidson diagonalization with overlap
     ethr =  7.57E-08,  avg # of iterations =  2.0

     total cpu time spent up to now is      944.8 secs

     total energy              =    -296.92804657 Ry
     estimated scf accuracy    <       0.00012210 Ry

     iteration # 12     ecut=    40.00 Ry     beta= 0.05
     Davidson diagonalization with overlap
     ethr =  7.57E-08,  avg # of iterations =  2.0

     total cpu time spent up to now is      948.2 secs

     total energy              =    -296.92804376 Ry
     estimated scf accuracy    <       0.00002665 Ry

     iteration # 13     ecut=    40.00 Ry     beta= 0.05
     Davidson diagonalization with overlap
     ethr =  2.51E-08,  avg # of iterations =  4.0

     total cpu time spent up to now is      953.0 secs

     total energy              =    -296.92805447 Ry
     estimated scf accuracy    <       0.00001490 Ry

     iteration # 14     ecut=    40.00 Ry     beta= 0.05
     Davidson diagonalization with overlap
     ethr =  1.41E-08,  avg # of iterations =  1.0

     total cpu time spent up to now is      957.3 secs

     total energy              =    -296.92805558 Ry
     estimated scf accuracy    <       0.00001476 Ry

     iteration # 15     ecut=    40.00 Ry     beta= 0.05
     Davidson diagonalization with overlap
     ethr =  1.39E-08,  avg # of iterations =  1.0

     total cpu time spent up to now is      962.1 secs

     total energy              =    -296.92805212 Ry
     estimated scf accuracy    <       0.00001631 Ry

     iteration # 16     ecut=    40.00 Ry     beta= 0.05
     Davidson diagonalization with overlap
     ethr =  1.39E-08,  avg # of iterations =  1.0

     total cpu time spent up to now is      965.9 secs

     total energy              =    -296.92805086 Ry
     estimated scf accuracy    <       0.00000789 Ry

     iteration # 17     ecut=    40.00 Ry     beta= 0.05
     Davidson diagonalization with overlap
     ethr =  7.44E-09,  avg # of iterations =  2.0

     total cpu time spent up to now is      972.0 secs

     total energy              =    -296.92805193 Ry
     estimated scf accuracy    <       0.00000291 Ry

     iteration # 18     ecut=    40.00 Ry     beta= 0.05
     Davidson diagonalization with overlap
     ethr =  2.75E-09,  avg # of iterations =  1.0

     total cpu time spent up to now is      976.7 secs

     total energy              =    -296.92805206 Ry
     estimated scf accuracy    <       0.00000275 Ry

     iteration # 19     ecut=    40.00 Ry     beta= 0.05
     Davidson diagonalization with overlap
     ethr =  2.59E-09,  avg # of iterations =  1.0

     total cpu time spent up to now is      980.0 secs

     total energy              =    -296.92805191 Ry
     estimated scf accuracy    <       0.00000178 Ry

     iteration # 20     ecut=    40.00 Ry     beta= 0.05
     Davidson diagonalization with overlap
     ethr =  1.68E-09,  avg # of iterations =  4.0

     total cpu time spent up to now is      984.3 secs

     total energy              =    -296.92805227 Ry
     estimated scf accuracy    <       0.00000051 Ry

     iteration # 21     ecut=    40.00 Ry     beta= 0.05
     Davidson diagonalization with overlap
     ethr =  4.81E-10,  avg # of iterations =  4.0

     total cpu time spent up to now is      988.9 secs

     total energy              =    -296.92805244 Ry
     estimated scf accuracy    <       0.00000062 Ry

     iteration # 22     ecut=    40.00 Ry     beta= 0.05
     Davidson diagonalization with overlap
     ethr =  4.81E-10,  avg # of iterations =  1.0

     total cpu time spent up to now is      991.8 secs

     total energy              =    -296.92805238 Ry
     estimated scf accuracy    <       0.00000070 Ry

     iteration # 23     ecut=    40.00 Ry     beta= 0.05
     Davidson diagonalization with overlap
     ethr =  4.81E-10,  avg # of iterations =  1.0

     total cpu time spent up to now is      995.1 secs

     total energy              =    -296.92805247 Ry
     estimated scf accuracy    <       0.00000036 Ry

     iteration # 24     ecut=    40.00 Ry     beta= 0.05
     Davidson diagonalization with overlap
     ethr =  3.44E-10,  avg # of iterations =  2.0

     total cpu time spent up to now is      998.3 secs

     total energy              =    -296.92805251 Ry
     estimated scf accuracy    <       0.00000029 Ry

     iteration # 25     ecut=    40.00 Ry     beta= 0.05
     Davidson diagonalization with overlap
     ethr =  2.74E-10,  avg # of iterations =  1.0

     total cpu time spent up to now is     1002.3 secs

     total energy              =    -296.92805257 Ry
     estimated scf accuracy    <       0.00000030 Ry

     iteration # 26     ecut=    40.00 Ry     beta= 0.05
     Davidson diagonalization with overlap
     ethr =  2.74E-10,  avg # of iterations =  1.0

     total cpu time spent up to now is     1007.7 secs

     total energy              =    -296.92805275 Ry
     estimated scf accuracy    <       0.00000027 Ry

     iteration # 27     ecut=    40.00 Ry     beta= 0.05
     Davidson diagonalization with overlap
     ethr =  2.51E-10,  avg # of iterations =  1.0

     total cpu time spent up to now is     1012.0 secs

     total energy              =    -296.92805272 Ry
     estimated scf accuracy    <       0.00000025 Ry

     iteration # 28     ecut=    40.00 Ry     beta= 0.05
     Davidson diagonalization with overlap
     ethr =  2.31E-10,  avg # of iterations =  2.0

     total cpu time spent up to now is     1015.3 secs

     total energy              =    -296.92805262 Ry
     estimated scf accuracy    <       0.00000019 Ry

     iteration # 29     ecut=    40.00 Ry     beta= 0.05
     Davidson diagonalization with overlap
     ethr =  1.83E-10,  avg # of iterations =  2.0

     total cpu time spent up to now is     1019.8 secs

     total energy              =    -296.92805268 Ry
     estimated scf accuracy    <       0.00000008 Ry

     iteration # 30     ecut=    40.00 Ry     beta= 0.05
     Davidson diagonalization with overlap
     ethr =  7.83E-11,  avg # of iterations =  2.0

     total cpu time spent up to now is     1023.5 secs

     total energy              =    -296.92805284 Ry
     estimated scf accuracy    <       0.00000007 Ry

     iteration # 31     ecut=    40.00 Ry     beta= 0.05
     Davidson diagonalization with overlap
     ethr =  6.55E-11,  avg # of iterations =  2.0

     total cpu time spent up to now is     1027.2 secs

     total energy              =    -296.92805279 Ry
     estimated scf accuracy    <       0.00000010 Ry

     iteration # 32     ecut=    40.00 Ry     beta= 0.05
     Davidson diagonalization with overlap
     ethr =  6.55E-11,  avg # of iterations =  2.0

     total cpu time spent up to now is     1031.6 secs

     total energy              =    -296.92805283 Ry
     estimated scf accuracy    <       0.00000004 Ry

     iteration # 33     ecut=    40.00 Ry     beta= 0.05
     Davidson diagonalization with overlap
     ethr =  3.55E-11,  avg # of iterations =  2.0

     total cpu time spent up to now is     1035.4 secs

     total energy              =    -296.92805287 Ry
     estimated scf accuracy    <       0.00000002 Ry

     iteration # 34     ecut=    40.00 Ry     beta= 0.05
     Davidson diagonalization with overlap
     ethr =  1.63E-11,  avg # of iterations =  2.0

     total cpu time spent up to now is     1039.2 secs

     total energy              =    -296.92805290 Ry
     estimated scf accuracy    <       0.00000001 Ry

     iteration # 35     ecut=    40.00 Ry     beta= 0.05
     Davidson diagonalization with overlap
     ethr =  1.29E-11,  avg # of iterations =  1.0

     total cpu time spent up to now is     1043.9 secs

     total energy              =    -296.92805292 Ry
     estimated scf accuracy    <       0.00000001 Ry

     iteration # 36     ecut=    40.00 Ry     beta= 0.05
     Davidson diagonalization with overlap
     ethr =  1.25E-11,  avg # of iterations =  1.0

     total cpu time spent up to now is     1047.1 secs

     total energy              =    -296.92805289 Ry
     estimated scf accuracy    <       0.00000001 Ry

     iteration # 37     ecut=    40.00 Ry     beta= 0.05
     Davidson diagonalization with overlap
     ethr =  1.10E-11,  avg # of iterations =  2.0

     total cpu time spent up to now is     1050.2 secs

     End of self-consistent calculation

          k = 0.0000 0.0000 0.0000 (  6473 PWs)   bands (ev):

   -12.9400 -11.9442 -11.3855  -7.5079  -7.4914  -7.4875  -6.9609  -6.9522
    -6.9305  -6.7535  -6.6808  -6.6354  -5.9437  -5.9247  -5.9200  -5.8647
    -5.7615  -5.7431  -5.5895  -5.5794  -5.5686  -4.7517  -2.2141  -0.0536
     0.4843   0.4868   0.4894   0.8502   0.9495   1.0003   1.0121   1.0149
     1.0246   1.0509   1.8514   1.8621   1.9821   2.3333   3.4185   3.4535
     3.4791   3.9401   3.9612   4.1848   4.1871   4.3057   4.3250   4.3535
     4.5620   5.0577   5.2832   5.3321   5.6197   8.6692   8.7000   8.7929
     9.1759   9.2361   9.3121   9.5358   9.5568   9.7001  11.9165  12.9360

     the Fermi energy is     7.1473 ev

!    total energy              =    -296.92805295 Ry
     estimated scf accuracy    <          5.8E-09 Ry
     smearing contrib. (-TS)   =      -0.00000000 Ry
     internal energy E=F+TS    =    -296.92805295 Ry

     The total energy is F=E-TS. E is the sum of the following terms:
     one-electron contribution =    -107.15526056 Ry
     hartree contribution      =     108.72818780 Ry
     xc contribution           =    -106.59289190 Ry
     ewald contribution        =    -191.90808829 Ry

     convergence has been achieved in  37 iterations

     Forces acting on atoms (cartesian axes, Ry/au):

     atom    1 type  1   force =     0.00079028   -0.00119780   -0.00028095
     atom    2 type  1   force =    -0.00102101    0.00036987    0.00030327
     atom    3 type  1   force =     0.01803339   -0.00008080    0.00014833
     atom    4 type  1   force =     0.00321586    0.00207996    0.00001247
     atom    5 type  1   force =    -0.00131356   -0.00221237   -0.00006993
     atom    6 type  1   force =     0.01675364   -0.00022903   -0.00011088
     atom    7 type  1   force =    -0.00122859   -0.00136520   -0.00034259
     atom    8 type  1   force =     0.00132430    0.00082195    0.00037504
     atom    9 type  1   force =    -0.01725375   -0.00122642   -0.00011310
     atom   10 type  1   force =    -0.00051185    0.00337121    0.00005451
     atom   11 type  1   force =    -0.00158675   -0.00137323   -0.00002987
     atom   12 type  1   force =    -0.01563321    0.00210026    0.00013963
     atom   13 type  1   force =    -0.00046951    0.00141790   -0.00014649
     atom   14 type  1   force =    -0.00045353   -0.00103195    0.00029544
     atom   15 type  1   force =     0.00082982    0.01573371   -0.00035437
     atom   16 type  1   force =     0.00087655    0.00052516    0.00012365
     atom   17 type  1   force =    -0.00132305   -0.00004431    0.00009236
     atom   18 type  1   force =    -0.00092288    0.00209781    0.00030624
     atom   19 type  1   force =     0.00043604    0.00070788   -0.00014132
     atom   20 type  1   force =    -0.00006921    0.00052541    0.00024772
     atom   21 type  1   force =    -0.00136312   -0.00379919    0.00036533
     atom   22 type  1   force =     0.00187153   -0.00225898    0.00004303
     atom   23 type  1   force =    -0.00021405   -0.00030561    0.00010596
     atom   24 type  1   force =     0.00208080   -0.01293663   -0.00041228
     atom   25 type  2   force =     0.00001350   -0.00012215    0.00017229
     atom   26 type  2   force =     0.00010956   -0.00007563    0.00022539
     atom   27 type  2   force =    -0.00023226   -0.00017744   -0.00008903
     atom   28 type  2   force =    -0.00034053   -0.00004956    0.00009693
     atom   29 type  2   force =    -0.00032358   -0.00025472   -0.00029046
     atom   30 type  2   force =    -0.00060256   -0.00021847   -0.00048681
     atom   31 type  2   force =    -0.00036994   -0.00029785   -0.00008486
     atom   32 type  2   force =    -0.00013086    0.00015178   -0.00007844
     atom   33 type  2   force =    -0.00058794   -0.00037286    0.00033037
     atom   34 type  2   force =    -0.00038352   -0.00027267   -0.00040660

     Total force =     0.001937     Total SCF correction =     0.000168


     Computing stress (Cartesian axis) and pressure

          total   stress  (Ry/bohr**3)                   (kbar)     P=        0.50
   0.00000207  -0.00000003  -0.00000156            0.30       -0.00       -0.23
  -0.00000003   0.00000112  -0.00000090           -0.00        0.16       -0.13
  -0.00000156  -0.00000090   0.00000704           -0.23       -0.13        1.03


     Writing all to output data dir ../results/5h2_abs/5H2abs_C.save/ :
     XML data file, charge density, pseudopotentials, collected wavefunctions

     init_run     :      7.71s CPU      7.07s WALL (       2 calls)
     electrons    :   1113.03s CPU    952.05s WALL (      12 calls)
     update_pot   :      2.41s CPU      1.77s WALL (      10 calls)
     forces       :     32.91s CPU     29.10s WALL (      12 calls)
     stress       :     85.20s CPU     61.20s WALL (      12 calls)

     Called by init_run:
     wfcinit      :      4.60s CPU      4.02s WALL (       2 calls)
     potinit      :      0.38s CPU      0.31s WALL (       2 calls)
     hinit0       :      0.92s CPU      0.83s WALL (       2 calls)

     Called by electrons:
     c_bands      :    644.55s CPU    533.91s WALL (     230 calls)
     sum_band     :    272.84s CPU    253.28s WALL (     230 calls)
     v_of_rho     :     13.52s CPU      8.34s WALL (     234 calls)
     newd         :    129.52s CPU    126.48s WALL (     234 calls)
     mix_rho      :     52.42s CPU     32.12s WALL (     230 calls)

     Called by c_bands:
     init_us_2    :      4.87s CPU      4.03s WALL (     462 calls)
     cegterg      :    633.22s CPU    526.83s WALL (     230 calls)

     Called by *egterg:
     cdiaghg      :      8.22s CPU      8.29s WALL (     846 calls)
     h_psi        :    404.32s CPU    299.02s WALL (     866 calls)
     s_psi        :     69.96s CPU     69.08s WALL (     866 calls)
     g_psi        :      1.92s CPU      1.17s WALL (     634 calls)

     Called by h_psi:
     h_psi:calbec :     67.22s CPU     66.04s WALL (     866 calls)
     vloc_psi     :    268.15s CPU    163.74s WALL (     866 calls)
     add_vuspsi   :     67.46s CPU     68.39s WALL (     866 calls)

     General routines
     calbec       :    101.04s CPU     99.67s WALL (    1156 calls)
     fft          :     31.79s CPU     20.99s WALL (    1494 calls)
     ffts         :     21.34s CPU     12.92s WALL (    4942 calls)
     fftw         :    238.26s CPU    150.80s WALL (   89340 calls)
     interpolate  :      6.59s CPU      4.27s WALL (     234 calls)

     Parallel routines

     PWSCF        :  20m47.77s CPU  17m37.40s WALL


   This run was terminated on:  18:36:55   7Aug2024            

=------------------------------------------------------------------------------=
   JOB DONE.
=------------------------------------------------------------------------------=
