
     Program PWSCF v.7.3.1 starts on  7Aug2024 at  0:24:23 

     This program is part of the open-source Quantum ESPRESSO suite
     for quantum simulation of materials; please cite
         "P. Giannozzi et al., J. Phys.:Condens. Matter 21 395502 (2009);
         "P. Giannozzi et al., J. Phys.:Condens. Matter 29 465901 (2017);
         "P. Giannozzi et al., J. Chem. Phys. 152 154105 (2020);
          URL http://www.quantum-espresso.org", 
     in publications or presentations arising from this work. More details at
     http://www.quantum-espresso.org/quote

     Parallel version (MPI & OpenMP), running on       4 processor cores
     Number of MPI processes:                 2
     Threads/MPI process:                     2

     MPI processes distributed on     1 nodes
     1789 MiB available memory on the printing compute node when the environment starts

     Reading input from hydrogen_absorption3.in

     Current dimensions of program PWSCF are:
     Max number of different atomic species (ntypx) = 10
     Max number of k-points (npk) =  40000
     Max angular momentum in pseudopotentials (lmaxx) =  4

     IMPORTANT: XC functional enforced from input :
     Exchange-correlation= LDA
                           (   1   1   0   0   0   0   0)
     Any further DFT definition will be discarded
     Please, verify this is what you really want


     R & G space division:  proc/nbgrp/npool/nimage =       2
     Subspace diagonalization in iterative solution of the eigenvalue problem:
     a serial algorithm will be used


     Parallelization info
     --------------------
     sticks:   dense  smooth     PW     G-vecs:    dense   smooth      PW
     Min         882     351     84                59496    14997    1857
     Max         883     352     85                59501    15000    1858
     Sum        1765     703    169               118997    29997    3715

     Using Slab Decomposition


     Title: 
     3H2_absorption_C                                                           


     bravais-lattice index     =            4
     lattice parameter (alat)  =       8.0000  a.u.
     unit-cell volume          =     880.6989 (a.u.)^3
     number of atoms/cell      =           30
     number of atomic types    =            2
     number of electrons       =       102.00
     number of Kohn-Sham states=           61
     kinetic-energy cutoff     =      40.0000  Ry
     charge density cutoff     =     400.0000  Ry
     scf convergence threshold =      1.0E-06
     mixing beta               =       0.0500
     number of iterations used =            8  local-TF  mixing
     energy convergence thresh.=      1.0E-04
     force convergence thresh. =      1.0E-03
     press convergence thresh. =      5.0E-01
     Exchange-correlation= LDA
                           (   1   1   0   0   0   0   0)
     nstep                     =           50


     celldm(1)=   8.000004  celldm(2)=   0.000000  celldm(3)=   1.986214
     celldm(4)=   0.000000  celldm(5)=   0.000000  celldm(6)=   0.000000

     crystal axes: (cart. coord. in units of alat)
               a(1) = (   1.000000   0.000000   0.000000 )  
               a(2) = (  -0.500000   0.866025   0.000000 )  
               a(3) = (   0.000000   0.000000   1.986214 )  

     reciprocal axes: (cart. coord. in units 2 pi/alat)
               b(1) = (  1.000000  0.577350 -0.000000 )  
               b(2) = (  0.000000  1.154701  0.000000 )  
               b(3) = (  0.000000 -0.000000  0.503470 )  


     PseudoPot. # 1 for C  read from file:
     /home/edoardocabiati/.burai/.pseudopot/C.pz-n-rrkjus_psl.0.1.UPF
     MD5 check sum: a3cecbabebb5b3a1aff122f23eb09bb0
     Pseudo is Ultrasoft + core correction, Zval =  4.0
     Generated using "atomic" code by A. Dal Corso  v.5.0.2 svn rev. 9415
     Using radial grid of 1073 points,  4 beta functions with: 
                l(1) =   0
                l(2) =   0
                l(3) =   1
                l(4) =   1
     Q(r) pseudized with 0 coefficients 


     PseudoPot. # 2 for H  read from file:
     /home/edoardocabiati/.burai/.pseudopot/H.pz-rrkjus_psl.0.1.UPF
     MD5 check sum: 1467ebfaa2880178e80d097b970df8c7
     Pseudo is Ultrasoft, Zval =  1.0
     Generated using "atomic" code by A. Dal Corso  v.5.0.2 svn rev. 9415
     Using radial grid of  929 points,  2 beta functions with: 
                l(1) =   0
                l(2) =   0
     Q(r) pseudized with 0 coefficients 


     atomic species   valence    mass     pseudopotential
     C                 4.00    12.01100     C ( 1.00)
     H                 1.00     1.00784     H ( 1.00)

     No symmetry found



   Cartesian axes

     site n.     atom                  positions (alat units)
         1        C      tau(   1) = (   0.0000000   0.0000000   0.3773807  )
         2        C      tau(   2) = (   0.0000000   0.0000000   0.8540722  )
         3        C      tau(   3) = (   0.0000000   0.0000000   1.7121169  )
         4        C      tau(   4) = (  -0.0000005   0.2886748   0.3773807  )
         5        C      tau(   5) = (   0.2500000   0.1443370   0.8540722  )
         6        C      tau(   6) = (  -0.0000005   0.2886748   1.7121169  )
         7        C      tau(   7) = (   0.5000000   0.0000000   0.3773807  )
         8        C      tau(   8) = (   0.5000000   0.0000000   0.8540722  )
         9        C      tau(   9) = (   0.5000000   0.0000000   1.7121169  )
        10        C      tau(  10) = (   0.4999995   0.2886748   0.3773807  )
        11        C      tau(  11) = (   0.7500000   0.1443370   0.8540722  )
        12        C      tau(  12) = (   0.4999995   0.2886748   1.7121169  )
        13        C      tau(  13) = (  -0.2500000   0.4330127   0.3773807  )
        14        C      tau(  14) = (  -0.2500000   0.4330127   0.8540722  )
        15        C      tau(  15) = (  -0.2500000   0.4330127   1.7121169  )
        16        C      tau(  16) = (  -0.2500005   0.7216875   0.3773807  )
        17        C      tau(  17) = (   0.0000000   0.5773497   0.8540722  )
        18        C      tau(  18) = (  -0.2500005   0.7216875   1.7121169  )
        19        C      tau(  19) = (   0.2500000   0.4330127   0.3773807  )
        20        C      tau(  20) = (   0.2500000   0.4330127   0.8540722  )
        21        C      tau(  21) = (   0.2500000   0.4330127   1.7121169  )
        22        C      tau(  22) = (   0.2499995   0.7216875   0.3773807  )
        23        C      tau(  23) = (   0.5000000   0.5773497   0.8540722  )
        24        C      tau(  24) = (   0.2499995   0.7216875   1.7121169  )
        25        H      tau(  25) = (   0.3345000   0.9794747   1.3506258  )
        26        H      tau(  26) = (   0.1787515   1.0292686   1.3307637  )
        27        H      tau(  27) = (  -0.0750000   0.5888973   1.3307637  )
        28        H      tau(  28) = (   0.0810000   0.5438640   1.3506258  )
        29        H      tau(  29) = (   0.4250000   0.6495191   1.2314530  )
        30        H      tau(  30) = (   0.5250000   0.5629165   1.2314530  )

     number of k points=     1  Gaussian smearing, width (Ry)=  0.0100
                       cart. coord. in units 2pi/alat
        k(    1) = (   0.0000000   0.0000000   0.0000000), wk =   2.0000000

     Dense  grid:   118997 G-vectors     FFT dimensions: (  54,  54, 108)

     Smooth grid:    29997 G-vectors     FFT dimensions: (  36,  36,  64)

     Estimated max dynamical RAM per process >     149.53 MB

     Estimated total dynamical RAM >     299.05 MB

     Check: negative core charge=   -0.000002

     Initial potential from superposition of free atoms

     starting charge     101.9991, renormalised to     102.0000
     Starting wfcs are  102 randomized atomic wfcs

     total cpu time spent up to now is        1.6 secs

     Self-consistent Calculation

     iteration #  1     ecut=    40.00 Ry     beta= 0.05
     Davidson diagonalization with overlap
     ethr =  1.00E-02,  avg # of iterations =  5.0

     total cpu time spent up to now is        5.3 secs

     total energy              =    -290.93614441 Ry
     estimated scf accuracy    <       6.11664175 Ry

     iteration #  2     ecut=    40.00 Ry     beta= 0.05
     Davidson diagonalization with overlap
     ethr =  6.00E-03,  avg # of iterations =  1.0

     total cpu time spent up to now is        9.1 secs

     total energy              =    -289.17257763 Ry
     estimated scf accuracy    <       6.08173774 Ry

     iteration #  3     ecut=    40.00 Ry     beta= 0.05
     Davidson diagonalization with overlap
     ethr =  5.96E-03,  avg # of iterations =  1.0

     total cpu time spent up to now is       11.2 secs

     total energy              =    -287.52554127 Ry
     estimated scf accuracy    <       2.90541791 Ry

     iteration #  4     ecut=    40.00 Ry     beta= 0.05
     Davidson diagonalization with overlap
     ethr =  2.85E-03,  avg # of iterations =  2.0

     total cpu time spent up to now is       13.3 secs

     total energy              =    -288.23252812 Ry
     estimated scf accuracy    <       0.14617818 Ry

     iteration #  5     ecut=    40.00 Ry     beta= 0.05
     Davidson diagonalization with overlap
     ethr =  1.43E-04,  avg # of iterations =  7.0

     total cpu time spent up to now is       16.0 secs

     total energy              =    -288.18922074 Ry
     estimated scf accuracy    <       0.57499070 Ry

     iteration #  6     ecut=    40.00 Ry     beta= 0.05
     Davidson diagonalization with overlap
     ethr =  1.43E-04,  avg # of iterations =  1.0

     total cpu time spent up to now is       18.5 secs

     total energy              =    -287.93167780 Ry
     estimated scf accuracy    <       0.41882982 Ry

     iteration #  7     ecut=    40.00 Ry     beta= 0.05
     Davidson diagonalization with overlap
     ethr =  1.43E-04,  avg # of iterations =  5.0

     total cpu time spent up to now is       21.0 secs

     total energy              =    -288.00721616 Ry
     estimated scf accuracy    <       0.01158462 Ry

     iteration #  8     ecut=    40.00 Ry     beta= 0.05
     Davidson diagonalization with overlap
     ethr =  1.14E-05,  avg # of iterations =  5.0

     total cpu time spent up to now is       23.3 secs

     total energy              =    -288.01044371 Ry
     estimated scf accuracy    <       0.01125518 Ry

     iteration #  9     ecut=    40.00 Ry     beta= 0.05
     Davidson diagonalization with overlap
     ethr =  1.10E-05,  avg # of iterations =  1.0

     total cpu time spent up to now is       24.8 secs

     total energy              =    -288.00850654 Ry
     estimated scf accuracy    <       0.00759153 Ry

     iteration # 10     ecut=    40.00 Ry     beta= 0.05
     Davidson diagonalization with overlap
     ethr =  7.44E-06,  avg # of iterations =  2.0

     total cpu time spent up to now is       26.6 secs

     total energy              =    -288.01032863 Ry
     estimated scf accuracy    <       0.00241746 Ry

     iteration # 11     ecut=    40.00 Ry     beta= 0.05
     Davidson diagonalization with overlap
     ethr =  2.37E-06,  avg # of iterations =  3.0

     total cpu time spent up to now is       28.9 secs

     total energy              =    -288.00863798 Ry
     estimated scf accuracy    <       0.00519148 Ry

     iteration # 12     ecut=    40.00 Ry     beta= 0.05
     Davidson diagonalization with overlap
     ethr =  2.37E-06,  avg # of iterations =  5.0

     total cpu time spent up to now is       31.1 secs

     total energy              =    -288.00945019 Ry
     estimated scf accuracy    <       0.00169776 Ry

     iteration # 13     ecut=    40.00 Ry     beta= 0.05
     Davidson diagonalization with overlap
     ethr =  1.66E-06,  avg # of iterations =  2.0

     total cpu time spent up to now is       32.8 secs

     total energy              =    -288.00952640 Ry
     estimated scf accuracy    <       0.00104180 Ry

     iteration # 14     ecut=    40.00 Ry     beta= 0.05
     Davidson diagonalization with overlap
     ethr =  1.02E-06,  avg # of iterations =  1.0

     total cpu time spent up to now is       34.4 secs

     total energy              =    -288.00944837 Ry
     estimated scf accuracy    <       0.00087081 Ry

     iteration # 15     ecut=    40.00 Ry     beta= 0.05
     Davidson diagonalization with overlap
     ethr =  8.54E-07,  avg # of iterations =  1.0

     total cpu time spent up to now is       35.9 secs

     total energy              =    -288.00897933 Ry
     estimated scf accuracy    <       0.00071151 Ry

     iteration # 16     ecut=    40.00 Ry     beta= 0.05
     Davidson diagonalization with overlap
     ethr =  6.98E-07,  avg # of iterations =  2.0

     total cpu time spent up to now is       37.8 secs

     total energy              =    -288.00908968 Ry
     estimated scf accuracy    <       0.00005044 Ry

     iteration # 17     ecut=    40.00 Ry     beta= 0.05
     Davidson diagonalization with overlap
     ethr =  4.94E-08,  avg # of iterations =  5.0

     total cpu time spent up to now is       39.9 secs

     total energy              =    -288.00911512 Ry
     estimated scf accuracy    <       0.00000963 Ry

     iteration # 18     ecut=    40.00 Ry     beta= 0.05
     Davidson diagonalization with overlap
     ethr =  9.44E-09,  avg # of iterations =  4.0

     total cpu time spent up to now is       42.0 secs

     total energy              =    -288.00911759 Ry
     estimated scf accuracy    <       0.00001050 Ry

     iteration # 19     ecut=    40.00 Ry     beta= 0.05
     Davidson diagonalization with overlap
     ethr =  9.44E-09,  avg # of iterations =  2.0

     total cpu time spent up to now is       43.7 secs

     total energy              =    -288.00911883 Ry
     estimated scf accuracy    <       0.00001231 Ry

     iteration # 20     ecut=    40.00 Ry     beta= 0.05
     Davidson diagonalization with overlap
     ethr =  9.44E-09,  avg # of iterations =  1.0

     total cpu time spent up to now is       45.2 secs

     total energy              =    -288.00912048 Ry
     estimated scf accuracy    <       0.00001268 Ry

     iteration # 21     ecut=    40.00 Ry     beta= 0.05
     Davidson diagonalization with overlap
     ethr =  9.44E-09,  avg # of iterations =  1.0

     total cpu time spent up to now is       46.9 secs

     total energy              =    -288.00912184 Ry
     estimated scf accuracy    <       0.00001533 Ry

     iteration # 22     ecut=    40.00 Ry     beta= 0.05
     Davidson diagonalization with overlap
     ethr =  9.44E-09,  avg # of iterations =  1.0

     total cpu time spent up to now is       48.5 secs

     total energy              =    -288.00912269 Ry
     estimated scf accuracy    <       0.00001579 Ry

     iteration # 23     ecut=    40.00 Ry     beta= 0.05
     Davidson diagonalization with overlap
     ethr =  9.44E-09,  avg # of iterations =  1.0

     total cpu time spent up to now is       50.2 secs

     total energy              =    -288.00912978 Ry
     estimated scf accuracy    <       0.00001819 Ry

     iteration # 24     ecut=    40.00 Ry     beta= 0.05
     Davidson diagonalization with overlap
     ethr =  9.44E-09,  avg # of iterations =  2.0

     total cpu time spent up to now is       52.0 secs

     total energy              =    -288.00913394 Ry
     estimated scf accuracy    <       0.00003267 Ry

     iteration # 25     ecut=    40.00 Ry     beta= 0.05
     Davidson diagonalization with overlap
     ethr =  9.44E-09,  avg # of iterations =  1.0

     total cpu time spent up to now is       54.1 secs

     total energy              =    -288.00911736 Ry
     estimated scf accuracy    <       0.00003951 Ry

     iteration # 26     ecut=    40.00 Ry     beta= 0.05
     Davidson diagonalization with overlap
     ethr =  9.44E-09,  avg # of iterations =  2.0

     total cpu time spent up to now is       56.0 secs

     total energy              =    -288.00911393 Ry
     estimated scf accuracy    <       0.00001048 Ry

     iteration # 27     ecut=    40.00 Ry     beta= 0.05
     Davidson diagonalization with overlap
     ethr =  9.44E-09,  avg # of iterations =  4.0

     total cpu time spent up to now is       58.0 secs

     End of self-consistent calculation

          k = 0.0000 0.0000 0.0000 (  3715 PWs)   bands (ev):

   -11.0981  -9.1196  -8.3129  -3.6305  -3.5704  -3.5570  -3.3560  -3.3488
    -3.3185  -2.4539  -2.2936  -2.1932  -1.7077  -1.4265  -1.4168  -1.1938
    -1.1531  -1.0612  -0.7863  -0.7495  -0.7341  -0.2674   0.7572   5.2476
     5.8381   5.8447   5.8655   6.6949   6.7008   6.7113   6.7894   6.7929
     6.8523   7.2344   7.2759   7.8316   8.6351   8.8295   9.1111   9.9432
    10.3859  10.4426  11.2471  11.2552  11.2559  11.3822  11.6312  11.6337
    11.9039  11.9730  11.9906  14.9750  15.7860  15.8419  15.9107  17.1518
    17.3010  17.7458  17.9536  18.0664  20.6974

     the Fermi energy is    13.4288 ev

!    total energy              =    -288.00911696 Ry
     estimated scf accuracy    <       0.00000061 Ry
     smearing contrib. (-TS)   =      -0.00000000 Ry
     internal energy E=F+TS    =    -288.00911696 Ry

     The total energy is F=E-TS. E is the sum of the following terms:
     one-electron contribution =     -43.29995822 Ry
     hartree contribution      =     100.76594004 Ry
     xc contribution           =    -114.58166352 Ry
     ewald contribution        =    -230.89343526 Ry

     convergence has been achieved in  27 iterations

     Forces acting on atoms (cartesian axes, Ry/au):

     atom    1 type  1   force =    -0.00139425   -0.01070505   -0.00747664
     atom    2 type  1   force =     0.00771582    0.03190077   -0.03828645
     atom    3 type  1   force =     0.00345261   -0.00558919   -0.00729957
     atom    4 type  1   force =    -0.01445845    0.01292703   -0.06286596
     atom    5 type  1   force =    -0.00755102    0.00348639    0.05714162
     atom    6 type  1   force =    -0.00008852   -0.00539821    0.01165044
     atom    7 type  1   force =     0.00273098   -0.00141161   -0.00901519
     atom    8 type  1   force =    -0.00256234   -0.00073879   -0.00058795
     atom    9 type  1   force =     0.02376892   -0.02412175   -0.00488717
     atom   10 type  1   force =    -0.00061198    0.00147352   -0.04989203
     atom   11 type  1   force =     0.00685210    0.00346341    0.03142214
     atom   12 type  1   force =     0.00121843    0.02447354   -0.01559414
     atom   13 type  1   force =     0.01392591   -0.00754410   -0.01284518
     atom   14 type  1   force =     0.00722713   -0.00614116   -0.01223065
     atom   15 type  1   force =    -0.01943866    0.00512988   -0.00648869
     atom   16 type  1   force =    -0.00380230   -0.00044350   -0.04938668
     atom   17 type  1   force =     0.00069850   -0.00407708    0.03236147
     atom   18 type  1   force =    -0.00655324   -0.00370363   -0.01157026
     atom   19 type  1   force =     0.00247402    0.00399097   -0.00909329
     atom   20 type  1   force =    -0.01669111   -0.01982647   -0.02836268
     atom   21 type  1   force =     0.01209105    0.00376984   -0.00877993
     atom   22 type  1   force =     0.00351946   -0.00150621   -0.03144891
     atom   23 type  1   force =     0.01038759   -0.01310140   -0.04184012
     atom   24 type  1   force =    -0.02447132    0.00413993    0.01595602
     atom   25 type  2   force =     0.12651848   -0.02447561    0.02227861
     atom   26 type  2   force =    -0.13200977    0.04180276   -0.00051288
     atom   27 type  2   force =    -0.13170675    0.04494171   -0.00293939
     atom   28 type  2   force =     0.12551018   -0.04177839    0.02369475
     atom   29 type  2   force =    -0.38450572    0.33565966    0.10810159
     atom   30 type  2   force =     0.39775425   -0.34659726    0.10879710

     Total force =     0.810415     Total SCF correction =     0.001629


     Computing stress (Cartesian axis) and pressure

          total   stress  (Ry/bohr**3)                   (kbar)     P=     3212.78
   0.03177995  -0.00038852  -0.00002013         4674.99      -57.15       -2.96
  -0.00038852   0.03152118   0.00001615          -57.15     4636.93        2.38
  -0.00002013   0.00001615   0.00221895           -2.96        2.38      326.42


     BFGS Geometry Optimization
     Energy error            =      0.0E+00 Ry
     Gradient error          =      4.0E-01 Ry/Bohr
     Cell gradient error     =      4.7E+03 kbar

     number of scf cycles    =   1
     number of bfgs steps    =   0

     enthalpy           new  =    -288.0091169583 Ry

     new trust radius        =       0.5000000000 bohr
     new conv_thr            =       0.0000010000 Ry

     new unit-cell volume =   1040.74918 a.u.^3 (   154.22312 Ang^3 )
     density =      3.16888 g/cm^3

CELL_PARAMETERS (alat=  8.00000437)
   1.084235227  -0.001029800  -0.000053346
  -0.543009446   0.938896151   0.000063747
  -0.000105956   0.000085029   1.997896397

ATOMIC_POSITIONS (crystal)
C               -0.0000000000        0.0000000000        0.1899501126    0   0   1
C               -0.0000000000        0.0000000000        0.4297445362    0   0   1
C               -0.0000000000        0.0000000000        0.8619512941    0   0   1
C                0.1666660000        0.3333330000        0.1895805312    0   0   1
C                0.3333330000        0.1666660000        0.4303812736    0   0   1
C                0.1666660000        0.3333330000        0.8620777368    0   0   1
C                0.5000000000       -0.0000000000        0.1899398468    0   0   1
C                0.5000000000       -0.0000000000        0.4299960770    0   0   1
C                0.5000000000       -0.0000000000        0.8619673907    0   0   1
C                0.6666660000        0.3333330000        0.1896670988    0   0   1
C                0.8333330000        0.1666660000        0.4302096621    0   0   1
C                0.6666660000        0.3333330000        0.8618959492    0   0   1
C                0.0000000000        0.5000000000        0.1899142914    0   0   1
C               -0.0000000000        0.5000000000        0.4299183918    0   0   1
C               -0.0000000000        0.5000000000        0.8619567047    0   0   1
C                0.1666660000        0.8333330000        0.1896704708    0   0   1
C                0.3333330000        0.6666660000        0.4302159297    0   0   1
C                0.1666660000        0.8333330000        0.8619227982    0   0   1
C                0.5000000000        0.5000000000        0.1899393257    0   0   1
C                0.5000000000        0.5000000000        0.4298107520    0   0   1
C                0.5000000000        0.5000000000        0.8619414165    0   0   1
C                0.6666660000        0.8333330000        0.1897901593    0   0   1
C                0.8333330000        0.6666660000        0.4297208247    0   0   1
C                0.6666660000        0.8333330000        0.8621064655    0   0   1
H                0.9014894578        1.1306254471        0.6801486525
H                0.7715703463        1.1891367121        0.6699965778
H                0.2635983800        0.6806877479        0.6699803871
H                0.3963437019        0.6273606608        0.6801581016
H                0.7974725096        0.7551366363        0.6207213005
H                0.8526193820        0.6446959844        0.6207259412



     Writing config-only to output data dir ../results/3h2_abs/3H2abs_C.save/ :
     XML data file
     NEW-OLD atomic charge density approx. for the potential

     Check: negative core charge=   -0.000002

     total cpu time spent up to now is       62.0 secs

     Self-consistent Calculation

     iteration #  1     ecut=    40.00 Ry     beta= 0.05
     Davidson diagonalization with overlap
     ethr =  1.00E-06,  avg # of iterations = 17.0

     total cpu time spent up to now is       69.2 secs

     total energy              =    -291.28059081 Ry
     estimated scf accuracy    <       0.24474643 Ry

     iteration #  2     ecut=    40.00 Ry     beta= 0.05
     Davidson diagonalization with overlap
     ethr =  2.40E-04,  avg # of iterations =  1.0

     total cpu time spent up to now is       70.8 secs

     total energy              =    -291.14238667 Ry
     estimated scf accuracy    <       0.22844386 Ry

     iteration #  3     ecut=    40.00 Ry     beta= 0.05
     Davidson diagonalization with overlap
     ethr =  2.24E-04,  avg # of iterations =  2.0

     total cpu time spent up to now is       72.7 secs

     total energy              =    -291.18012016 Ry
     estimated scf accuracy    <       0.00626261 Ry

     iteration #  4     ecut=    40.00 Ry     beta= 0.05
     Davidson diagonalization with overlap
     ethr =  6.14E-06,  avg # of iterations =  5.0

     total cpu time spent up to now is       75.6 secs

     total energy              =    -291.18582145 Ry
     estimated scf accuracy    <       0.00464847 Ry

     iteration #  5     ecut=    40.00 Ry     beta= 0.05
     Davidson diagonalization with overlap
     ethr =  4.56E-06,  avg # of iterations =  4.0

     total cpu time spent up to now is       78.4 secs

     total energy              =    -291.18347749 Ry
     estimated scf accuracy    <       0.00846953 Ry

     iteration #  6     ecut=    40.00 Ry     beta= 0.05
     Davidson diagonalization with overlap
     ethr =  4.56E-06,  avg # of iterations =  2.0

     total cpu time spent up to now is       80.1 secs

     total energy              =    -291.18402249 Ry
     estimated scf accuracy    <       0.00169962 Ry

     iteration #  7     ecut=    40.00 Ry     beta= 0.05
     Davidson diagonalization with overlap
     ethr =  1.67E-06,  avg # of iterations =  6.0

     total cpu time spent up to now is       81.8 secs

     total energy              =    -291.18406260 Ry
     estimated scf accuracy    <       0.00135798 Ry

     iteration #  8     ecut=    40.00 Ry     beta= 0.05
     Davidson diagonalization with overlap
     ethr =  1.33E-06,  avg # of iterations =  1.0

     total cpu time spent up to now is       83.3 secs

     total energy              =    -291.18419622 Ry
     estimated scf accuracy    <       0.00124385 Ry

     iteration #  9     ecut=    40.00 Ry     beta= 0.05
     Davidson diagonalization with overlap
     ethr =  1.22E-06,  avg # of iterations =  1.0

     total cpu time spent up to now is       84.8 secs

     total energy              =    -291.18391567 Ry
     estimated scf accuracy    <       0.00143061 Ry

     iteration # 10     ecut=    40.00 Ry     beta= 0.05
     Davidson diagonalization with overlap
     ethr =  1.22E-06,  avg # of iterations =  1.0

     total cpu time spent up to now is       86.4 secs

     total energy              =    -291.18393235 Ry
     estimated scf accuracy    <       0.00074907 Ry

     iteration # 11     ecut=    40.00 Ry     beta= 0.05
     Davidson diagonalization with overlap
     ethr =  7.34E-07,  avg # of iterations =  1.0

     total cpu time spent up to now is       87.9 secs

     total energy              =    -291.18371885 Ry
     estimated scf accuracy    <       0.00067085 Ry

     iteration # 12     ecut=    40.00 Ry     beta= 0.05
     Davidson diagonalization with overlap
     ethr =  6.58E-07,  avg # of iterations =  2.0

     total cpu time spent up to now is       89.5 secs

     total energy              =    -291.18369272 Ry
     estimated scf accuracy    <       0.00016285 Ry

     iteration # 13     ecut=    40.00 Ry     beta= 0.05
     Davidson diagonalization with overlap
     ethr =  1.60E-07,  avg # of iterations =  4.0

     total cpu time spent up to now is       91.5 secs

     total energy              =    -291.18374843 Ry
     estimated scf accuracy    <       0.00001087 Ry

     iteration # 14     ecut=    40.00 Ry     beta= 0.05
     Davidson diagonalization with overlap
     ethr =  1.07E-08,  avg # of iterations =  4.0

     total cpu time spent up to now is       93.5 secs

     total energy              =    -291.18375241 Ry
     estimated scf accuracy    <       0.00001151 Ry

     iteration # 15     ecut=    40.00 Ry     beta= 0.05
     Davidson diagonalization with overlap
     ethr =  1.07E-08,  avg # of iterations =  1.0

     total cpu time spent up to now is       95.0 secs

     total energy              =    -291.18375300 Ry
     estimated scf accuracy    <       0.00001222 Ry

     iteration # 16     ecut=    40.00 Ry     beta= 0.05
     Davidson diagonalization with overlap
     ethr =  1.07E-08,  avg # of iterations =  1.0

     total cpu time spent up to now is       96.6 secs

     total energy              =    -291.18375085 Ry
     estimated scf accuracy    <       0.00001055 Ry

     iteration # 17     ecut=    40.00 Ry     beta= 0.05
     Davidson diagonalization with overlap
     ethr =  1.03E-08,  avg # of iterations =  2.0

     total cpu time spent up to now is       98.2 secs

     total energy              =    -291.18375226 Ry
     estimated scf accuracy    <       0.00000150 Ry

     iteration # 18     ecut=    40.00 Ry     beta= 0.05
     Davidson diagonalization with overlap
     ethr =  1.47E-09,  avg # of iterations =  4.0

     total cpu time spent up to now is      100.3 secs

     total energy              =    -291.18375320 Ry
     estimated scf accuracy    <       0.00000107 Ry

     iteration # 19     ecut=    40.00 Ry     beta= 0.05
     Davidson diagonalization with overlap
     ethr =  1.05E-09,  avg # of iterations =  1.0

     total cpu time spent up to now is      101.9 secs

     total energy              =    -291.18375318 Ry
     estimated scf accuracy    <       0.00000108 Ry

     iteration # 20     ecut=    40.00 Ry     beta= 0.05
     Davidson diagonalization with overlap
     ethr =  1.05E-09,  avg # of iterations =  1.0

     total cpu time spent up to now is      103.4 secs

     End of self-consistent calculation

          k = 0.0000 0.0000 0.0000 (  3715 PWs)   bands (ev):

   -11.5352  -9.5240  -8.7466  -4.9392  -4.8893  -4.8776  -4.5881  -4.4997
    -4.4835  -3.1662  -3.1150  -3.0417  -2.9449  -2.9238  -2.8670  -2.7489
    -2.5125  -2.4916  -2.4317  -2.4271  -2.3672  -0.7919   0.2687   3.7746
     3.7973   3.8410   4.2241   4.7743   4.7918   4.8186   4.8670   4.8757
     4.9446   5.4732   6.1873   6.5831   6.8811   7.1077   7.1852   7.9363
     8.2315   8.2462   8.4350   8.5017   8.6929   8.7037   9.0413   9.0543
     9.3199   9.4350   9.9761  12.5505  13.4912  13.5483  13.6152  14.4940
    14.6881  14.9709  15.1108  15.4021  17.7836

     the Fermi energy is    11.1342 ev

!    total energy              =    -291.18375569 Ry
     estimated scf accuracy    <       0.00000073 Ry
     smearing contrib. (-TS)   =      -0.00000000 Ry
     internal energy E=F+TS    =    -291.18375569 Ry

     The total energy is F=E-TS. E is the sum of the following terms:
     one-electron contribution =     -32.80781663 Ry
     hartree contribution      =      86.05917383 Ry
     xc contribution           =    -109.26867119 Ry
     ewald contribution        =    -235.16644171 Ry

     convergence has been achieved in  20 iterations

     Forces acting on atoms (cartesian axes, Ry/au):

     atom    1 type  1   force =     0.00180202   -0.01294297   -0.01048063
     atom    2 type  1   force =     0.00584795    0.03392250   -0.02978197
     atom    3 type  1   force =     0.01035636   -0.00639573   -0.00664146
     atom    4 type  1   force =    -0.01589337    0.01317179   -0.07911992
     atom    5 type  1   force =    -0.00174602    0.00121206    0.06785956
     atom    6 type  1   force =    -0.00233353   -0.00532899    0.01769463
     atom    7 type  1   force =     0.00597992   -0.00259590   -0.01325176
     atom    8 type  1   force =    -0.00759011    0.00183383    0.00105971
     atom    9 type  1   force =     0.02519279   -0.02352192   -0.00091196
     atom   10 type  1   force =    -0.00451924    0.00277947   -0.06599904
     atom   11 type  1   force =     0.00780617    0.00284345    0.04686512
     atom   12 type  1   force =    -0.00474927    0.02527726   -0.01228081
     atom   13 type  1   force =     0.01512349   -0.00716141   -0.01282245
     atom   14 type  1   force =     0.00767245   -0.00696699   -0.00686810
     atom   15 type  1   force =    -0.01531417    0.00524466   -0.01191257
     atom   16 type  1   force =    -0.00745180    0.00071057   -0.06526769
     atom   17 type  1   force =     0.00315666   -0.00394493    0.04812550
     atom   18 type  1   force =    -0.01100112   -0.00005944   -0.00780346
     atom   19 type  1   force =     0.00648403    0.00338816   -0.01224969
     atom   20 type  1   force =    -0.02100830   -0.02024030   -0.02024475
     atom   21 type  1   force =     0.01652071    0.00051603   -0.00801480
     atom   22 type  1   force =     0.00063660   -0.00082195   -0.04452753
     atom   23 type  1   force =     0.01074639   -0.01209240   -0.01208265
     atom   24 type  1   force =    -0.02702093    0.00416229    0.01284080
     atom   25 type  2   force =     0.03792618   -0.00188203    0.00646387
     atom   26 type  2   force =    -0.04238410    0.01266969    0.00721373
     atom   27 type  2   force =    -0.04089614    0.01697221    0.00533308
     atom   28 type  2   force =     0.03804156   -0.01147511    0.00727729
     atom   29 type  2   force =    -0.13102010    0.11406977    0.10071066
     atom   30 type  2   force =     0.13963493   -0.12334365    0.09881728

     Total force =     0.347733     Total SCF correction =     0.002411


     Computing stress (Cartesian axis) and pressure

          total   stress  (Ry/bohr**3)                   (kbar)     P=     1184.96
   0.01102539   0.00001655  -0.00002626         1621.89        2.44       -3.86
   0.00001655   0.01111600   0.00001210            2.44     1635.22        1.78
  -0.00002626   0.00001210   0.00202428           -3.86        1.78      297.78

     Energy error            =      3.2E+00 Ry
     Gradient error          =      1.4E-01 Ry/Bohr
     Cell gradient error     =      1.6E+03 kbar

     number of scf cycles    =   2
     number of bfgs steps    =   1

     enthalpy           old  =    -288.0091169583 Ry
     enthalpy           new  =    -291.1837556935 Ry

     CASE: enthalpy          _new < enthalpy          _old

     new trust radius        =       0.4223028543 bohr
     new conv_thr            =       0.0000010000 Ry

     new unit-cell volume =   1219.86481 a.u.^3 (   180.76532 Ang^3 )
     density =      2.70359 g/cm^3

CELL_PARAMETERS (alat=  8.00000437)
   1.133270156   0.005526004  -0.000931058
  -0.561852295   0.984911241   0.000769018
  -0.001988027   0.000746453   2.128651119

ATOMIC_POSITIONS (crystal)
C                0.0000000608       -0.0000001050        0.1891335702    0   0   1
C                0.0000001729       -0.0000002985        0.4280157490    0   0   1
C                0.0000000385       -0.0000000666        0.8615227816    0   0   1
C                0.1666664592        0.3333322071        0.1836393023    0   0   1
C                0.3333326061        0.1666666801        0.4353650781    0   0   1
C                0.1666658973        0.3333331773        0.8634900766    0   0   1
C                0.5000000769       -0.0000001328        0.1888921917    0   0   1
C                0.4999999938        0.0000000106        0.4301252883    0   0   1
C                0.5000000053       -0.0000000091        0.8620434012    0   0   1
C                0.6666663831        0.3333323386        0.1846226718    0   0   1
C                0.8333327280        0.1666664697        0.4339306908    0   0   1
C                0.6666660713        0.3333328769        0.8611763521    0   0   1
C                0.0000000744        0.4999998715        0.1890436614    0   0   1
C                0.0000000399        0.4999999312        0.4296377771    0   0   1
C                0.0000000691        0.4999998806        0.8609588479    0   0   1
C                0.1666663788        0.8333323459        0.1846835910    0   0   1
C                0.3333327207        0.6666664823        0.4340337589    0   0   1
C                0.1666660453        0.8333329218        0.8615232245    0   0   1
C                0.5000000711        0.4999998772        0.1889972669    0   0   1
C                0.5000001175        0.4999997971        0.4287166999    0   0   1
C                0.5000000465        0.4999999197        0.8614232870    0   0   1
C                0.6666662584        0.8333325538        0.1863100660    0   0   1
C                0.8333330701        0.6666658789        0.4299326229    0   0   1
C                0.6666659255        0.8333331287        0.8628709963    0   0   1
H                0.9018346702        1.1320875104        0.6800387647
H                0.7713005013        1.1890328150        0.6707553181
H                0.2640543913        0.6814249517        0.6706302762
H                0.3962578369        0.6277668257        0.6800825295
H                0.7962799688        0.7573817969        0.6273102963
H                0.8540510786        0.6409690969        0.6270938856



     Writing config-only to output data dir ../results/3h2_abs/3H2abs_C.save/ :
     XML data file
     NEW-OLD atomic charge density approx. for the potential

     Check: negative core charge=   -0.000002

     total cpu time spent up to now is      107.2 secs

     Self-consistent Calculation

     iteration #  1     ecut=    40.00 Ry     beta= 0.05
     Davidson diagonalization with overlap
     ethr =  1.00E-06,  avg # of iterations = 14.0

     total cpu time spent up to now is      112.6 secs

     total energy              =    -292.06211845 Ry
     estimated scf accuracy    <       0.09689032 Ry

     iteration #  2     ecut=    40.00 Ry     beta= 0.05
     Davidson diagonalization with overlap
     ethr =  9.50E-05,  avg # of iterations =  1.0

     total cpu time spent up to now is      114.1 secs

     total energy              =    -292.01031314 Ry
     estimated scf accuracy    <       0.09039909 Ry

     iteration #  3     ecut=    40.00 Ry     beta= 0.05
     Davidson diagonalization with overlap
     ethr =  8.86E-05,  avg # of iterations =  2.0

     total cpu time spent up to now is      115.9 secs

     total energy              =    -292.02546960 Ry
     estimated scf accuracy    <       0.00219919 Ry

     iteration #  4     ecut=    40.00 Ry     beta= 0.05
     Davidson diagonalization with overlap
     ethr =  2.16E-06,  avg # of iterations =  7.0

     total cpu time spent up to now is      118.4 secs

     total energy              =    -292.02678417 Ry
     estimated scf accuracy    <       0.00157232 Ry

     iteration #  5     ecut=    40.00 Ry     beta= 0.05
     Davidson diagonalization with overlap
     ethr =  1.54E-06,  avg # of iterations =  2.0

     total cpu time spent up to now is      120.0 secs

     total energy              =    -292.02629125 Ry
     estimated scf accuracy    <       0.00160533 Ry

     iteration #  6     ecut=    40.00 Ry     beta= 0.05
     Davidson diagonalization with overlap
     ethr =  1.54E-06,  avg # of iterations =  2.0

     total cpu time spent up to now is      121.7 secs

     total energy              =    -292.02638280 Ry
     estimated scf accuracy    <       0.00023250 Ry

     iteration #  7     ecut=    40.00 Ry     beta= 0.05
     Davidson diagonalization with overlap
     ethr =  2.28E-07,  avg # of iterations =  2.0

     total cpu time spent up to now is      123.3 secs

     total energy              =    -292.02640993 Ry
     estimated scf accuracy    <       0.00014173 Ry

     iteration #  8     ecut=    40.00 Ry     beta= 0.05
     Davidson diagonalization with overlap
     ethr =  1.39E-07,  avg # of iterations =  1.0

     total cpu time spent up to now is      124.9 secs

     total energy              =    -292.02639429 Ry
     estimated scf accuracy    <       0.00012644 Ry

     iteration #  9     ecut=    40.00 Ry     beta= 0.05
     Davidson diagonalization with overlap
     ethr =  1.24E-07,  avg # of iterations =  2.0

     total cpu time spent up to now is      126.5 secs

     total energy              =    -292.02639611 Ry
     estimated scf accuracy    <       0.00006792 Ry

     iteration # 10     ecut=    40.00 Ry     beta= 0.05
     Davidson diagonalization with overlap
     ethr =  6.66E-08,  avg # of iterations =  1.0

     total cpu time spent up to now is      128.1 secs

     total energy              =    -292.02639253 Ry
     estimated scf accuracy    <       0.00004960 Ry

     iteration # 11     ecut=    40.00 Ry     beta= 0.05
     Davidson diagonalization with overlap
     ethr =  4.86E-08,  avg # of iterations =  1.0

     total cpu time spent up to now is      129.7 secs

     total energy              =    -292.02638415 Ry
     estimated scf accuracy    <       0.00002923 Ry

     iteration # 12     ecut=    40.00 Ry     beta= 0.05
     Davidson diagonalization with overlap
     ethr =  2.87E-08,  avg # of iterations =  2.0

     total cpu time spent up to now is      131.4 secs

     total energy              =    -292.02638972 Ry
     estimated scf accuracy    <       0.00000516 Ry

     iteration # 13     ecut=    40.00 Ry     beta= 0.05
     Davidson diagonalization with overlap
     ethr =  5.05E-09,  avg # of iterations =  4.0

     total cpu time spent up to now is      133.2 secs

     total energy              =    -292.02639163 Ry
     estimated scf accuracy    <       0.00000453 Ry

     iteration # 14     ecut=    40.00 Ry     beta= 0.05
     Davidson diagonalization with overlap
     ethr =  4.44E-09,  avg # of iterations =  2.0

     total cpu time spent up to now is      134.8 secs

     total energy              =    -292.02639169 Ry
     estimated scf accuracy    <       0.00000633 Ry

     iteration # 15     ecut=    40.00 Ry     beta= 0.05
     Davidson diagonalization with overlap
     ethr =  4.44E-09,  avg # of iterations =  1.0

     total cpu time spent up to now is      136.3 secs

     total energy              =    -292.02639198 Ry
     estimated scf accuracy    <       0.00000212 Ry

     iteration # 16     ecut=    40.00 Ry     beta= 0.05
     Davidson diagonalization with overlap
     ethr =  2.07E-09,  avg # of iterations =  2.0

     total cpu time spent up to now is      138.2 secs

     End of self-consistent calculation

          k = 0.0000 0.0000 0.0000 (  3715 PWs)   bands (ev):

   -11.8870 -10.5298  -9.8754  -6.0045  -5.9962  -5.8564  -5.4947  -5.4383
    -5.3534  -4.8925  -4.7816  -4.6716  -4.3349  -4.2217  -4.2106  -4.1630
    -4.1033  -4.0720  -3.9280  -3.8920  -3.8633  -1.5587  -0.7134   2.1774
     2.3767   2.3942   2.8365   2.9046   2.9311   3.0241   3.0554   3.1033
     3.1174   3.7397   4.3828   4.8679   5.1751   5.1887   5.5468   6.1259
     6.1633   6.2006   6.4587   6.5071   6.5279   6.6252   6.6301   6.6915
     7.5298   7.5510   7.9811  10.3782  11.0587  11.1931  11.2251  11.8373
    11.9588  12.3329  12.3574  12.7025  14.8686

     the Fermi energy is     8.8599 ev

!    total energy              =    -292.02639904 Ry
     estimated scf accuracy    <       0.00000032 Ry
     smearing contrib. (-TS)   =      -0.00000000 Ry
     internal energy E=F+TS    =    -292.02639904 Ry

     The total energy is F=E-TS. E is the sum of the following terms:
     one-electron contribution =     -49.54092357 Ry
     hartree contribution      =      86.44282296 Ry
     xc contribution           =    -105.96391023 Ry
     ewald contribution        =    -222.96438821 Ry

     convergence has been achieved in  16 iterations

     Forces acting on atoms (cartesian axes, Ry/au):

     atom    1 type  1   force =    -0.01064144    0.00109076   -0.00309855
     atom    2 type  1   force =     0.01686255    0.01536488   -0.01682288
     atom    3 type  1   force =    -0.00956537    0.00537933   -0.00519624
     atom    4 type  1   force =    -0.00094092    0.00368967   -0.01578804
     atom    5 type  1   force =    -0.01237047    0.00794535    0.00264722
     atom    6 type  1   force =     0.01402715   -0.01317723    0.00296223
     atom    7 type  1   force =    -0.00822222    0.00533394   -0.00282579
     atom    8 type  1   force =     0.00565409   -0.00519509   -0.00161618
     atom    9 type  1   force =     0.00508651   -0.00927586   -0.00416557
     atom   10 type  1   force =     0.01027379   -0.00479717   -0.00971575
     atom   11 type  1   force =    -0.00713922    0.00938214   -0.00528778
     atom   12 type  1   force =     0.01171061    0.00892335   -0.01230314
     atom   13 type  1   force =     0.00102656    0.00101953   -0.01180583
     atom   14 type  1   force =     0.01678052   -0.01203210   -0.00870397
     atom   15 type  1   force =    -0.02565325    0.01284300   -0.00737116
     atom   16 type  1   force =     0.00782744   -0.00847992   -0.00967591
     atom   17 type  1   force =    -0.01033715    0.00480734   -0.00441175
     atom   18 type  1   force =     0.00786156   -0.00900119   -0.00966780
     atom   19 type  1   force =    -0.01004396    0.00827815   -0.00507070
     atom   20 type  1   force =    -0.00114308   -0.02209787   -0.01294440
     atom   21 type  1   force =    -0.00499575    0.01062299   -0.00543111
     atom   22 type  1   force =     0.01084060   -0.00761684    0.00023249
     atom   23 type  1   force =    -0.00410299   -0.00170860   -0.02641681
     atom   24 type  1   force =    -0.00565835   -0.00559330    0.00095490
     atom   25 type  2   force =     0.00418581    0.00692627    0.00795984
     atom   26 type  2   force =    -0.00655740    0.00040303    0.01285012
     atom   27 type  2   force =    -0.00314773    0.00506492    0.01150732
     atom   28 type  2   force =     0.00183791   -0.00212743    0.00866065
     atom   29 type  2   force =    -0.03808797    0.03493302    0.06728985
     atom   30 type  2   force =     0.04463216   -0.04090507    0.06325477

     Total force =     0.133182     Total SCF correction =     0.001649


     Computing stress (Cartesian axis) and pressure

          total   stress  (Ry/bohr**3)                   (kbar)     P=      322.22
   0.00336831  -0.00048282  -0.00003445          495.50      -71.03       -5.07
  -0.00048282   0.00282883   0.00001859          -71.03      416.14        2.73
  -0.00003445   0.00001859   0.00037402           -5.07        2.73       55.02

     Energy error            =      8.4E-01 Ry
     Gradient error          =      6.7E-02 Ry/Bohr
     Cell gradient error     =      5.0E+02 kbar

     number of scf cycles    =   3
     number of bfgs steps    =   2

     enthalpy           old  =    -291.1837556935 Ry
     enthalpy           new  =    -292.0263990417 Ry

     CASE: enthalpy          _new < enthalpy          _old

     new trust radius        =       0.2511687033 bohr
     new conv_thr            =       0.0000006729 Ry

     new unit-cell volume =   1301.94824 a.u.^3 (   192.92882 Ang^3 )
     density =      2.53314 g/cm^3

CELL_PARAMETERS (alat=  8.00000437)
   1.169348835  -0.013133356  -0.002528588
  -0.596035949   1.006861687   0.002267807
  -0.005117549   0.002345439   2.174247210

ATOMIC_POSITIONS (crystal)
C                0.0000004750       -0.0000003504        0.1887317710    0   0   1
C                0.0000023873       -0.0000015719        0.4263966478    0   0   1
C                0.0000007193       -0.0000004543        0.8610021437    0   0   1
C                0.1666686016        0.3333309012        0.1814442838    0   0   1
C                0.3333321784        0.1666670173        0.4361488285    0   0   1
C                0.1666654918        0.3333334285        0.8639676202    0   0   1
C                0.5000004592       -0.0000003646        0.1884813088    0   0   1
C                0.5000002017       -0.0000001032        0.4300039775    0   0   1
C                0.5000005455       -0.0000003105        0.8617074627    0   0   1
C                0.6666677232        0.3333314975        0.1830791220    0   0   1
C                0.8333333535        0.1666661912        0.4339273965    0   0   1
C                0.6666676788        0.3333319662        0.8599912203    0   0   1
C                0.0000016183        0.4999989954        0.1878472289    0   0   1
C                0.0000011749        0.4999992908        0.4288601898    0   0   1
C                0.0000010380        0.4999993251        0.8600990071    0   0   1
C                0.1666677129        0.8333315092        0.1831514580    0   0   1
C                0.3333332312        0.6666662695        0.4341263336    0   0   1
C                0.1666673062        0.8333322102        0.8606212540    0   0   1
C                0.5000007427        0.4999994863        0.1883948452    0   0   1
C                0.5000018180        0.4999988231        0.4275114175    0   0   1
C                0.5000007594        0.4999995120        0.8608749466    0   0   1
C                0.6666662842        0.8333324740        0.1858812873    0   0   1
C                0.8333365039        0.6666639544        0.4278476262    0   0   1
C                0.6666657858        0.8333332251        0.8629749879    0   0   1
H                0.9014330120        1.1345658747        0.6805643381
H                0.7720155429        1.1881804199        0.6721560953
H                0.2661240742        0.6817794124        0.6719019403
H                0.3944306420        0.6282769397        0.6806690215
H                0.7960715312        0.7586294376        0.6341517936
H                0.8547790384        0.6382615229        0.6334843630



     Writing config-only to output data dir ../results/3h2_abs/3H2abs_C.save/ :
     XML data file
     NEW-OLD atomic charge density approx. for the potential

     Check: negative core charge=   -0.000004

     total cpu time spent up to now is      142.0 secs

     Self-consistent Calculation

     iteration #  1     ecut=    40.00 Ry     beta= 0.05
     Davidson diagonalization with overlap
     ethr =  1.00E-06,  avg # of iterations = 13.0

     total cpu time spent up to now is      146.9 secs

     total energy              =    -292.13465555 Ry
     estimated scf accuracy    <       0.02365619 Ry

     iteration #  2     ecut=    40.00 Ry     beta= 0.05
     Davidson diagonalization with overlap
     ethr =  2.32E-05,  avg # of iterations =  1.0

     total cpu time spent up to now is      148.5 secs

     total energy              =    -292.12184514 Ry
     estimated scf accuracy    <       0.02204664 Ry

     iteration #  3     ecut=    40.00 Ry     beta= 0.05
     Davidson diagonalization with overlap
     ethr =  2.16E-05,  avg # of iterations =  2.0

     total cpu time spent up to now is      150.3 secs

     total energy              =    -292.12527057 Ry
     estimated scf accuracy    <       0.00048671 Ry

     iteration #  4     ecut=    40.00 Ry     beta= 0.05
     Davidson diagonalization with overlap
     ethr =  4.77E-07,  avg # of iterations =  5.0

     total cpu time spent up to now is      152.5 secs

     total energy              =    -292.12550059 Ry
     estimated scf accuracy    <       0.00039816 Ry

     iteration #  5     ecut=    40.00 Ry     beta= 0.05
     Davidson diagonalization with overlap
     ethr =  3.90E-07,  avg # of iterations =  2.0

     total cpu time spent up to now is      154.1 secs

     total energy              =    -292.12539397 Ry
     estimated scf accuracy    <       0.00040811 Ry

     iteration #  6     ecut=    40.00 Ry     beta= 0.05
     Davidson diagonalization with overlap
     ethr =  3.90E-07,  avg # of iterations =  2.0

     total cpu time spent up to now is      155.7 secs

     total energy              =    -292.12540524 Ry
     estimated scf accuracy    <       0.00010752 Ry

     iteration #  7     ecut=    40.00 Ry     beta= 0.05
     Davidson diagonalization with overlap
     ethr =  1.05E-07,  avg # of iterations =  1.0

     total cpu time spent up to now is      157.3 secs

     total energy              =    -292.12539940 Ry
     estimated scf accuracy    <       0.00006619 Ry

     iteration #  8     ecut=    40.00 Ry     beta= 0.05
     Davidson diagonalization with overlap
     ethr =  6.49E-08,  avg # of iterations =  2.0

     total cpu time spent up to now is      158.9 secs

     total energy              =    -292.12539687 Ry
     estimated scf accuracy    <       0.00003290 Ry

     iteration #  9     ecut=    40.00 Ry     beta= 0.05
     Davidson diagonalization with overlap
     ethr =  3.23E-08,  avg # of iterations =  2.0

     total cpu time spent up to now is      160.6 secs

     total energy              =    -292.12540093 Ry
     estimated scf accuracy    <       0.00001468 Ry

     iteration # 10     ecut=    40.00 Ry     beta= 0.05
     Davidson diagonalization with overlap
     ethr =  1.44E-08,  avg # of iterations =  2.0

     total cpu time spent up to now is      162.3 secs

     total energy              =    -292.12540143 Ry
     estimated scf accuracy    <       0.00001293 Ry

     iteration # 11     ecut=    40.00 Ry     beta= 0.05
     Davidson diagonalization with overlap
     ethr =  1.27E-08,  avg # of iterations =  2.0

     total cpu time spent up to now is      163.9 secs

     total energy              =    -292.12539863 Ry
     estimated scf accuracy    <       0.00001281 Ry

     iteration # 12     ecut=    40.00 Ry     beta= 0.05
     Davidson diagonalization with overlap
     ethr =  1.26E-08,  avg # of iterations =  2.0

     total cpu time spent up to now is      165.5 secs

     total energy              =    -292.12539993 Ry
     estimated scf accuracy    <       0.00000339 Ry

     iteration # 13     ecut=    40.00 Ry     beta= 0.05
     Davidson diagonalization with overlap
     ethr =  3.33E-09,  avg # of iterations =  2.0

     total cpu time spent up to now is      167.2 secs

     total energy              =    -292.12539997 Ry
     estimated scf accuracy    <       0.00000248 Ry

     iteration # 14     ecut=    40.00 Ry     beta= 0.05
     Davidson diagonalization with overlap
     ethr =  2.43E-09,  avg # of iterations =  1.0

     total cpu time spent up to now is      168.7 secs

     total energy              =    -292.12539963 Ry
     estimated scf accuracy    <       0.00000157 Ry

     iteration # 15     ecut=    40.00 Ry     beta= 0.05
     Davidson diagonalization with overlap
     ethr =  1.54E-09,  avg # of iterations =  2.0

     total cpu time spent up to now is      170.3 secs

     End of self-consistent calculation

          k = 0.0000 0.0000 0.0000 (  3715 PWs)   bands (ev):

   -12.0315 -10.8459 -10.1978  -6.6530  -6.2916  -6.2712  -5.9853  -5.7823
    -5.7487  -5.6938  -5.3059  -5.2130  -4.7756  -4.7580  -4.6498  -4.5826
    -4.5551  -4.5370  -4.3519  -4.3459  -4.2842  -1.7593  -1.0582   1.6010
     1.6155   2.0286   2.1596   2.1964   2.2634   2.2804   2.5915   2.6250
     2.6738   3.2135   3.7147   4.1812   4.5403   4.6986   4.8186   5.3013
     5.3959   5.4260   5.6033   5.7080   5.7265   5.8231   5.8798   6.0038
     6.7080   6.9733   7.1695   9.5462  10.1986  10.3273  10.4140  10.7833
    10.9800  11.2857  11.4939  11.6580  13.7003

     the Fermi energy is     7.9476 ev

!    total energy              =    -292.12540087 Ry
     estimated scf accuracy    <       0.00000034 Ry
     smearing contrib. (-TS)   =      -0.00000000 Ry
     internal energy E=F+TS    =    -292.12540087 Ry

     The total energy is F=E-TS. E is the sum of the following terms:
     one-electron contribution =     -54.98328239 Ry
     hartree contribution      =      86.16933256 Ry
     xc contribution           =    -104.56597307 Ry
     ewald contribution        =    -218.74547797 Ry

     convergence has been achieved in  15 iterations

     Forces acting on atoms (cartesian axes, Ry/au):

     atom    1 type  1   force =     0.01747261   -0.01296023   -0.00479328
     atom    2 type  1   force =    -0.01010936    0.02645896   -0.00623097
     atom    3 type  1   force =     0.02599371   -0.01315929   -0.00375588
     atom    4 type  1   force =    -0.02948369    0.01959449   -0.00024875
     atom    5 type  1   force =     0.01589724   -0.00805258   -0.01211076
     atom    6 type  1   force =    -0.02031217    0.00687173   -0.00358641
     atom    7 type  1   force =     0.01941688   -0.01082609   -0.00481999
     atom    8 type  1   force =    -0.02160512    0.01113917    0.00044754
     atom    9 type  1   force =     0.03865462   -0.02801381   -0.00383742
     atom   10 type  1   force =    -0.01824813    0.01107297    0.00254120
     atom   11 type  1   force =     0.01922955   -0.00676843   -0.01518825
     atom   12 type  1   force =    -0.02494014    0.02707863   -0.01019550
     atom   13 type  1   force =     0.02818855   -0.01447418   -0.01308394
     atom   14 type  1   force =    -0.01407736    0.00610475   -0.00742439
     atom   15 type  1   force =     0.01233198   -0.00798737   -0.00468553
     atom   16 type  1   force =    -0.01947686    0.00798493    0.00249705
     atom   17 type  1   force =     0.01695269   -0.01078752   -0.01432810
     atom   18 type  1   force =    -0.02651085    0.01277510   -0.00794158
     atom   19 type  1   force =     0.01716836   -0.00843047   -0.00656162
     atom   20 type  1   force =    -0.02524892   -0.00468529   -0.00532522
     atom   21 type  1   force =     0.02872397   -0.01103249   -0.00384501
     atom   22 type  1   force =    -0.01938731    0.00929300    0.00603553
     atom   23 type  1   force =     0.02364436   -0.01707303   -0.01696056
     atom   24 type  1   force =    -0.03919203    0.01407972   -0.00349948
     atom   25 type  2   force =    -0.00887062    0.00959443    0.00624931
     atom   26 type  2   force =     0.00708283   -0.00473806    0.01239230
     atom   27 type  2   force =     0.00835448    0.00073924    0.01107175
     atom   28 type  2   force =    -0.00866881    0.00245809    0.00694732
     atom   29 type  2   force =     0.01000683   -0.00636780    0.05159218
     atom   30 type  2   force =    -0.00298731    0.00011144    0.04864844

     Total force =     0.086583     Total SCF correction =     0.001171


     Computing stress (Cartesian axis) and pressure

          total   stress  (Ry/bohr**3)                   (kbar)     P=       35.61
  -0.00019733   0.00101120   0.00001211          -29.03      148.75        1.78
   0.00101120   0.00096836  -0.00000705          148.75      142.45       -1.04
   0.00001211  -0.00000705  -0.00004479            1.78       -1.04       -6.59

     Energy error            =      9.9E-02 Ry
     Gradient error          =      5.2E-02 Ry/Bohr
     Cell gradient error     =      1.5E+02 kbar

     number of scf cycles    =   4
     number of bfgs steps    =   3

     enthalpy           old  =    -292.0263990417 Ry
     enthalpy           new  =    -292.1254008735 Ry

     CASE: enthalpy          _new < enthalpy          _old

     new trust radius        =       0.2038705467 bohr
     new conv_thr            =       0.0000005159 Ry

     new unit-cell volume =   1337.19022 a.u.^3 (   198.15115 Ang^3 )
     density =      2.46637 g/cm^3

CELL_PARAMETERS (alat=  8.00000437)
   1.169178429   0.008246096  -0.002856459
  -0.577446799   1.017297807   0.002553584
  -0.005775242   0.002662992   2.187065680

ATOMIC_POSITIONS (crystal)
C                0.0000016754       -0.0000011897        0.1882782410    0   0   1
C                0.0000046799       -0.0000030771        0.4253637723    0   0   1
C                0.0000018163       -0.0000011980        0.8605526830    0   0   1
C                0.1666695822        0.3333303098        0.1806547830    0   0   1
C                0.3333345788        0.1666652936        0.4355671844    0   0   1
C                0.1666660801        0.3333329850        0.8639083452    0   0   1
C                0.5000016511       -0.0000012013        0.1880287411    0   0   1
C                0.5000001976       -0.0000000848        0.4299764505    0   0   1
C                0.5000015990       -0.0000010301        0.8613200103    0   0   1
C                0.6666677602        0.3333315339        0.1827201079    0   0   1
C                0.8333368676        0.1666637314        0.4328559269    0   0   1
C                0.6666705520        0.3333300084        0.8588574251    0   0   1
C                0.0000050785        0.4999966103        0.1865277515    0   0   1
C                0.0000032518        0.4999978746        0.4280668674    0   0   1
C                0.0000024583        0.4999983668        0.8594551772    0   0   1
C                0.1666677567        0.8333315407        0.1827929183    0   0   1
C                0.3333365120        0.6666639700        0.4331481402    0   0   1
C                0.1666695483        0.8333306837        0.8597431334    0   0   1
C                0.5000024322        0.4999983128        0.1877460298    0   0   1
C                0.5000036940        0.4999975854        0.4266945191    0   0   1
C                0.5000018892        0.4999987464        0.8604109566    0   0   1
C                0.6666650044        0.8333333742        0.1861802610    0   0   1
C                0.8333416174        0.6666605161        0.4258902935    0   0   1
C                0.6666664714        0.8333327282        0.8627696890    0   0   1
H                0.9006189413        1.1371402701        0.6811768300
H                0.7730801261        1.1870039503        0.6735327089
H                0.2683411250        0.6819402842        0.6731432445
H                0.3925111932        0.6289538281        0.6813498566
H                0.7971349768        0.7575657227        0.6401654411
H                0.8543712962        0.6377873890        0.6391217727



     Writing config-only to output data dir ../results/3h2_abs/3H2abs_C.save/ :
     XML data file
     NEW-OLD atomic charge density approx. for the potential

     Check: negative core charge=   -0.000004

     total cpu time spent up to now is      174.1 secs

     Self-consistent Calculation

     iteration #  1     ecut=    40.00 Ry     beta= 0.05
     Davidson diagonalization with overlap
     ethr =  1.00E-06,  avg # of iterations = 15.0

     total cpu time spent up to now is      178.7 secs

     total energy              =    -292.14860534 Ry
     estimated scf accuracy    <       0.01227468 Ry

     iteration #  2     ecut=    40.00 Ry     beta= 0.05
     Davidson diagonalization with overlap
     ethr =  1.20E-05,  avg # of iterations =  1.0

     total cpu time spent up to now is      180.2 secs

     total energy              =    -292.14205739 Ry
     estimated scf accuracy    <       0.01149623 Ry

     iteration #  3     ecut=    40.00 Ry     beta= 0.05
     Davidson diagonalization with overlap
     ethr =  1.13E-05,  avg # of iterations =  2.0

     total cpu time spent up to now is      182.1 secs

     total energy              =    -292.14396031 Ry
     estimated scf accuracy    <       0.00037911 Ry

     iteration #  4     ecut=    40.00 Ry     beta= 0.05
     Davidson diagonalization with overlap
     ethr =  3.72E-07,  avg # of iterations =  3.0

     total cpu time spent up to now is      183.8 secs

     total energy              =    -292.14404014 Ry
     estimated scf accuracy    <       0.00015603 Ry

     iteration #  5     ecut=    40.00 Ry     beta= 0.05
     Davidson diagonalization with overlap
     ethr =  1.53E-07,  avg # of iterations =  2.0

     total cpu time spent up to now is      185.5 secs

     total energy              =    -292.14397374 Ry
     estimated scf accuracy    <       0.00016025 Ry

     iteration #  6     ecut=    40.00 Ry     beta= 0.05
     Davidson diagonalization with overlap
     ethr =  1.53E-07,  avg # of iterations =  2.0

     total cpu time spent up to now is      187.2 secs

     total energy              =    -292.14399831 Ry
     estimated scf accuracy    <       0.00002050 Ry

     iteration #  7     ecut=    40.00 Ry     beta= 0.05
     Davidson diagonalization with overlap
     ethr =  2.01E-08,  avg # of iterations =  2.0

     total cpu time spent up to now is      189.0 secs

     total energy              =    -292.14400008 Ry
     estimated scf accuracy    <       0.00002148 Ry

     iteration #  8     ecut=    40.00 Ry     beta= 0.05
     Davidson diagonalization with overlap
     ethr =  2.01E-08,  avg # of iterations =  1.0

     total cpu time spent up to now is      190.5 secs

     total energy              =    -292.14399475 Ry
     estimated scf accuracy    <       0.00001871 Ry

     iteration #  9     ecut=    40.00 Ry     beta= 0.05
     Davidson diagonalization with overlap
     ethr =  1.83E-08,  avg # of iterations =  2.0

     total cpu time spent up to now is      192.2 secs

     total energy              =    -292.14399689 Ry
     estimated scf accuracy    <       0.00000419 Ry

     iteration # 10     ecut=    40.00 Ry     beta= 0.05
     Davidson diagonalization with overlap
     ethr =  4.10E-09,  avg # of iterations =  2.0

     total cpu time spent up to now is      193.9 secs

     total energy              =    -292.14399712 Ry
     estimated scf accuracy    <       0.00000295 Ry

     iteration # 11     ecut=    40.00 Ry     beta= 0.05
     Davidson diagonalization with overlap
     ethr =  2.89E-09,  avg # of iterations =  1.0

     total cpu time spent up to now is      195.4 secs

     total energy              =    -292.14399664 Ry
     estimated scf accuracy    <       0.00000249 Ry

     iteration # 12     ecut=    40.00 Ry     beta= 0.05
     Davidson diagonalization with overlap
     ethr =  2.44E-09,  avg # of iterations =  2.0

     total cpu time spent up to now is      197.1 secs

     total energy              =    -292.14399720 Ry
     estimated scf accuracy    <       0.00000084 Ry

     iteration # 13     ecut=    40.00 Ry     beta= 0.05
     Davidson diagonalization with overlap
     ethr =  8.23E-10,  avg # of iterations =  2.0

     total cpu time spent up to now is      198.7 secs

     total energy              =    -292.14399724 Ry
     estimated scf accuracy    <       0.00000078 Ry

     iteration # 14     ecut=    40.00 Ry     beta= 0.05
     Davidson diagonalization with overlap
     ethr =  7.61E-10,  avg # of iterations =  1.0

     total cpu time spent up to now is      200.2 secs

     total energy              =    -292.14399720 Ry
     estimated scf accuracy    <       0.00000066 Ry

     iteration # 15     ecut=    40.00 Ry     beta= 0.05
     Davidson diagonalization with overlap
     ethr =  6.51E-10,  avg # of iterations =  2.0

     total cpu time spent up to now is      201.8 secs

     End of self-consistent calculation

          k = 0.0000 0.0000 0.0000 (  3715 PWs)   bands (ev):

   -12.0741 -10.9680 -10.2662  -6.6727  -6.6361  -6.4480  -6.0708  -6.0348
    -5.8774  -5.7890  -5.6887  -5.5090  -4.9353  -4.8636  -4.8403  -4.7906
    -4.7374  -4.6946  -4.4720  -4.4626  -4.4431  -1.8425  -1.2100   1.3414
     1.6044   1.6162   1.8599   2.0040   2.1018   2.1342   2.2475   2.2594
     2.5202   2.7276   3.5710   3.9488   4.2669   4.3362   4.6301   5.0206
     5.0715   5.2208   5.2987   5.3605   5.3709   5.4284   5.5209   5.6337
     6.5317   6.5397   6.8487   9.1983   9.8448  10.0551  10.1037  10.4946
    10.5428  10.9133  11.0424  11.3147  13.5174

     the Fermi energy is     7.7998 ev

!    total energy              =    -292.14399804 Ry
     estimated scf accuracy    <       0.00000048 Ry
     smearing contrib. (-TS)   =      -0.00000000 Ry
     internal energy E=F+TS    =    -292.14399804 Ry

     The total energy is F=E-TS. E is the sum of the following terms:
     one-electron contribution =     -56.58540736 Ry
     hartree contribution      =      85.75455991 Ry
     xc contribution           =    -103.99268521 Ry
     ewald contribution        =    -217.32046537 Ry

     convergence has been achieved in  15 iterations

     Forces acting on atoms (cartesian axes, Ry/au):

     atom    1 type  1   force =    -0.01045410    0.00492951   -0.00358193
     atom    2 type  1   force =     0.01566169    0.00668322   -0.00270522
     atom    3 type  1   force =    -0.01051157    0.00785009   -0.00009857
     atom    4 type  1   force =     0.00100416    0.00194395    0.00222887
     atom    5 type  1   force =    -0.00938673    0.00673047   -0.01385903
     atom    6 type  1   force =     0.01662396   -0.01377242   -0.00585593
     atom    7 type  1   force =    -0.00847910    0.00479513   -0.00402534
     atom    8 type  1   force =     0.00547655   -0.00380542   -0.00213434
     atom    9 type  1   force =    -0.00031371   -0.00515094   -0.00568779
     atom   10 type  1   force =     0.01121220   -0.00518123    0.00118824
     atom   11 type  1   force =    -0.00928612    0.00933426   -0.01220062
     atom   12 type  1   force =     0.01169813    0.00524804   -0.00553185
     atom   13 type  1   force =    -0.00139442    0.00238344   -0.00878462
     atom   14 type  1   force =     0.01346274   -0.00944765   -0.00657656
     atom   15 type  1   force =    -0.02469457    0.01337361   -0.00409276
     atom   16 type  1   force =     0.00993153   -0.00892320    0.00111893
     atom   17 type  1   force =    -0.01135495    0.00491904   -0.01195030
     atom   18 type  1   force =     0.01041349   -0.00837802   -0.00485686
     atom   19 type  1   force =    -0.01204365    0.00687875   -0.00453757
     atom   20 type  1   force =     0.00446496   -0.01714121   -0.00354201
     atom   21 type  1   force =    -0.00794014    0.00926494   -0.00055015
     atom   22 type  1   force =     0.00751275   -0.00627702    0.00050282
     atom   23 type  1   force =    -0.00497562   -0.00038127   -0.00433833
     atom   24 type  1   force =    -0.00062846   -0.00677782   -0.00460237
     atom   25 type  2   force =     0.01875078    0.00089633    0.00560490
     atom   26 type  2   force =    -0.02111549    0.00387317    0.00650947
     atom   27 type  2   force =    -0.01967463    0.00973504    0.00521140
     atom   28 type  2   force =     0.01874716   -0.00659782    0.00648587
     atom   29 type  2   force =    -0.00364888    0.00493768    0.04153728
     atom   30 type  2   force =     0.01094203   -0.01194268    0.03912438

     Total force =     0.079077     Total SCF correction =     0.001702


     Computing stress (Cartesian axis) and pressure

          total   stress  (Ry/bohr**3)                   (kbar)     P=      -75.86
  -0.00036279  -0.00058182  -0.00000617          -53.37      -85.59       -0.91
  -0.00058182  -0.00105622   0.00000692          -85.59     -155.38        1.02
  -0.00000617   0.00000692  -0.00012798           -0.91        1.02      -18.83

     Energy error            =      1.9E-02 Ry
     Gradient error          =      4.2E-02 Ry/Bohr
     Cell gradient error     =      1.6E+02 kbar

     number of scf cycles    =   5
     number of bfgs steps    =   4

     enthalpy           old  =    -292.1254008735 Ry
     enthalpy           new  =    -292.1439980366 Ry

     CASE: enthalpy          _new < enthalpy          _old

     new trust radius        =       0.0728149415 bohr
     new conv_thr            =       0.0000004154 Ry

     new unit-cell volume =   1317.71199 a.u.^3 (   195.26477 Ang^3 )
     density =      2.50283 g/cm^3

CELL_PARAMETERS (alat=  8.00000437)
   1.167440096   0.001633027  -0.002736104
  -0.582305002   1.012154689   0.002507851
  -0.005555778   0.002702315   2.176317124

ATOMIC_POSITIONS (crystal)
C                0.0000023186       -0.0000016559        0.1881403705    0   0   1
C                0.0000049400       -0.0000033082        0.4254049800    0   0   1
C                0.0000018089       -0.0000012076        0.8605946972    0   0   1
C                0.1666688966        0.3333307651        0.1810061060    0   0   1
C                0.3333372338        0.1666633965        0.4348228351    0   0   1
C                0.1666672041        0.3333321894        0.8635689220    0   0   1
C                0.5000023746       -0.0000017235        0.1878704360    0   0   1
C                0.5000005200       -0.0000003194        0.4299013274    0   0   1
C                0.5000025614       -0.0000017285        0.8610881994    0   0   1
C                0.6666673122        0.3333318361        0.1829596834    0   0   1
C                0.8333391493        0.1666620798        0.4322567847    0   0   1
C                0.6666714597        0.3333293258        0.8587078056    0   0   1
C                0.0000066050        0.4999954880        0.1862196443    0   0   1
C                0.0000043500        0.4999970665        0.4278313451    0   0   1
C                0.0000031047        0.4999978858        0.8593627536    0   0   1
C                0.1666673222        0.8333318332        0.1830280309    0   0   1
C                0.3333387508        0.6666623514        0.4325522910    0   0   1
C                0.1666703469        0.8333300863        0.8595998576    0   0   1
C                0.5000032352        0.4999977269        0.1875826442    0   0   1
C                0.5000041529        0.4999972228        0.4266533844    0   0   1
C                0.5000019555        0.4999986838        0.8604348351    0   0   1
C                0.6666647945        0.8333335331        0.1862665139    0   0   1
C                0.8333421915        0.6666600282        0.4258631992    0   0   1
C                0.6666673423        0.8333321079        0.8625441210    0   0   1
H                0.9026579248        1.1369824386        0.6814053089
H                0.7710541289        1.1875554562        0.6736955000
H                0.2666382839        0.6830455271        0.6732569031
H                0.3942740414        0.6281217515        0.6816137844
H                0.7968211395        0.7585369074        0.6414357956
H                0.8549508516        0.6361619061        0.6403307376



     Writing config-only to output data dir ../results/3h2_abs/3H2abs_C.save/ :
     XML data file
     NEW-OLD atomic charge density approx. for the potential

     Check: negative core charge=   -0.000004

     total cpu time spent up to now is      205.8 secs

     Self-consistent Calculation

     iteration #  1     ecut=    40.00 Ry     beta= 0.05
     Davidson diagonalization with overlap
     ethr =  1.00E-06,  avg # of iterations = 12.0

     total cpu time spent up to now is      209.3 secs

     total energy              =    -292.16163979 Ry
     estimated scf accuracy    <       0.00234199 Ry

     iteration #  2     ecut=    40.00 Ry     beta= 0.05
     Davidson diagonalization with overlap
     ethr =  2.30E-06,  avg # of iterations =  1.0

     total cpu time spent up to now is      210.8 secs

     total energy              =    -292.16058271 Ry
     estimated scf accuracy    <       0.00220779 Ry

     iteration #  3     ecut=    40.00 Ry     beta= 0.05
     Davidson diagonalization with overlap
     ethr =  2.16E-06,  avg # of iterations =  2.0

     total cpu time spent up to now is      212.5 secs

     total energy              =    -292.16080308 Ry
     estimated scf accuracy    <       0.00009194 Ry

     iteration #  4     ecut=    40.00 Ry     beta= 0.05
     Davidson diagonalization with overlap
     ethr =  9.01E-08,  avg # of iterations =  4.0

     total cpu time spent up to now is      214.5 secs

     total energy              =    -292.16083581 Ry
     estimated scf accuracy    <       0.00004998 Ry

     iteration #  5     ecut=    40.00 Ry     beta= 0.05
     Davidson diagonalization with overlap
     ethr =  4.90E-08,  avg # of iterations =  1.0

     total cpu time spent up to now is      216.0 secs

     total energy              =    -292.16082356 Ry
     estimated scf accuracy    <       0.00004751 Ry

     iteration #  6     ecut=    40.00 Ry     beta= 0.05
     Davidson diagonalization with overlap
     ethr =  4.66E-08,  avg # of iterations =  1.0

     total cpu time spent up to now is      217.6 secs

     total energy              =    -292.16082256 Ry
     estimated scf accuracy    <       0.00001892 Ry

     iteration #  7     ecut=    40.00 Ry     beta= 0.05
     Davidson diagonalization with overlap
     ethr =  1.85E-08,  avg # of iterations =  2.0

     total cpu time spent up to now is      219.2 secs

     total energy              =    -292.16082319 Ry
     estimated scf accuracy    <       0.00001071 Ry

     iteration #  8     ecut=    40.00 Ry     beta= 0.05
     Davidson diagonalization with overlap
     ethr =  1.05E-08,  avg # of iterations =  2.0

     total cpu time spent up to now is      220.9 secs

     total energy              =    -292.16082335 Ry
     estimated scf accuracy    <       0.00000891 Ry

     iteration #  9     ecut=    40.00 Ry     beta= 0.05
     Davidson diagonalization with overlap
     ethr =  8.73E-09,  avg # of iterations =  1.0

     total cpu time spent up to now is      222.4 secs

     total energy              =    -292.16082126 Ry
     estimated scf accuracy    <       0.00000659 Ry

     iteration # 10     ecut=    40.00 Ry     beta= 0.05
     Davidson diagonalization with overlap
     ethr =  6.46E-09,  avg # of iterations =  3.0

     total cpu time spent up to now is      224.2 secs

     total energy              =    -292.16082244 Ry
     estimated scf accuracy    <       0.00000265 Ry

     iteration # 11     ecut=    40.00 Ry     beta= 0.05
     Davidson diagonalization with overlap
     ethr =  2.60E-09,  avg # of iterations =  2.0

     total cpu time spent up to now is      225.8 secs

     total energy              =    -292.16082156 Ry
     estimated scf accuracy    <       0.00000301 Ry

     iteration # 12     ecut=    40.00 Ry     beta= 0.05
     Davidson diagonalization with overlap
     ethr =  2.60E-09,  avg # of iterations =  2.0

     total cpu time spent up to now is      227.5 secs

     total energy              =    -292.16082180 Ry
     estimated scf accuracy    <       0.00000057 Ry

     iteration # 13     ecut=    40.00 Ry     beta= 0.05
     Davidson diagonalization with overlap
     ethr =  5.56E-10,  avg # of iterations =  3.0

     total cpu time spent up to now is      229.1 secs

     End of self-consistent calculation

          k = 0.0000 0.0000 0.0000 (  3715 PWs)   bands (ev):

   -12.0398 -10.9084 -10.1837  -6.5135  -6.4784  -6.4591  -5.9351  -5.8932
    -5.8493  -5.6174  -5.5081  -5.4866  -4.8562  -4.7496  -4.7400  -4.6710
    -4.6506  -4.6140  -4.3675  -4.3653  -4.3390  -1.7474  -1.1462   1.6034
     1.6603   1.6675   2.1187   2.1690   2.2127   2.2763   2.3225   2.3319
     2.7292   3.0155   3.7229   4.1242   4.4634   4.5023   4.7269   5.2142
     5.2229   5.3389   5.4960   5.5227   5.5682   5.5907   5.6957   5.7440
     6.6773   6.7318   6.9688   9.3714  10.0614  10.2634  10.2838  10.7018
    10.7809  11.1429  11.2729  11.5284  13.6135

     the Fermi energy is     7.8805 ev

!    total energy              =    -292.16082211 Ry
     estimated scf accuracy    <       0.00000029 Ry
     smearing contrib. (-TS)   =      -0.00000000 Ry
     internal energy E=F+TS    =    -292.16082211 Ry

     The total energy is F=E-TS. E is the sum of the following terms:
     one-electron contribution =     -55.42127043 Ry
     hartree contribution      =      85.83077128 Ry
     xc contribution           =    -104.26317045 Ry
     ewald contribution        =    -218.30715252 Ry

     convergence has been achieved in  13 iterations

     Forces acting on atoms (cartesian axes, Ry/au):

     atom    1 type  1   force =    -0.00227655   -0.00037211   -0.00288211
     atom    2 type  1   force =     0.00804399    0.01154698   -0.00414404
     atom    3 type  1   force =     0.00062412    0.00115193   -0.00257607
     atom    4 type  1   force =    -0.00754194    0.00712690   -0.00259699
[...]
     estimated scf accuracy    <          3.8E-09 Ry
     smearing contrib. (-TS)   =      -0.00000000 Ry
     internal energy E=F+TS    =    -292.20361002 Ry

     The total energy is F=E-TS. E is the sum of the following terms:
     one-electron contribution =     -57.55938359 Ry
     hartree contribution      =      87.17849176 Ry
     xc contribution           =    -104.41081814 Ry
     ewald contribution        =    -217.41190004 Ry

     convergence has been achieved in  12 iterations

     Forces acting on atoms (cartesian axes, Ry/au):

     atom    1 type  1   force =    -0.00008168   -0.00051344    0.00017466
     atom    2 type  1   force =     0.00313869    0.00170864    0.00012335
     atom    3 type  1   force =    -0.01543998   -0.01041968   -0.00017505
     atom    4 type  1   force =    -0.00028657    0.00148611    0.00056645
     atom    5 type  1   force =    -0.00070352   -0.00028964   -0.00056048
     atom    6 type  1   force =    -0.01355983    0.00610923    0.00006630
     atom    7 type  1   force =     0.00000448   -0.00021151   -0.00067350
     atom    8 type  1   force =    -0.00253598    0.00156392    0.00011288
     atom    9 type  1   force =     0.01594084   -0.00784371    0.00013105
     atom   10 type  1   force =     0.00119065    0.00137752    0.00009314
     atom   11 type  1   force =     0.00011957    0.00023077   -0.00015657
     atom   12 type  1   force =     0.01021413    0.00987382   -0.00033804
     atom   13 type  1   force =    -0.00026270   -0.00035980   -0.00022645
     atom   14 type  1   force =     0.00035976    0.00040517    0.00055729
     atom   15 type  1   force =     0.00100892    0.00034996   -0.00009517
     atom   16 type  1   force =    -0.00028501   -0.00039908    0.00021331
     atom   17 type  1   force =    -0.00089447   -0.00107031   -0.00026724
     atom   18 type  1   force =     0.00342463   -0.01355786   -0.00031951
     atom   19 type  1   force =    -0.00054389   -0.00002864    0.00016244
     atom   20 type  1   force =     0.00000853   -0.00309184    0.00018941
     atom   21 type  1   force =    -0.00168050    0.01862961    0.00005442
     atom   22 type  1   force =     0.00037229    0.00014207    0.00033943
     atom   23 type  1   force =     0.00043281   -0.00090976    0.00021675
     atom   24 type  1   force =     0.00037238   -0.00035713   -0.00004340
     atom   25 type  2   force =     0.00001554    0.00006949    0.00025198
     atom   26 type  2   force =     0.00041030    0.00039936   -0.00037113
     atom   27 type  2   force =    -0.00013532   -0.00102726   -0.00007009
     atom   28 type  2   force =    -0.00089922   -0.00094622   -0.00046450
     atom   29 type  2   force =    -0.00005811   -0.00275275    0.00033590
     atom   30 type  2   force =     0.00035325    0.00143294    0.00017240

     Total force =     0.003950     Total SCF correction =     0.000060


     Computing stress (Cartesian axis) and pressure

          total   stress  (Ry/bohr**3)                   (kbar)     P=       -1.06
  -0.00001016  -0.00000820  -0.00000014           -1.49       -1.21       -0.02
  -0.00000820  -0.00001005  -0.00000188           -1.21       -1.48       -0.28
  -0.00000014  -0.00000188  -0.00000139           -0.02       -0.28       -0.20

     Energy error            =      3.1E-05 Ry
     Gradient error          =      2.8E-03 Ry/Bohr
     Cell gradient error     =      1.5E+00 kbar

     number of scf cycles    =  49
     number of bfgs steps    =  47

     enthalpy           old  =    -292.2035786429 Ry
     enthalpy           new  =    -292.2036100158 Ry

     CASE: enthalpy          _new < enthalpy          _old

     new trust radius        =       0.0145449674 bohr
     new conv_thr            =       0.0000000100 Ry

     new unit-cell volume =   1309.37376 a.u.^3 (   194.02917 Ang^3 )
     density =      2.51877 g/cm^3

CELL_PARAMETERS (alat=  8.00000437)
   1.165331684   0.000141507   0.000087460
  -0.582551207   1.009127622   0.000943734
   0.000172062   0.002294836   2.174539603

ATOMIC_POSITIONS (crystal)
C                0.0000273986       -0.0000365969        0.1809350735    0   0   1
C                0.0000074524        0.0000010282        0.4240235984    0   0   1
C                0.0000019408       -0.0000038367        0.8586121741    0   0   1
C                0.1666623783        0.3332996456        0.1765427555    0   0   1
C                0.3333666202        0.1666474260        0.4284997728    0   0   1
C                0.1666875131        0.3333332242        0.8593645647    0   0   1
C                0.5000366306       -0.0000137304        0.1813600731    0   0   1
C                0.5000431563       -0.0000186680        0.4238502667    0   0   1
C                0.5000009148        0.0000126042        0.8590044245    0   0   1
C                0.6666936230        0.3333080128        0.1767118598    0   0   1
C                0.8333696192        0.1666515122        0.4261188375    0   0   1
C                0.6666502690        0.3333584697        0.8592808732    0   0   1
C                0.0000243740        0.4999897131        0.1821430008    0   0   1
C                0.0000147620        0.4999646250        0.4209395886    0   0   1
C               -0.0000153195        0.5000176470        0.8631603666    0   0   1
C                0.1666932545        0.8333062775        0.1767379640    0   0   1
C                0.3333715579        0.6666521780        0.4261664502    0   0   1
C                0.1666451462        0.8333401544        0.8597287169    0   0   1
C                0.5000270400        0.4999698861        0.1809376031    0   0   1
C                0.5000103481        0.4999920624        0.4239918711    0   0   1
C                0.5000001802        0.5000035625        0.8587558280    0   0   1
C                0.6667038468        0.8333112357        0.1804831922    0   0   1
C                0.8333278955        0.6666665153        0.4260296396    0   0   1
C                0.6666765010        0.8333351600        0.8636515140    0   0   1
H                0.9210246219        1.1808231403        0.6793231935
H                0.7438945199        1.1525682193        0.6804858216
H                0.3202071583        0.7426643836        0.6796756692
H                0.3517833646        0.5959322619        0.6802209380
H                0.9067930560        0.7596308395        0.6799656236
H                0.7624328720        0.5794355881        0.6791679346



     Writing config-only to output data dir ../results/3h2_abs/3H2abs_C.save/ :
     XML data file
     NEW-OLD atomic charge density approx. for the potential

     Check: negative core charge=   -0.000004

     total cpu time spent up to now is     1688.3 secs

     Self-consistent Calculation

     iteration #  1     ecut=    40.00 Ry     beta= 0.05
     Davidson diagonalization with overlap
     ethr =  1.00E-06,  avg # of iterations =  2.0

     Threshold (ethr) on eigenvalues was too large:
     Diagonalizing with lowered threshold

     Davidson diagonalization with overlap
     ethr =  1.64E-08,  avg # of iterations =  5.0

     total cpu time spent up to now is     1692.2 secs

     total energy              =    -292.20365061 Ry
     estimated scf accuracy    <       0.00002238 Ry

     iteration #  2     ecut=    40.00 Ry     beta= 0.05
     Davidson diagonalization with overlap
     ethr =  2.19E-08,  avg # of iterations =  1.0

     total cpu time spent up to now is     1693.9 secs

     total energy              =    -292.20364068 Ry
     estimated scf accuracy    <       0.00002132 Ry

     iteration #  3     ecut=    40.00 Ry     beta= 0.05
     Davidson diagonalization with overlap
     ethr =  2.09E-08,  avg # of iterations =  2.0

     total cpu time spent up to now is     1695.7 secs

     total energy              =    -292.20364363 Ry
     estimated scf accuracy    <       0.00000045 Ry

     iteration #  4     ecut=    40.00 Ry     beta= 0.05
     Davidson diagonalization with overlap
     ethr =  4.39E-10,  avg # of iterations =  5.0

     total cpu time spent up to now is     1698.0 secs

     total energy              =    -292.20364385 Ry
     estimated scf accuracy    <       0.00000021 Ry

     iteration #  5     ecut=    40.00 Ry     beta= 0.05
     Davidson diagonalization with overlap
     ethr =  2.03E-10,  avg # of iterations =  2.0

     total cpu time spent up to now is     1699.7 secs

     total energy              =    -292.20364382 Ry
     estimated scf accuracy    <       0.00000022 Ry

     iteration #  6     ecut=    40.00 Ry     beta= 0.05
     Davidson diagonalization with overlap
     ethr =  2.03E-10,  avg # of iterations =  2.0

     total cpu time spent up to now is     1701.4 secs

     total energy              =    -292.20364382 Ry
     estimated scf accuracy    <       0.00000008 Ry

     iteration #  7     ecut=    40.00 Ry     beta= 0.05
     Davidson diagonalization with overlap
     ethr =  7.44E-11,  avg # of iterations =  4.0

     total cpu time spent up to now is     1703.4 secs

     total energy              =    -292.20364383 Ry
     estimated scf accuracy    <       0.00000002 Ry

     iteration #  8     ecut=    40.00 Ry     beta= 0.05
     Davidson diagonalization with overlap
     ethr =  1.98E-11,  avg # of iterations =  4.0

     total cpu time spent up to now is     1705.2 secs

     total energy              =    -292.20364383 Ry
     estimated scf accuracy    <       0.00000002 Ry

     iteration #  9     ecut=    40.00 Ry     beta= 0.05
     Davidson diagonalization with overlap
     ethr =  1.98E-11,  avg # of iterations =  1.0

     total cpu time spent up to now is     1706.8 secs

     total energy              =    -292.20364383 Ry
     estimated scf accuracy    <       0.00000002 Ry

     iteration # 10     ecut=    40.00 Ry     beta= 0.05
     Davidson diagonalization with overlap
     ethr =  1.80E-11,  avg # of iterations =  2.0

     total cpu time spent up to now is     1708.4 secs

     End of self-consistent calculation

          k = 0.0000 0.0000 0.0000 (  3715 PWs)   bands (ev):

   -11.9246 -11.0764 -10.1008  -6.3439  -6.3313  -6.3268  -5.8024  -5.7973
    -5.7695  -5.6128  -5.6073  -5.5897  -4.9544  -4.9517  -4.7997  -4.5971
    -4.5934  -4.5600  -4.2646  -4.2620  -4.2541  -1.6259  -1.1933   1.7822
     1.7854   1.7870   2.0642   2.0976   2.1026   2.4087   2.4248   2.4282
     3.2678   3.2877   3.6908   4.3407   4.5706   4.6050   4.6140   5.3503
     5.3555   5.4085   5.4125   5.5347   5.5405   5.5759   5.6649   5.6655
     6.8107   6.8155   6.8216   9.2857  10.2245  10.2375  10.7965  10.8560
    10.8659  11.3074  11.5735  11.5823  14.5533

     the Fermi energy is     8.6141 ev

!    total energy              =    -292.20364378 Ry
     estimated scf accuracy    <          3.5E-09 Ry
     smearing contrib. (-TS)   =      -0.00000000 Ry
     internal energy E=F+TS    =    -292.20364378 Ry

     The total energy is F=E-TS. E is the sum of the following terms:
     one-electron contribution =     -57.28011279 Ry
     hartree contribution      =      87.04340116 Ry
     xc contribution           =    -104.40941938 Ry
     ewald contribution        =    -217.55751277 Ry

     convergence has been achieved in  10 iterations

     Forces acting on atoms (cartesian axes, Ry/au):

     atom    1 type  1   force =    -0.00008941   -0.00044925    0.00038090
     atom    2 type  1   force =     0.00323843    0.00173573   -0.00014719
     atom    3 type  1   force =    -0.01554726   -0.01026741   -0.00022757
     atom    4 type  1   force =    -0.00020085    0.00127066    0.00079501
     atom    5 type  1   force =    -0.00073926   -0.00021716   -0.00039262
     atom    6 type  1   force =    -0.01330764    0.00592684   -0.00019000
     atom    7 type  1   force =    -0.00009795   -0.00011059   -0.00047937
     atom    8 type  1   force =    -0.00256996    0.00157552   -0.00013506
     atom    9 type  1   force =     0.01595624   -0.00807793   -0.00046782
     atom   10 type  1   force =     0.00110794    0.00117630    0.00052376
     atom   11 type  1   force =     0.00009160    0.00019987   -0.00025679
     atom   12 type  1   force =     0.01057492    0.00961060   -0.00012215
     atom   13 type  1   force =    -0.00030514   -0.00033271   -0.00014946
     atom   14 type  1   force =     0.00037902    0.00040983    0.00056504
     atom   15 type  1   force =     0.00076386    0.00021046    0.00095853
     atom   16 type  1   force =    -0.00025647   -0.00039936    0.00057957
     atom   17 type  1   force =    -0.00085122   -0.00089915   -0.00045204
     atom   18 type  1   force =     0.00350350   -0.01361282   -0.00050689
     atom   19 type  1   force =    -0.00052482   -0.00008858    0.00036329
     atom   20 type  1   force =     0.00004642   -0.00318016   -0.00000031
     atom   21 type  1   force =    -0.00183980    0.01842195   -0.00039720
     atom   22 type  1   force =     0.00042577    0.00008969   -0.00030368
     atom   23 type  1   force =     0.00035323   -0.00074996   -0.00011187
     atom   24 type  1   force =     0.00013619   -0.00014575    0.00017169
     atom   25 type  2   force =     0.00012455   -0.00003427    0.00007110
     atom   26 type  2   force =     0.00018265    0.00026947   -0.00034831
     atom   27 type  2   force =    -0.00021802   -0.00040299   -0.00010693
     atom   28 type  2   force =    -0.00052954   -0.00092972   -0.00027843
     atom   29 type  2   force =    -0.00018970   -0.00245295    0.00032962
     atom   30 type  2   force =     0.00038273    0.00145384    0.00033519

     Total force =     0.003817     Total SCF correction =     0.000078


     Computing stress (Cartesian axis) and pressure

          total   stress  (Ry/bohr**3)                   (kbar)     P=       -1.21
  -0.00001179  -0.00001067  -0.00000004           -1.73       -1.57       -0.01
  -0.00001067  -0.00000997  -0.00000167           -1.57       -1.47       -0.25
  -0.00000004  -0.00000167  -0.00000282           -0.01       -0.25       -0.42

     Energy error            =      3.4E-05 Ry
     Gradient error          =      2.5E-03 Ry/Bohr
     Cell gradient error     =      1.7E+00 kbar

     number of scf cycles    =  50
     number of bfgs steps    =  48

     enthalpy           old  =    -292.2036100158 Ry
     enthalpy           new  =    -292.2036437808 Ry

     CASE: enthalpy          _new < enthalpy          _old

     new trust radius        =       0.0214610413 bohr

     The maximum number of steps has been reached.

     End of BFGS Geometry Optimization
     new unit-cell volume =   1309.10297 a.u.^3 (   193.98905 Ang^3 )
     density =      2.51929 g/cm^3

CELL_PARAMETERS (alat=  8.00000437)
   1.165289284   0.000082169   0.000116467
  -0.582581159   1.009119727   0.000558317
   0.000232379   0.001387768   2.174248518

ATOMIC_POSITIONS (crystal)
C                0.0000272666       -0.0000368471        0.1808875686    0   0   1
C                0.0000077880        0.0000015854        0.4241871497    0   0   1
C                0.0000017661       -0.0000040684        0.8585124580    0   0   1
C                0.1666621945        0.3332990686        0.1765580573    0   0   1
C                0.3333667492        0.1666480377        0.4285866317    0   0   1
C                0.1666877856        0.3333337596        0.8594257292    0   0   1
C                0.5000363530       -0.0000139609        0.1812044986    0   0   1
C                0.5000436614       -0.0000179686        0.4239808996    0   0   1
C                0.5000008275        0.0000126148        0.8589695406    0   0   1
C                0.6666934171        0.3333074181        0.1765992714    0   0   1
C                0.8333697962        0.1666518883        0.4261706450    0   0   1
C                0.6666499182        0.3333585265        0.8592844685    0   0   1
C                0.0000242496        0.4999894894        0.1821019601    0   0   1
C                0.0000148052        0.4999643238        0.4209481813    0   0   1
C               -0.0000157496        0.5000174446        0.8631948661    0   0   1
C                0.1666931056        0.8333057187        0.1766402534    0   0   1
C                0.3333717097        0.6666525204        0.4261902156    0   0   1
C                0.1666448081        0.8333400236        0.8596643407    0   0   1
C                0.5000269510        0.4999697347        0.1809078863    0   0   1
C                0.5000106069        0.4999924092        0.4241171243    0   0   1
C                0.5000002272        0.5000037443        0.8587218881    0   0   1
C                0.6667043260        0.8333117262        0.1805590646    0   0   1
C                0.8333280471        0.6666668985        0.4261460374    0   0   1
C                0.6666761386        0.8333345719        0.8634630761    0   0   1
H                0.9210649336        1.1803861012        0.6796128893
H                0.7444903755        1.1533441360        0.6803776687
H                0.3191362001        0.7414020406        0.6798188714
H                0.3504608912        0.5945419402        0.6799851538
H                0.9075456144        0.7578004894        0.6800109584
H                0.7610867033        0.5787686886        0.6790383945



     Writing config-only to output data dir ../results/3h2_abs/3H2abs_C.save/ :
     XML data file
     NEW-OLD atomic charge density approx. for the potential

     Check: negative core charge=   -0.000004

     Writing all to output data dir ../results/3h2_abs/3H2abs_C.save/ :
     XML data file, charge density, pseudopotentials, collected wavefunctions

     init_run     :      1.74s CPU      1.53s WALL (       1 calls)
     electrons    :   1864.85s CPU   1515.35s WALL (      50 calls)
     update_pot   :      7.41s CPU      5.10s WALL (      50 calls)
     forces       :     66.64s CPU     55.91s WALL (      50 calls)
     stress       :    177.10s CPU    118.63s WALL (      50 calls)

     Called by init_run:
     wfcinit      :      0.74s CPU      0.58s WALL (       1 calls)
     potinit      :      0.14s CPU      0.12s WALL (       1 calls)
     hinit0       :      0.57s CPU      0.54s WALL (       1 calls)

     Called by electrons:
     c_bands      :   1071.03s CPU    851.18s WALL (     822 calls)
     sum_band     :    427.22s CPU    376.10s WALL (     822 calls)
     v_of_rho     :     32.53s CPU     17.93s WALL (     849 calls)
     newd         :    238.18s CPU    221.95s WALL (     849 calls)
     mix_rho      :     94.62s CPU     52.20s WALL (     822 calls)

     Called by c_bands:
     init_us_2    :     10.76s CPU      7.54s WALL (    1645 calls)
     cegterg      :   1047.26s CPU    837.68s WALL (     822 calls)

     Called by *egterg:
     cdiaghg      :     22.46s CPU     22.55s WALL (    2796 calls)
     h_psi        :    669.83s CPU    471.11s WALL (    2870 calls)
     s_psi        :    122.06s CPU    116.76s WALL (    2870 calls)
     g_psi        :      3.26s CPU      2.04s WALL (    2047 calls)

     Called by h_psi:
     h_psi:calbec :    112.70s CPU    106.68s WALL (    2870 calls)
     vloc_psi     :    450.64s CPU    258.90s WALL (    2870 calls)
     add_vuspsi   :    104.07s CPU    104.18s WALL (    2870 calls)

     General routines
     calbec       :    189.03s CPU    181.76s WALL (    3942 calls)
     fft          :     69.55s CPU     40.85s WALL (    5468 calls)
     ffts         :     35.20s CPU     19.83s WALL (   18809 calls)
     fftw         :    370.67s CPU    215.82s WALL (  294560 calls)
     interpolate  :     13.77s CPU      8.26s WALL (     849 calls)

     Parallel routines

     PWSCF        :  35m34.98s CPU  28m32.47s WALL


   This run was terminated on:   0:52:55   7Aug2024            

=------------------------------------------------------------------------------=
   JOB DONE.
=------------------------------------------------------------------------------=
