ITEM: TIMESTEP
150000
ITEM: NUMBER OF ATOMS
543
ITEM: BOX BOUNDS pp pp pp
-3.0000000000000000e+01 3.0000000000000000e+01
-3.0000000000000000e+01 3.0000000000000000e+01
-1.5000000000000000e+01 1.5000000000000000e+01
ITEM: ATOMS id type xs ys zs
8385 2 0.33174 0.201435 0.36672
8231 2 0.417688 0.177931 0.0184112
8171 2 0.473165 0.213279 0.336777
8230 2 0.395471 0.18366 0.218469
8334 2 0.0369214 0.131183 0.0414653
8056 2 0.431053 0.177927 0.477642
8320 2 0.0501955 0.184511 0.281604
8284 2 0.457267 0.0955844 0.447306
8347 2 0.205312 0.0507599 0.415816
8384 2 0.213293 0.0484393 0.190612
8297 2 0.338755 0.24786 0.0787535
8402 2 0.29065 0.0584886 0.078472
8139 2 0.270124 0.224832 0.546291
8062 2 0.485568 0.217605 0.678217
8232 2 0.421048 0.0142674 0.675568
8364 2 0.158005 0.106748 0.814629
8176 2 0.327529 0.144504 0.625433
8018 2 0.121071 0.112434 0.510416
8270 2 0.0710894 0.144489 0.826327
8378 2 0.378876 0.100116 0.783981
8372 2 0.205949 0.165831 0.865647
8373 2 0.233348 0.0717429 0.614792
8417 2 0.287574 0.136836 0.765024
70 1 0.468875 0.455214 0.494046
8089 2 0.096252 0.401398 0.293893
6 2 0.387783 0.460775 0.396345
674 2 0.32334 0.45771 0.393002
38 1 0.348134 0.406833 0.489285
169 1 0.429052 0.477147 0.490781
40 1 0.348954 0.313222 0.494719
8243 2 0.168118 0.390183 0.420913
2894 2 0.452828 0.426574 0.258523
6558 2 0.360047 0.431498 0.230356
23 2 0.423907 0.25918 0.451266
1085 2 0.47108 0.29697 0.398668
65 1 0.449243 0.303691 0.498178
37 1 0.348835 0.383656 0.494802
153 1 0.371546 0.4891 0.495917
75 1 0.489392 0.442549 0.495306
36 1 0.348211 0.336924 0.490434
163 1 0.409445 0.488768 0.490587
421 2 0.439509 0.497835 0.384882
8324 2 0.458949 0.268806 0.0494517
466 2 0.44304 0.427584 0.40368
145 1 0.350864 0.476877 0.486618
43 1 0.368716 0.418623 0.492019
8014 2 0.4517 0.283179 0.239025
1877 2 0.30977 0.314394 0.412625
8219 2 0.0299242 0.337937 0.323343
765 2 0.343294 0.258044 0.46589
53 1 0.408739 0.373423 0.493637
452 2 0.377791 0.38988 0.396553
66 1 0.468982 0.385154 0.49644
60 1 0.429227 0.316542 0.496378
800 2 0.314529 0.382471 0.403926
39 1 0.350743 0.45334 0.49231
455 2 0.266362 0.362737 0.488166
41 1 0.36904 0.348855 0.49153
319 2 0.439427 0.358465 0.405557
8202 2 0.168856 0.284312 0.287663
176 1 0.448746 0.489454 0.493594
51 1 0.409338 0.418962 0.496727
33 1 0.328497 0.418948 0.4966
620 2 0.266219 0.431734 0.473096
632 2 0.383882 0.319537 0.400005
139 1 0.329809 0.488453 0.490347
8205 2 0.265681 0.301398 0.249842
73 1 0.489057 0.372955 0.499188
52 1 0.409918 0.442397 0.496367
54 1 0.408475 0.349489 0.498959
8286 2 0.208473 0.444129 0.605141
5991 2 0.324408 0.278 0.625068
584 2 0.476822 0.392265 0.604112
6984 2 0.456146 0.381298 0.76588
32 1 0.329339 0.372433 0.508637
72 1 0.488776 0.350257 0.510685
1213 2 0.385676 0.259139 0.556725
26 1 0.311117 0.336732 0.522731
616 2 0.465604 0.260658 0.553329
35 1 0.33189 0.302323 0.518708
553 2 0.41028 0.434244 0.606234
68 1 0.469042 0.408554 0.500655
1092 2 0.485942 0.323543 0.608864
57 1 0.429259 0.454584 0.503435
62 1 0.449471 0.420629 0.511149
42 1 0.368689 0.372345 0.50261
34 1 0.330475 0.442066 0.505695
74 1 0.489231 0.419909 0.507586
46 1 0.390113 0.453751 0.504816
908 2 0.424724 0.306708 0.607852
59 1 0.428496 0.338978 0.510579
28 1 0.310388 0.408869 0.51452
8345 2 0.13361 0.275816 0.889495
575 2 0.290503 0.437393 0.606031
55 1 0.409136 0.305116 0.502297
1492 2 0.288507 0.36176 0.609915
694 2 0.353918 0.40698 0.59485
422 2 0.415462 0.370297 0.602603
58 1 0.429334 0.408452 0.509718
44 1 0.369588 0.441729 0.500793
188 1 0.489349 0.489887 0.505453
50 1 0.389064 0.315667 0.513239
47 1 0.388709 0.384368 0.504713
30 1 0.312505 0.31363 0.527671
64 1 0.449239 0.374162 0.508885
481 2 0.356336 0.342161 0.598807
1174 2 0.259684 0.301913 0.530247
8386 2 0.103216 0.413695 0.835346
134 1 0.311413 0.478651 0.506417
611 2 0.390433 0.481737 0.740435
63 1 0.449242 0.443618 0.507775
29 1 0.311121 0.454945 0.504653
737 2 0.48012 0.455423 0.602453
27 1 0.311329 0.385588 0.520367
127 2 0.349703 0.476601 0.594172
155 1 0.390906 0.477574 0.506952
5900 2 0.346625 0.384864 0.761782
61 1 0.448874 0.350526 0.512841
71 1 0.489424 0.305305 0.502214
7903 2 0.198309 0.365671 0.630926
182 1 0.46848 0.478306 0.502731
49 1 0.388498 0.3387 0.507505
45 1 0.36937 0.303463 0.503636
48 1 0.388619 0.407652 0.503698
8302 2 0.083686 0.4782 0.744971
67 1 0.468494 0.338958 0.503447
69 1 0.46907 0.315445 0.509192
8180 2 0.2387 0.271377 0.846576
31 1 0.328557 0.348814 0.501493
8397 2 0.458229 0.374089 0.992355
147 2 0.421793 0.496775 0.595994
8418 2 0.173263 0.493609 0.83492
56 1 0.429455 0.385537 0.500746
13 2 0.374237 0.658348 0.413961
175 1 0.450028 0.512406 0.496656
180 1 0.471182 0.591026 0.493307
130 1 0.320902 0.615144 0.455617
129 1 0.321361 0.663085 0.456028
12 2 0.424211 0.559458 0.408622
2762 2 0.376564 0.726247 0.426283
128 2 0.371757 0.592494 0.416389
257 1 0.338517 0.696771 0.475848
189 1 0.48996 0.511588 0.486509
264 1 0.469868 0.68415 0.489767
8251 2 0.023632 0.563755 0.0351728
293 2 0.361478 0.527045 0.406548
7897 2 0.263576 0.50148 0.342418
3790 2 0.476338 0.58718 0.258359
132 1 0.314989 0.545796 0.474518
8328 2 0.26684 0.67896 0.0087114
181 1 0.469466 0.546059 0.488695
183 1 0.469186 0.523222 0.481592
172 1 0.450539 0.649048 0.498217
439 2 0.442254 0.616186 0.402103
136 1 0.335044 0.628005 0.479259
131 1 0.318405 0.592282 0.462749
4853 2 0.296721 0.701583 0.332578
133 1 0.31437 0.521899 0.476024
265 1 0.490471 0.695006 0.499637
185 1 0.490836 0.626258 0.497062
162 1 0.409499 0.512534 0.492948
170 1 0.430014 0.524004 0.493403
256 1 0.322467 0.685855 0.450191
1521 2 0.296917 0.73648 0.450462
14 2 0.491238 0.541159 0.385131
186 1 0.491066 0.579725 0.493385
8142 2 0.214502 0.602901 0.345161
556 2 0.321392 0.63864 0.355825
179 1 0.469988 0.661075 0.491678
187 1 0.490133 0.55694 0.494335
137 1 0.33027 0.581293 0.497261
8280 2 0.191717 0.746018 0.40923
861 2 0.482684 0.725823 0.414374
1016 2 0.308118 0.565147 0.371182
1309 2 0.434416 0.673096 0.401553
440 2 0.389252 0.554521 0.268903
135 1 0.332828 0.651169 0.48771
252 2 0.271358 0.639415 0.455511
430 2 0.264012 0.501927 0.488444
8393 2 0.402026 0.6883 0.230921
263 1 0.450493 0.695074 0.499599
178 1 0.470578 0.614823 0.4941
8236 2 0.466248 0.651738 0.086721
8350 2 0.121566 0.666562 0.119514
1684 2 0.428337 0.744539 0.498749
8403 2 0.391791 0.716502 0.0505265
8406 2 0.278374 0.65258 0.170446
254 2 0.484231 0.604009 0.5985
171 1 0.431024 0.660204 0.512628
253 2 0.418606 0.635482 0.614266
271 2 0.469805 0.673053 0.60064
160 1 0.410399 0.580981 0.511011
150 1 0.369421 0.580837 0.520293
142 1 0.349743 0.615878 0.507712
173 1 0.45152 0.580497 0.507357
161 1 0.410268 0.557447 0.517514
143 1 0.34906 0.592132 0.515068
278 2 0.497627 0.741585 0.552499
167 1 0.430588 0.545048 0.51412
159 1 0.390998 0.66011 0.522498
152 1 0.370296 0.511357 0.511363
174 1 0.451346 0.556747 0.508506
156 1 0.390511 0.523082 0.510496
8376 2 0.363057 0.63983 0.870413
149 1 0.370477 0.626923 0.509405
262 1 0.431005 0.683634 0.511946
8028 2 0.216786 0.632802 0.592932
16 2 0.304129 0.61977 0.567553
148 1 0.369813 0.649462 0.52015
151 1 0.3692 0.558615 0.507463
7080 2 0.358652 0.577521 0.767626
154 1 0.389742 0.546899 0.507921
144 1 0.349133 0.546314 0.512299
8260 2 0.202064 0.592511 0.812382
11 2 0.308143 0.53304 0.591395
17 2 0.360559 0.673215 0.620644
158 1 0.390366 0.592502 0.520175
168 1 0.430879 0.591979 0.508287
347 2 0.352735 0.738576 0.549823
141 1 0.350164 0.661967 0.511786
165 1 0.410278 0.64934 0.506584
260 1 0.391437 0.683569 0.52086
787 2 0.29739 0.687538 0.546447
261 1 0.409654 0.694791 0.506858
166 1 0.430968 0.614878 0.513427
164 1 0.410606 0.62583 0.503135
177 1 0.451541 0.626227 0.510913
1601 2 0.477827 0.527754 0.589574
146 1 0.350033 0.522509 0.513415
325 2 0.373423 0.539304 0.613564
1167 2 0.413055 0.711079 0.614037
557 2 0.428417 0.571042 0.614114
157 1 0.390456 0.615677 0.517018
259 1 0.372404 0.69497 0.510138
788 2 0.270707 0.571231 0.505033
4978 2 0.363906 0.606084 0.61743
138 1 0.330396 0.511063 0.500206
8327 2 0.165413 0.740245 0.951088
258 1 0.352591 0.684781 0.505217
8168 2 0.23458 0.578795 0.972121
8129 2 0.301021 0.714776 0.731844
184 1 0.489653 0.64959 0.50645
8299 2 0.0285982 0.733277 0.891887
8369 2 0.30463 0.635268 0.758171
8342 2 0.43966 0.581668 0.957997
140 1 0.329747 0.557647 0.500586
8401 2 0.100717 0.547342 0.817004
8407 2 0.100803 0.653594 0.741025
8149 2 0.4225 0.887325 0.2659
8348 2 0.224341 0.818299 0.119535
8293 2 0.24606 0.891369 0.4792
8388 2 0.413921 0.806924 0.157107
8362 2 0.00717337 0.884338 0.0907889
7020 2 0.342132 0.833514 0.414103
8269 2 0.472957 0.967132 0.286543
7812 2 0.284082 0.896279 0.0854208
8394 2 0.309408 0.960146 0.375307
8026 2 0.0973712 0.9645 0.31745
8309 2 0.103538 0.82569 0.347573
8312 2 0.198455 0.897605 0.117733
8314 2 0.0510304 0.769369 0.367849
8361 2 0.397322 0.779766 0.764121
8337 2 0.219123 0.759381 0.672102
8234 2 0.49221 0.769721 0.764611
7813 2 0.00136978 0.878393 0.870957
8196 2 0.459547 0.992073 0.899817
8390 2 0.392475 0.875464 0.582781
8396 2 0.011241 0.937872 0.531338
8413 2 0.157367 0.854592 0.88449
8419 2 0.033607 0.810681 0.65454
8421 2 0.0219672 0.84667 0.513367
8424 2 0.0284907 0.971161 0.80533
8248 2 0.547605 0.0570848 0.246702
8145 2 0.722667 0.210363 0.34586
8387 2 0.860107 0.223569 0.223219
8276 2 0.985721 0.245537 0.153217
8367 2 0.857459 0.0632022 0.180169
8360 2 0.945797 0.13716 0.305606
8275 2 0.783386 0.0924978 0.416294
8374 2 0.958211 0.0475515 0.339274
8416 2 0.783094 0.147919 0.102593
8250 2 0.932362 0.0263204 0.5709
7203 2 0.588941 0.177343 0.591598
8359 2 0.936266 0.156616 0.717111
8332 2 0.561141 0.10664 0.954256
8331 2 0.790431 0.0317328 0.945336
8365 2 0.836855 0.180568 0.804678
8389 2 0.976895 0.184121 0.908455
8391 2 0.54891 0.231039 0.989341
8392 2 0.970769 0.0659654 0.891246
8405 2 0.634099 0.230621 0.802407
8410 2 0.738566 0.112888 0.87157
8415 2 0.634524 0.0659709 0.60863
93 1 0.570075 0.419597 0.495084
8109 2 0.548405 0.331833 0.212426
8 2 0.579854 0.452896 0.399914
8353 2 0.942772 0.439999 0.315514
15 2 0.650168 0.447347 0.399133
8272 2 0.692096 0.303861 0.147413
98 1 0.590129 0.4079 0.491423
713 2 0.733748 0.465684 0.488045
107 1 0.630556 0.407544 0.492982
617 2 0.553728 0.310693 0.400031
8322 2 0.58391 0.418773 0.0842783
82 1 0.529459 0.419065 0.497572
7694 2 0.767085 0.452697 0.330386
1595 2 0.733305 0.330181 0.487715
618 2 0.68055 0.344794 0.403912
228 1 0.629964 0.476512 0.483226
119 1 0.670412 0.384812 0.486961
203 1 0.550194 0.477106 0.488645
222 1 0.609802 0.488023 0.483683
24 2 0.624165 0.314801 0.396854
487 2 0.501487 0.474066 0.397894
87 1 0.549795 0.407614 0.497028
104 1 0.610575 0.419451 0.488383
8315 2 0.863598 0.424953 0.483313
114 1 0.650888 0.373028 0.493472
103 1 0.610304 0.443236 0.491883
627 2 0.588066 0.259599 0.464089
2 2 0.516978 0.25762 0.476944
8173 2 0.791399 0.416856 0.159613
529 2 0.714351 0.399318 0.410554
233 1 0.650598 0.488459 0.48291
96 1 0.5903 0.338643 0.482664
83 1 0.529068 0.373879 0.495135
81 1 0.529218 0.442761 0.494031
86 1 0.549031 0.453926 0.499267
530 2 0.559674 0.384155 0.397695
415 2 0.502703 0.348832 0.399879
89 1 0.549665 0.338901 0.49488
6032 2 0.529647 0.489313 0.234922
196 1 0.529947 0.487736 0.490929
99 1 0.589739 0.384484 0.497289
84 1 0.529531 0.350394 0.495815
208 1 0.571052 0.487385 0.488285
100 1 0.590119 0.31581 0.49071
102 1 0.610703 0.35017 0.491341
790 2 0.680209 0.271758 0.447679
941 2 0.621842 0.381837 0.396484
117 1 0.669873 0.408544 0.49291
95 1 0.569984 0.350701 0.488154
7 2 0.503598 0.407586 0.403041
2199 2 0.616277 0.464842 0.268869
8252 2 0.955603 0.371986 0.0439511
7372 2 0.662077 0.369638 0.203294
239 1 0.670807 0.477027 0.492708
8267 2 0.864678 0.425243 0.0228395
8313 2 0.782728 0.334171 0.346398
1422 2 0.714824 0.257785 0.565482
244 1 0.688335 0.490342 0.509399
90 1 0.550381 0.318539 0.515252
97 1 0.591016 0.454497 0.507127
91 1 0.57066 0.30665 0.511069
6165 2 0.543343 0.316007 0.746581
77 1 0.509508 0.40792 0.510287
125 1 0.688914 0.352738 0.518609
10 2 0.66369 0.389211 0.597756
123 1 0.688241 0.442447 0.50545
92 1 0.569713 0.442771 0.504464
9 2 0.606467 0.41574 0.593117
120 1 0.669449 0.340341 0.516209
8274 2 0.78137 0.48109 0.613524
105 1 0.609716 0.305855 0.502682
191 1 0.510077 0.477198 0.507758
88 1 0.549377 0.384428 0.504521
109 1 0.630395 0.38493 0.504603
76 1 0.509664 0.454058 0.505499
121 1 0.688192 0.30504 0.531294
79 1 0.509602 0.339381 0.509183
118 1 0.671275 0.316899 0.508675
101 1 0.609765 0.372989 0.503055
404 2 0.631392 0.264165 0.56404
108 1 0.629433 0.455197 0.502272
1196 2 0.536884 0.363438 0.602313
122 1 0.689564 0.419778 0.502292
1010 2 0.553605 0.485595 0.596611
8191 2 0.964631 0.316058 0.73717
3235 2 0.613072 0.417701 0.763006
111 1 0.650855 0.30586 0.509975
7754 2 0.889985 0.430324 0.726977
116 1 0.669676 0.454956 0.509062
112 1 0.649716 0.443522 0.510403
250 2 0.635036 0.490266 0.585302
7387 2 0.772818 0.414015 0.709263
381 2 0.650793 0.324307 0.619001
2218 2 0.505874 0.492948 0.737067
1021 2 0.590695 0.340485 0.59168
1181 2 0.694685 0.460349 0.608156
367 2 0.541308 0.424934 0.599901
461 2 0.55207 0.273905 0.590587
110 1 0.629691 0.340039 0.506759
126 2 0.733673 0.398691 0.551732
106 1 0.630085 0.31692 0.512578
85 1 0.53026 0.306552 0.51292
391 2 0.719439 0.33716 0.61575
113 1 0.649843 0.420164 0.504102
78 1 0.508799 0.384285 0.507126
94 1 0.56984 0.37285 0.503014
124 1 0.68905 0.374519 0.503657
8214 2 0.627436 0.33786 0.948921
8224 2 0.671692 0.456848 0.799664
8227 2 0.805417 0.284449 0.631545
115 1 0.650419 0.350153 0.500426
8323 2 0.579917 0.460856 0.923504
215 1 0.590498 0.477561 0.50158
8377 2 0.690804 0.316986 0.841918
8383 2 0.982131 0.449591 0.938548
80 1 0.50949 0.316557 0.500039
8404 2 0.983982 0.415783 0.538501
8019 2 0.878549 0.694957 0.0591116
202 1 0.550278 0.522398 0.498003
276 1 0.667125 0.681903 0.48011
379 2 0.734319 0.60988 0.492713
2110 2 0.625776 0.714153 0.389285
204 1 0.550913 0.545807 0.490162
858 2 0.708175 0.649494 0.371537
18 2 0.510648 0.662435 0.406118
192 1 0.51088 0.54631 0.487172
513 2 0.514718 0.597065 0.396376
205 1 0.550391 0.59163 0.492498
2303 2 0.679674 0.738506 0.491724
234 1 0.650436 0.512115 0.485128
190 1 0.510843 0.523073 0.493411
275 1 0.646798 0.692385 0.482672
308 2 0.552146 0.731986 0.430738
206 1 0.549668 0.615371 0.49076
227 1 0.629774 0.522199 0.495902
2721 2 0.647105 0.617893 0.257172
272 1 0.60922 0.691263 0.488515
251 2 0.588127 0.58755 0.405415
248 1 0.685566 0.626097 0.478238
224 1 0.609279 0.55741 0.497011
223 1 0.609901 0.511344 0.48842
7599 2 0.510433 0.689502 0.260531
226 1 0.628679 0.591806 0.498739
235 1 0.648349 0.58084 0.489019
277 1 0.677142 0.688378 0.440489
242 1 0.666013 0.614504 0.492451
656 2 0.559767 0.518875 0.392745
232 1 0.648463 0.558049 0.489186
413 2 0.576149 0.658598 0.405461
3998 2 0.697698 0.721402 0.35242
216 1 0.589765 0.521903 0.499334
240 1 0.669423 0.547359 0.491039
1118 2 0.6831 0.583039 0.397429
776 2 0.636905 0.644452 0.411906
1325 2 0.735198 0.538497 0.476544
643 2 0.627293 0.53534 0.391228
212 1 0.569738 0.626328 0.49909
2507 2 0.756379 0.559417 0.272723
1545 2 0.688483 0.509187 0.399172
8292 2 0.826918 0.63337 0.192832
269 1 0.56926 0.695063 0.497541
249 1 0.686162 0.648643 0.480766
198 1 0.531033 0.557545 0.484404
8203 2 0.932794 0.519595 0.329551
6431 2 0.56315 0.615675 0.2559
217 1 0.589153 0.545637 0.494587
197 1 0.530095 0.511016 0.488157
8379 2 0.598255 0.514278 0.112482
8363 2 0.710717 0.713492 0.0984861
238 1 0.668848 0.524573 0.4995
209 1 0.570264 0.510015 0.499335
255 2 0.532734 0.549985 0.591276
231 1 0.629495 0.660922 0.516386
274 2 0.554839 0.610662 0.599243
7206 2 0.534358 0.663896 0.972474
7420 2 0.637169 0.682334 0.788038
7851 2 0.678759 0.573355 0.718086
246 1 0.688618 0.581858 0.508264
237 1 0.650199 0.649004 0.516847
193 1 0.510928 0.59196 0.503404
613 2 0.536715 0.672476 0.614307
211 1 0.569859 0.579899 0.506021
201 1 0.530426 0.650088 0.511447
218 1 0.589758 0.592297 0.514009
207 1 0.549913 0.66131 0.507266
213 1 0.569499 0.648775 0.513645
8271 2 0.810182 0.678936 0.539176
328 2 0.518651 0.605124 0.745369
225 1 0.609427 0.57967 0.509514
195 1 0.509766 0.661448 0.51308
270 1 0.589426 0.683839 0.503698
220 1 0.609029 0.626256 0.511514
266 1 0.509164 0.684591 0.512982
468 2 0.596647 0.546357 0.602581
7860 2 0.555582 0.725878 0.712588
543 2 0.650793 0.569979 0.5975
7895 2 0.772023 0.582615 0.667477
194 1 0.510881 0.615154 0.504077
8055 2 0.839993 0.603631 0.941124
221 1 0.609341 0.649134 0.507667
268 1 0.549192 0.684798 0.509885
214 1 0.589908 0.660859 0.514917
5716 2 0.734285 0.680604 0.731934
273 1 0.62925 0.683679 0.505582
465 2 0.711149 0.542094 0.602986
662 2 0.59927 0.696837 0.607889
329 2 0.668261 0.692574 0.590983
8423 2 0.93927 0.590538 0.660714
19 2 0.557392 0.738846 0.55901
743 2 0.692445 0.626192 0.591393
8092 2 0.747092 0.517254 0.986545
8177 2 0.604763 0.533567 0.907648
387 2 0.617662 0.632312 0.615057
219 1 0.589453 0.615059 0.501493
241 1 0.6671 0.592522 0.505225
236 1 0.649151 0.625414 0.51288
1488 2 0.723596 0.684507 0.501005
245 1 0.688736 0.513338 0.510366
8157 2 0.582071 0.514972 0.73406
230 1 0.629048 0.613904 0.51408
247 1 0.688346 0.558822 0.503854
677 2 0.618026 0.74169 0.505135
267 1 0.528744 0.696366 0.502028
210 1 0.569614 0.556598 0.50365
229 1 0.629192 0.545564 0.500386
8273 2 0.952771 0.612996 0.919695
8422 2 0.835212 0.652472 0.682001
243 1 0.669295 0.660505 0.500535
200 1 0.530423 0.62749 0.500525
199 1 0.53075 0.579812 0.500209
8355 2 0.846563 0.978897 0.339163
8399 2 0.541491 0.785476 0.0612014
8381 2 0.600104 0.974991 0.400432
8222 2 0.636759 0.99951 0.196243
6504 2 0.597495 0.821743 0.468329
8301 2 0.561163 0.809651 0.322915
8382 2 0.786825 0.91073 0.0033953
8409 2 0.871932 0.837467 0.0827062
8412 2 0.77565 0.756986 0.106688
8414 2 0.678955 0.918756 0.158379
8420 2 0.922945 0.948237 0.0583671
8425 2 0.562856 0.889193 0.221543
7965 2 0.997972 0.750671 0.120254
8040 2 0.859061 0.806653 0.668214
8398 2 0.539676 0.908509 0.611152
8317 2 0.631465 0.95901 0.957767
8034 2 0.552639 0.809264 0.636458
8246 2 0.941856 0.888158 0.625872
8370 2 0.776647 0.953665 0.70228
8395 2 0.880197 0.923862 0.537993
