ITEM: TIMESTEP
150000
ITEM: NUMBER OF ATOMS
921
ITEM: BOX BOUNDS pp pp pp
-3.0000000000000000e+01 3.0000000000000000e+01
-3.0000000000000000e+01 3.0000000000000000e+01
-1.5000000000000000e+01 1.5000000000000000e+01
ITEM: ATOMS id type xs ys zs
893 2 0.34699 0.247044 0.282721
6590 2 0.213318 0.0485202 0.190683
6396 2 0.417388 0.0602417 0.0504533
6456 2 0.122872 0.0396236 0.0308507
6349 2 0.473527 0.13634 0.247464
866 2 0.470206 0.2447 0.225155
5883 2 0.453147 0.220467 0.0617875
6539 2 0.0505004 0.184928 0.281214
6560 2 0.205562 0.050692 0.415493
6515 2 0.231286 0.171717 0.160131
6524 2 0.380596 0.158149 0.0860323
6606 2 0.29066 0.0584992 0.0784675
6612 2 0.0800584 0.17816 0.00886905
6567 2 0.498589 0.0678071 0.172505
6269 2 0.188261 0.249662 0.0539736
6525 2 0.490561 0.0957128 0.771648
6370 2 0.403658 0.061282 0.799762
6529 2 0.0878219 0.135136 0.557416
6462 2 0.304384 0.110867 0.677665
6542 2 0.133382 0.222002 0.782545
6234 2 0.312006 0.214169 0.502228
5502 2 0.411487 0.245172 0.511162
6481 2 0.135441 0.0669393 0.538393
6365 2 0.368889 0.101344 0.925368
6573 2 0.157889 0.106816 0.814647
6384 2 0.405661 0.147079 0.749662
6581 2 0.233258 0.0715922 0.614732
6580 2 0.206052 0.16585 0.865774
6511 2 0.393399 0.127427 0.51003
9 1 0.341756 0.300783 0.293812
6 1 0.320582 0.310802 0.301207
4 1 0.314334 0.328355 0.273132
7 1 0.329373 0.336828 0.242009
15 1 0.373907 0.292837 0.252109
12 1 0.353639 0.304597 0.25475
10 1 0.350257 0.326315 0.237231
13 1 0.37062 0.337236 0.228884
21 1 0.412031 0.293503 0.25013
18 1 0.392414 0.302776 0.23357
17 1 0.391328 0.326187 0.224515
20 1 0.411515 0.338718 0.233569
24 1 0.431302 0.304983 0.261677
23 1 0.430204 0.328303 0.25496
8 1 0.328876 0.360329 0.239265
5 1 0.310662 0.372114 0.258333
66 1 0.312736 0.394417 0.270315
71 1 0.33055 0.406469 0.252987
14 1 0.369838 0.359556 0.242241
11 1 0.349829 0.371919 0.237866
76 1 0.350713 0.394472 0.250148
81 1 0.369603 0.405781 0.23846
19 1 0.410575 0.36096 0.248193
16 1 0.38967 0.371177 0.25296
90 1 0.389522 0.395127 0.24847
91 1 0.409047 0.406838 0.239713
22 1 0.430408 0.37355 0.246398
98 1 0.429378 0.396687 0.250452
27 1 0.451692 0.293165 0.263655
25 1 0.450212 0.339546 0.252168
31 1 0.490839 0.294503 0.256884
30 1 0.470034 0.303908 0.24495
29 1 0.469568 0.327686 0.240561
32 1 0.490502 0.33927 0.243116
26 1 0.450567 0.362578 0.25095
101 1 0.449868 0.407822 0.249482
33 1 0.48977 0.362567 0.250192
28 1 0.470139 0.373981 0.239755
106 1 0.46994 0.3968 0.234779
111 1 0.490214 0.408094 0.238449
75 1 0.329265 0.430396 0.248472
68 1 0.312317 0.442752 0.268795
70 1 0.311871 0.465733 0.270097
73 1 0.330834 0.477245 0.255627
82 1 0.369235 0.429144 0.236447
78 1 0.349878 0.441536 0.241002
79 1 0.350089 0.46497 0.252083
85 1 0.369704 0.476916 0.24201
92 1 0.409269 0.430293 0.235861
87 1 0.388824 0.441505 0.24591
88 1 0.389394 0.465305 0.244333
95 1 0.409702 0.476868 0.254616
97 1 0.429756 0.442237 0.238334
99 1 0.430058 0.465411 0.248506
114 1 0.489869 0.477428 0.238022
2 2 0.273258 0.415559 0.20738
3 2 0.391688 0.376058 0.146313
102 1 0.449612 0.431489 0.251714
105 1 0.449887 0.477575 0.239461
112 1 0.489334 0.431385 0.249208
108 1 0.469251 0.443084 0.240905
109 1 0.469627 0.465969 0.234841
611 2 0.327842 0.393591 0.144351
990 2 0.361188 0.310866 0.132665
602 2 0.472638 0.326763 0.349923
526 2 0.474748 0.394909 0.341789
1591 2 0.377654 0.448875 0.136259
576 2 0.279612 0.342193 0.182337
524 2 0.435917 0.301998 0.153361
921 2 0.473299 0.468082 0.343801
2914 2 0.419602 0.307703 0.0115852
553 2 0.391103 0.32436 0.335657
906 2 0.354772 0.426835 0.343751
850 2 0.447281 0.423707 0.144888
698 2 0.450541 0.358939 0.142625
5261 2 0.230661 0.435767 0.0466586
724 2 0.311532 0.284132 0.199951
5082 2 0.3058 0.296683 0.0187778
825 2 0.279364 0.279631 0.320223
3306 2 0.458613 0.463204 0.022841
897 2 0.417062 0.437544 0.344833
1913 2 0.461507 0.432712 0.486645
531 2 0.376284 0.490681 0.3495
981 2 0.311154 0.460983 0.157808
999 2 0.342952 0.357497 0.345052
966 2 0.304505 0.489566 0.36999
6272 2 0.104017 0.319773 0.275986
1179 2 0.268127 0.348792 0.310351
1248 2 0.419058 0.378714 0.352488
2360 2 0.276235 0.418937 0.336067
1041 2 0.263416 0.489243 0.248359
5359 2 0.197334 0.452059 0.35052
2397 2 0.341847 0.279244 0.40613
1088 2 0.433199 0.329951 0.478561
5456 2 0.281916 0.336084 0.474784
6428 2 0.206578 0.356034 0.235446
782 2 0.423049 0.256613 0.326037
821 2 0.422496 0.496952 0.153325
6283 2 0.173356 0.480406 0.118116
6323 2 0.00744575 0.423933 0.380254
1842 2 0.398258 0.25149 0.194277
115 1 0.490433 0.499688 0.253031
269 1 0.332844 0.317952 0.728925
266 1 0.31312 0.329548 0.721417
265 1 0.311177 0.350985 0.741911
267 1 0.330393 0.361296 0.757383
274 1 0.370918 0.315459 0.75044
271 1 0.34987 0.325879 0.7546
270 1 0.349859 0.348918 0.766354
272 1 0.369464 0.361889 0.764838
279 1 0.410587 0.316889 0.752916
276 1 0.39063 0.327491 0.758691
275 1 0.38955 0.351542 0.750399
278 1 0.409882 0.363298 0.749259
281 1 0.430869 0.32714 0.755185
280 1 0.429536 0.350834 0.75659
268 1 0.330993 0.384138 0.745512
317 1 0.311613 0.396003 0.740564
318 1 0.31213 0.418351 0.753035
273 1 0.369496 0.384432 0.755646
326 1 0.350165 0.396496 0.752463
327 1 0.350284 0.419159 0.768853
277 1 0.410279 0.385669 0.757937
338 1 0.38924 0.395931 0.761498
339 1 0.388277 0.419786 0.75035
344 1 0.430338 0.39817 0.753513
346 1 0.429575 0.420977 0.745039
284 1 0.449826 0.316971 0.73684
282 1 0.44899 0.363067 0.742211
287 1 0.491347 0.31773 0.744016
286 1 0.470964 0.328458 0.733294
285 1 0.469619 0.351326 0.746216
288 1 0.490106 0.36206 0.743577
283 1 0.449495 0.386943 0.738147
289 1 0.490826 0.385653 0.739307
353 1 0.470177 0.397891 0.735446
354 1 0.469201 0.419445 0.75429
322 1 0.329731 0.43044 0.772582
331 1 0.370739 0.431494 0.765315
340 1 0.408767 0.432429 0.744203
325 1 0.329278 0.453635 0.766285
319 1 0.312202 0.463239 0.741793
321 1 0.311757 0.48563 0.730936
332 1 0.370184 0.45426 0.754021
328 1 0.3488 0.464912 0.754305
330 1 0.349336 0.488776 0.756926
341 1 0.40974 0.455068 0.757008
335 1 0.389877 0.467109 0.759476
337 1 0.389331 0.48968 0.750944
345 1 0.430514 0.466637 0.755076
348 1 0.429506 0.489725 0.753744
349 1 0.450022 0.432062 0.751058
358 1 0.489833 0.43233 0.755886
350 1 0.449482 0.455018 0.739991
359 1 0.490256 0.455647 0.750152
355 1 0.469881 0.466095 0.740936
357 1 0.469655 0.488977 0.749205
264 2 0.402192 0.399405 0.654819
601 2 0.469671 0.38717 0.842294
604 2 0.419966 0.338171 0.649916
608 2 0.444608 0.268289 0.784941
1276 2 0.46451 0.323143 0.845294
723 2 0.340145 0.264142 0.760542
1605 2 0.311638 0.495496 0.843266
733 2 0.399611 0.359093 0.858593
1144 2 0.465396 0.459168 0.848574
677 2 0.354475 0.355363 0.658588
1343 2 0.38791 0.47107 0.501974
1607 2 0.29432 0.373717 0.643279
849 2 0.268496 0.440885 0.70635
787 2 0.418501 0.465229 0.649416
679 2 0.387362 0.401728 0.984798
1098 2 0.346704 0.431867 0.663364
854 2 0.383135 0.292023 0.848048
829 2 0.414199 0.421301 0.85096
983 2 0.266417 0.374182 0.787354
1182 2 0.336064 0.386617 0.856159
960 2 0.471857 0.431426 0.645598
876 2 0.397621 0.275352 0.68723
1372 2 0.28317 0.44087 0.832681
1229 2 0.473535 0.368668 0.636251
1031 2 0.360961 0.456003 0.864572
3287 2 0.323446 0.28978 0.628804
6559 2 0.13362 0.276288 0.890472
2198 2 0.373518 0.393691 0.503666
5062 2 0.286445 0.393553 0.99147
1716 2 0.46397 0.279619 0.660551
748 2 0.361838 0.489737 0.651299
1746 2 0.311501 0.322129 0.838921
3384 2 0.268325 0.300012 0.719483
6591 2 0.103221 0.414038 0.83459
5792 2 0.289793 0.441966 0.517659
642 2 0.483582 0.491778 0.640361
6438 2 0.176568 0.282692 0.678696
6397 2 0.0541463 0.430427 0.555835
6253 2 0.205789 0.378252 0.650025
5588 2 0.313666 0.480319 0.985684
6441 2 0.24079 0.26701 0.855222
6104 2 0.220664 0.494106 0.634987
6617 2 0.173288 0.49356 0.834898
316 2 0.410363 0.499982 0.85149
69 1 0.311607 0.512178 0.260586
67 1 0.311229 0.535039 0.25353
74 1 0.330309 0.546665 0.242799
80 1 0.352052 0.512269 0.256184
77 1 0.351286 0.535933 0.250066
83 1 0.370244 0.546551 0.229917
89 1 0.390128 0.51225 0.248696
86 1 0.390894 0.534479 0.231561
93 1 0.411574 0.545675 0.232317
100 1 0.429523 0.512053 0.257472
96 1 0.430238 0.534103 0.242258
175 1 0.330288 0.569913 0.250363
183 1 0.369545 0.570372 0.230448
189 1 0.411837 0.569036 0.235012
103 1 0.450314 0.545371 0.243811
110 1 0.470223 0.511091 0.246755
107 1 0.470198 0.534241 0.253126
113 1 0.489341 0.545984 0.238728
198 1 0.449474 0.567345 0.262962
208 1 0.489687 0.568104 0.25458
171 1 0.310253 0.58206 0.243717
170 1 0.312358 0.604439 0.246396
174 1 0.33079 0.616784 0.25601
179 1 0.350619 0.581711 0.247599
178 1 0.350509 0.604681 0.245462
182 1 0.371059 0.614969 0.247508
186 1 0.390725 0.581347 0.234551
185 1 0.390155 0.602771 0.25613
190 1 0.409843 0.614136 0.270266
194 1 0.429583 0.580114 0.25753
193 1 0.429846 0.603735 0.258271
173 1 0.330207 0.640085 0.261419
169 1 0.312295 0.651868 0.244449
172 1 0.313181 0.672479 0.222244
176 1 0.334625 0.68269 0.219465
181 1 0.370947 0.638273 0.261054
177 1 0.351177 0.651244 0.259454
180 1 0.352819 0.672598 0.239762
184 1 0.373278 0.678216 0.218394
191 1 0.410325 0.638153 0.26971
187 1 0.390882 0.649938 0.259444
188 1 0.392131 0.666688 0.227818
192 1 0.411064 0.680545 0.230226
195 1 0.430558 0.648291 0.258941
196 1 0.430066 0.671532 0.252092
199 1 0.450343 0.61515 0.259857
203 1 0.469866 0.579626 0.26521
201 1 0.47023 0.603392 0.261901
207 1 0.489297 0.614931 0.250654
197 1 0.45052 0.637582 0.270471
200 1 0.450471 0.681913 0.247676
206 1 0.489722 0.638002 0.261653
202 1 0.469963 0.650237 0.271767
204 1 0.470082 0.672879 0.262676
205 1 0.489904 0.683636 0.251793
168 2 0.460104 0.582345 0.160414
167 2 0.410858 0.624798 0.162667
257 2 0.390339 0.558685 0.330667
528 2 0.385438 0.688168 0.332022
828 2 0.346583 0.639201 0.152927
1238 2 0.263477 0.688902 0.259063
545 2 0.282769 0.629155 0.321391
791 2 0.361828 0.615179 0.354189
1010 2 0.332804 0.551408 0.353865
693 2 0.467123 0.721742 0.318177
696 2 0.471458 0.64724 0.16152
6423 2 0.213367 0.604657 0.332229
84 1 0.370524 0.500176 0.242847
695 2 0.452215 0.599003 0.36383
1406 2 0.338391 0.579709 0.142168
839 2 0.280114 0.549919 0.167935
72 1 0.331578 0.500572 0.262579
1263 2 0.447912 0.531512 0.351602
1576 2 0.267569 0.560857 0.290554
894 2 0.437288 0.661612 0.366884
1188 2 0.321147 0.686436 0.333607
957 2 0.363449 0.728441 0.232358
104 1 0.450209 0.500069 0.25344
1083 2 0.431219 0.731081 0.213986
1127 2 0.399303 0.555131 0.124658
2117 2 0.388569 0.63775 0.493648
1241 2 0.400222 0.68633 0.117444
3712 2 0.424209 0.619712 0.0188663
1788 2 0.274291 0.625964 0.183084
1630 2 0.489422 0.509272 0.144067
678 2 0.341877 0.514311 0.14731
706 2 0.380639 0.554625 0.490744
6545 2 0.267661 0.680922 0.00880094
2340 2 0.304388 0.720279 0.156783
1891 2 0.459584 0.512392 0.49562
5051 2 0.288583 0.559107 0.489326
6280 2 0.262839 0.598824 0.0146484
4832 2 0.311397 0.662058 0.490268
6561 2 0.121668 0.666513 0.119555
94 1 0.409354 0.500936 0.258108
1061 2 0.388687 0.505917 0.000460274
5614 2 0.42765 0.732123 0.487395
6611 2 0.0206949 0.518695 0.118167
315 2 0.297099 0.572273 0.830191
457 1 0.489722 0.6994 0.720315
410 2 0.356962 0.555234 0.644804
324 1 0.328139 0.523544 0.748325
320 1 0.309629 0.536916 0.737161
415 1 0.312635 0.559049 0.727331
420 1 0.33064 0.571923 0.743531
334 1 0.369727 0.523887 0.747615
329 1 0.348886 0.535359 0.746426
425 1 0.350118 0.559009 0.753437
430 1 0.370614 0.570589 0.748733
343 1 0.409507 0.523679 0.751754
336 1 0.389972 0.535577 0.752234
432 1 0.389767 0.558342 0.739933
438 1 0.4098 0.570582 0.735743
347 1 0.429245 0.535709 0.753372
443 1 0.429647 0.558284 0.741818
6585 2 0.00438555 0.582812 0.56914
411 2 0.460226 0.579295 0.654218
352 1 0.449242 0.523674 0.743111
449 1 0.449441 0.568583 0.759437
360 1 0.49008 0.523853 0.740531
356 1 0.469772 0.535084 0.738634
456 1 0.469591 0.557398 0.755422
461 1 0.489387 0.569468 0.749382
419 1 0.330705 0.595095 0.745818
414 1 0.311226 0.606943 0.745835
413 1 0.31049 0.629738 0.743697
418 1 0.331168 0.640155 0.749173
429 1 0.370961 0.593195 0.735992
424 1 0.350903 0.605409 0.736297
423 1 0.35018 0.628959 0.732848
428 1 0.370223 0.64008 0.734938
437 1 0.410505 0.593884 0.739037
434 1 0.390649 0.604837 0.743596
433 1 0.390388 0.628161 0.741108
439 1 0.409229 0.638091 0.762944
444 1 0.430734 0.604171 0.746308
442 1 0.430209 0.627328 0.757064
417 1 0.329651 0.663004 0.750029
412 1 0.310048 0.675038 0.757386
416 1 0.310505 0.697459 0.747621
421 1 0.330789 0.708014 0.742191
427 1 0.370425 0.662909 0.75085
422 1 0.349726 0.673236 0.761493
426 1 0.349657 0.696411 0.754962
431 1 0.3697 0.705404 0.739263
440 1 0.409093 0.660844 0.771393
435 1 0.389942 0.673253 0.761707
436 1 0.390532 0.69449 0.743943
441 1 0.410146 0.70487 0.737729
445 1 0.429562 0.673021 0.771201
446 1 0.429896 0.695282 0.752841
448 1 0.449293 0.592112 0.763568
450 1 0.449756 0.638382 0.773151
460 1 0.489357 0.592489 0.748493
454 1 0.468912 0.60377 0.7565
452 1 0.469351 0.626508 0.772737
459 1 0.489132 0.638079 0.771443
447 1 0.449726 0.661399 0.773383
451 1 0.448708 0.701066 0.725998
458 1 0.488922 0.66017 0.75952
453 1 0.469508 0.671815 0.760419
455 1 0.46859 0.689805 0.729163
1646 2 0.258249 0.704384 0.771107
250 2 0.413569 0.573852 0.842286
249 2 0.359984 0.62154 0.839952
1709 2 0.485406 0.66963 0.510217
2578 2 0.467849 0.684765 0.984312
512 2 0.414022 0.664689 0.663625
3251 2 0.30299 0.739104 0.671152
920 2 0.470855 0.523407 0.845735
534 2 0.280235 0.643533 0.829339
851 2 0.397881 0.602516 0.635775
614 2 0.466359 0.639442 0.667535
1100 2 0.425617 0.633683 0.869503
887 2 0.397351 0.707389 0.848618
1026 2 0.358078 0.542284 0.854952
685 2 0.347324 0.673789 0.649562
806 2 0.265302 0.511036 0.765916
1937 2 0.468097 0.546079 0.997745
796 2 0.324703 0.694997 0.857153
914 2 0.422436 0.525401 0.646366
885 2 0.264841 0.581233 0.71117
333 1 0.369644 0.501033 0.760048
4651 2 0.359195 0.581247 0.98207
631 2 0.383643 0.734708 0.648982
777 2 0.470108 0.710928 0.836018
1068 2 0.481105 0.585502 0.855208
1286 2 0.325208 0.608042 0.63868
1304 2 0.275035 0.655429 0.676911
1557 2 0.46839 0.730257 0.639537
6339 2 0.153414 0.572105 0.842449
1917 2 0.302824 0.514104 0.63403
6597 2 0.101427 0.510032 0.71542
6408 2 0.213061 0.603895 0.563853
361 1 0.490161 0.50061 0.749676
6197 2 0.175281 0.681435 0.790997
6472 2 0.0887786 0.678357 0.518002
351 1 0.449697 0.500618 0.744443
6518 2 0.129444 0.59747 0.689371
323 1 0.32994 0.500109 0.739005
342 1 0.409184 0.500733 0.742837
6566 2 0.24737 0.771602 0.0644474
6313 2 0.327455 0.761352 0.383834
6555 2 0.27559 0.844144 0.268934
6588 2 0.0419094 0.7624 0.121603
6449 2 0.435629 0.75904 0.0494302
6399 2 0.392586 0.837542 0.233345
6531 2 0.199541 0.897844 0.117564
6543 2 0.0426321 0.930868 0.227599
6546 2 0.111488 0.945095 0.0785344
6584 2 0.0125372 0.916399 0.00258407
6595 2 0.129618 0.786192 0.370935
6600 2 0.309373 0.960193 0.375194
6605 2 0.286019 0.913197 0.116364
6547 2 0.182496 0.833827 0.995011
6084 2 0.289961 0.775113 0.869325
6297 2 0.333149 0.909295 0.687545
6523 2 0.0668794 0.82888 0.917987
6482 2 0.159661 0.77156 0.737014
945 2 0.357178 0.75547 0.777918
1322 2 0.435661 0.752159 0.754096
6537 2 0.459396 0.906188 0.812592
6558 2 0.255727 0.858673 0.794222
6506 2 0.402514 0.816251 0.915683
6353 2 0.249728 0.886509 0.53818
6514 2 0.488565 0.995368 0.935324
6601 2 0.0111892 0.937977 0.531105
6379 2 0.212099 0.958723 0.62741
6596 2 0.392418 0.875326 0.58254
6618 2 0.0219764 0.846641 0.513457
6620 2 0.0284872 0.971167 0.805321
6168 2 0.498918 0.809695 0.820218
6592 2 0.860066 0.22366 0.223656
6429 2 0.583428 0.173456 0.353639
6616 2 0.783097 0.147924 0.102563
5569 2 0.740632 0.192784 0.343521
6594 2 0.790312 0.0354589 0.205713
6430 2 0.521917 0.130858 0.424853
844 2 0.593509 0.249657 0.300744
6368 2 0.70668 0.2046 0.0462892
6582 2 0.958148 0.0478451 0.339075
6575 2 0.675228 0.243673 0.469301
6140 2 0.704277 0.202531 0.836731
6059 2 0.509356 0.18498 0.905148
6480 2 0.989961 0.214529 0.551819
6569 2 0.936334 0.156679 0.716919
6551 2 0.56102 0.106678 0.954288
6107 2 0.525834 0.0190942 0.589016
6615 2 0.634532 0.065955 0.608661
6599 2 0.970656 0.0658927 0.891599
6608 2 0.838381 0.138209 0.863211
6609 2 0.738562 0.112884 0.871566
39 1 0.531504 0.295364 0.266715
36 1 0.510541 0.305938 0.267465
35 1 0.510015 0.328769 0.256462
38 1 0.52952 0.338409 0.23868
42 1 0.55144 0.305834 0.26036
41 1 0.549989 0.327345 0.242326
37 1 0.529332 0.36269 0.243001
34 1 0.509937 0.373962 0.251799
120 1 0.510568 0.397392 0.248644
125 1 0.53043 0.408097 0.235041
40 1 0.549515 0.373952 0.252595
130 1 0.550634 0.39648 0.239823
43 1 0.571201 0.293646 0.25579
45 1 0.569566 0.339047 0.249359
51 1 0.611769 0.294456 0.254102
48 1 0.591922 0.304163 0.244579
46 1 0.590542 0.327857 0.24538
50 1 0.609441 0.339066 0.263269
55 1 0.64989 0.294259 0.26538
52 1 0.630065 0.304498 0.272177
54 1 0.629541 0.32822 0.273071
57 1 0.64972 0.339485 0.266186
61 1 0.683599 0.29313 0.231249
58 1 0.670084 0.304532 0.259998
60 1 0.670367 0.327658 0.260868
63 1 0.686631 0.338592 0.233348
44 1 0.569718 0.362009 0.260265
135 1 0.57002 0.407604 0.251757
49 1 0.61017 0.362088 0.255575
47 1 0.589824 0.373026 0.251072
140 1 0.590414 0.396075 0.250216
145 1 0.610275 0.408383 0.258733
56 1 0.648196 0.361891 0.248304
53 1 0.63008 0.373737 0.263558
146 1 0.630306 0.397139 0.264201
155 1 0.650019 0.409311 0.252542
62 1 0.68634 0.360954 0.225299
59 1 0.66664 0.374001 0.230632
160 1 0.667238 0.397711 0.232321
163 1 0.687591 0.408261 0.23462
124 1 0.529908 0.43179 0.235508
119 1 0.510315 0.443 0.250687
117 1 0.509909 0.466138 0.246626
121 1 0.529494 0.478024 0.233992
128 1 0.549375 0.443235 0.248229
127 1 0.549609 0.466204 0.235275
1 2 0.624874 0.397066 0.155138
134 1 0.569719 0.431106 0.253608
131 1 0.569134 0.476978 0.251769
144 1 0.610613 0.431253 0.247436
138 1 0.589631 0.442394 0.241294
136 1 0.5899 0.466352 0.245696
141 1 0.609616 0.477272 0.25768
151 1 0.648374 0.431613 0.238186
149 1 0.63025 0.442776 0.254863
148 1 0.629726 0.465512 0.260197
153 1 0.650081 0.477414 0.25119
164 1 0.687757 0.431556 0.233203
158 1 0.667945 0.44323 0.227824
157 1 0.66846 0.46645 0.232523
161 1 0.688766 0.476802 0.247115
256 2 0.567295 0.429528 0.145181
254 2 0.594556 0.312108 0.355796
255 2 0.537902 0.412884 0.345497
1469 2 0.552455 0.389422 0.496404
162 1 0.687379 0.49831 0.265294
726 2 0.538565 0.478662 0.342359
563 2 0.636398 0.328235 0.162548
649 2 0.569147 0.364041 0.151134
550 2 0.705798 0.459972 0.144998
617 2 0.66572 0.445269 0.341988
766 2 0.676075 0.376886 0.335532
6535 2 0.786863 0.329117 0.460331
713 2 0.719768 0.331089 0.150698
1280 2 0.687969 0.396536 0.12448
1160 2 0.599324 0.445324 0.350763
1356 2 0.59861 0.381373 0.35583
6549 2 0.891143 0.350817 0.363533
64 2 0.502455 0.447478 0.144499
6307 2 0.726673 0.421323 0.428867
902 2 0.73317 0.452288 0.278771
1017 2 0.73289 0.3824 0.247563
1590 2 0.61773 0.356645 0.0186266
1565 2 0.536758 0.345807 0.347373
1012 2 0.723713 0.312407 0.303757
736 2 0.509655 0.383109 0.145633
745 2 0.625114 0.468724 0.1526
5951 2 0.703515 0.348134 0.491867
2590 2 0.57155 0.303827 0.14304
2431 2 0.72712 0.25975 0.208402
874 2 0.641461 0.259325 0.185831
2540 2 0.510029 0.258133 0.340606
1546 2 0.656589 0.316912 0.373341
6534 2 0.864306 0.424375 0.483382
1201 2 0.508446 0.306957 0.156515
2942 2 0.776584 0.40184 0.0719344
6215 2 0.590305 0.271205 0.48761
6461 2 0.79233 0.301108 0.0763262
6065 2 0.612776 0.254461 0.0174269
559 2 0.676245 0.252389 0.31231
6466 2 0.879961 0.418873 0.0574439
6487 2 0.870317 0.32602 0.17682
6403 2 0.99927 0.403448 0.193836
731 2 0.54272 0.250599 0.214022
3489 2 0.641237 0.4088 0.491962
6604 2 0.814131 0.356365 0.289951
294 1 0.530345 0.318877 0.772572
291 1 0.509505 0.328768 0.765317
290 1 0.508659 0.352414 0.764317
293 1 0.529583 0.363783 0.770992
296 1 0.550529 0.329261 0.775136
295 1 0.550407 0.351526 0.770906
292 1 0.529701 0.385899 0.754823
366 1 0.509741 0.397319 0.753258
365 1 0.509514 0.420275 0.749217
375 1 0.549884 0.396053 0.762566
374 1 0.550223 0.41952 0.762562
297 1 0.56865 0.317398 0.760511
299 1 0.568749 0.361101 0.747165
304 1 0.608779 0.316731 0.763013
301 1 0.588665 0.326849 0.747924
300 1 0.588297 0.349403 0.734404
303 1 0.609352 0.361633 0.732631
307 1 0.64615 0.319916 0.787986
305 1 0.628629 0.328948 0.762448
306 1 0.629737 0.350105 0.742953
309 1 0.649454 0.362731 0.754328
312 1 0.683681 0.312917 0.783991
310 1 0.667657 0.329396 0.787015
311 1 0.669421 0.350214 0.761663
314 1 0.688509 0.363402 0.769514
298 1 0.569122 0.384526 0.747359
302 1 0.610193 0.384898 0.737785
384 1 0.590109 0.395274 0.748589
383 1 0.58958 0.4187 0.744141
308 1 0.650566 0.385596 0.742322
393 1 0.630178 0.396493 0.750331
389 1 0.629681 0.419334 0.760964
313 1 0.68902 0.385978 0.75852
402 1 0.670261 0.397812 0.745469
401 1 0.670545 0.419626 0.760345
370 1 0.529772 0.432691 0.759343
369 1 0.530741 0.453031 0.736673
364 1 0.510337 0.464958 0.736091
362 1 0.510154 0.488286 0.742396
373 1 0.550509 0.46451 0.736598
372 1 0.5507 0.488099 0.735027
379 1 0.569159 0.430337 0.746606
388 1 0.609957 0.43077 0.749065
397 1 0.650786 0.430666 0.763433
405 1 0.688265 0.432143 0.743962
378 1 0.569249 0.45355 0.753379
387 1 0.60963 0.454025 0.761796
382 1 0.589116 0.465323 0.761602
380 1 0.589683 0.487481 0.744437
394 1 0.649709 0.454077 0.753213
392 1 0.629044 0.465905 0.75499
390 1 0.629141 0.488237 0.763426
406 1 0.687928 0.454919 0.741749
400 1 0.669194 0.466915 0.75462
398 1 0.669426 0.489943 0.757839
65 2 0.590934 0.426382 0.850147
408 2 0.727686 0.415852 0.808354
409 2 0.589135 0.457846 0.651402
620 2 0.592082 0.390637 0.63817
858 2 0.533955 0.351911 0.664581
3204 2 0.648388 0.267025 0.805228
591 2 0.724441 0.34265 0.843501
1207 2 0.523639 0.40986 0.861279
616 2 0.535566 0.474101 0.841146
627 2 0.724858 0.333814 0.715865
668 2 0.649976 0.426013 0.652532
1332 2 0.57384 0.292825 0.855724
658 2 0.533805 0.417488 0.653402
2461 2 0.619742 0.443619 0.991017
730 2 0.59851 0.358427 0.839398
734 2 0.732858 0.478659 0.700681
789 2 0.712854 0.484553 0.830629
700 2 0.533866 0.288355 0.684326
386 1 0.610177 0.499406 0.745851
1099 2 0.652959 0.388603 0.855172
3849 2 0.656217 0.321005 0.903326
838 2 0.590183 0.269372 0.732292
1634 2 0.668083 0.363847 0.64909
1058 2 0.651813 0.466126 0.861655
1335 2 0.649903 0.487941 0.656902
1145 2 0.721783 0.407488 0.671826
4716 2 0.724336 0.275872 0.798682
722 2 0.60097 0.328811 0.636916
1035 2 0.532826 0.472352 0.98268
6541 2 0.803899 0.438158 0.855574
1425 2 0.523552 0.345918 0.87524
1940 2 0.65654 0.306268 0.683419
3635 2 0.504085 0.297245 0.521653
1198 2 0.511647 0.272418 0.801308
6322 2 0.828164 0.348968 0.640643
997 2 0.530881 0.488605 0.503647
2525 2 0.692016 0.495503 0.534626
5674 2 0.505385 0.291943 0.979422
721 2 0.710642 0.422887 0.954216
5790 2 0.816805 0.314573 0.923491
6324 2 0.821273 0.257364 0.500066
6483 2 0.975107 0.257589 0.888648
750 2 0.615266 0.475278 0.508672
6501 2 0.959657 0.42265 0.818403
2019 2 0.511529 0.393087 0.999129
376 1 0.569625 0.499274 0.751214
6607 2 0.771697 0.465752 0.576609
116 1 0.51047 0.512122 0.250648
118 1 0.509803 0.535216 0.234607
123 1 0.529994 0.546766 0.2353
126 1 0.549789 0.511843 0.254729
129 1 0.549868 0.535381 0.247819
213 1 0.529804 0.569539 0.24483
133 1 0.570495 0.546429 0.240473
137 1 0.589572 0.511799 0.249871
139 1 0.590265 0.534268 0.245312
143 1 0.609027 0.544994 0.26202
147 1 0.629833 0.512141 0.242094
150 1 0.629513 0.533936 0.258571
152 1 0.649095 0.546013 0.254651
156 1 0.667603 0.51091 0.264973
159 1 0.667991 0.534261 0.269971
165 1 0.688474 0.545748 0.268007
222 1 0.570206 0.569457 0.246402
231 1 0.60918 0.568598 0.262124
238 1 0.650056 0.56899 0.260734
246 1 0.68944 0.569135 0.263111
209 1 0.50869 0.580089 0.241648
210 1 0.509257 0.603034 0.246222
214 1 0.528868 0.614876 0.234935
217 1 0.550573 0.580141 0.235471
218 1 0.549577 0.603441 0.232416
215 1 0.529181 0.63691 0.253525
211 1 0.509293 0.649133 0.248105
212 1 0.51001 0.671912 0.244837
216 1 0.530493 0.683254 0.255823
219 1 0.54998 0.648834 0.259242
220 1 0.549902 0.672203 0.261228
223 1 0.569682 0.614863 0.239014
226 1 0.589967 0.580915 0.246629
227 1 0.588532 0.603514 0.253887
229 1 0.60931 0.615311 0.253584
234 1 0.629909 0.579681 0.252832
235 1 0.628996 0.603573 0.24845
239 1 0.648482 0.616078 0.259144
241 1 0.6697 0.58165 0.257125
243 1 0.668799 0.604917 0.26571
247 1 0.688396 0.616334 0.256019
224 1 0.56999 0.637213 0.251256
221 1 0.569489 0.683906 0.254258
230 1 0.610484 0.638173 0.24381
225 1 0.589629 0.649402 0.239308
228 1 0.589579 0.673188 0.241036
232 1 0.60967 0.684657 0.252572
240 1 0.648382 0.638114 0.242782
236 1 0.629474 0.649044 0.258298
233 1 0.628412 0.672237 0.264516
237 1 0.649311 0.682731 0.263214
248 1 0.688092 0.637614 0.241142
244 1 0.668044 0.649723 0.234264
242 1 0.668574 0.672842 0.245169
245 1 0.689844 0.681517 0.252908
258 2 0.613871 0.601095 0.35505
251 2 0.548452 0.727483 0.304703
259 2 0.593182 0.606501 0.145524
619 2 0.676888 0.522667 0.159927
618 2 0.667117 0.645352 0.347787
690 2 0.512518 0.544461 0.341681
2503 2 0.726181 0.727176 0.219856
1307 2 0.655072 0.562151 0.368676
593 2 0.574766 0.541899 0.349497
1028 2 0.657385 0.725986 0.206532
1000 2 0.512135 0.718772 0.183356
650 2 0.591012 0.660836 0.350986
973 2 0.735167 0.52003 0.228635
1346 2 0.615161 0.550002 0.15712
936 2 0.737636 0.654821 0.268201
738 2 0.722501 0.593539 0.332818
676 2 0.511881 0.65795 0.358593
1065 2 0.631314 0.505053 0.350193
1648 2 0.725137 0.591659 0.192048
1173 2 0.524596 0.573997 0.13611
995 2 0.616279 0.725143 0.314327
142 1 0.609803 0.500349 0.245366
1123 2 0.665228 0.598165 0.152583
1319 2 0.544523 0.653252 0.152379
1202 2 0.582732 0.723154 0.186695
6191 2 0.75307 0.641182 0.45062
1135 2 0.701296 0.664651 0.142546
1137 2 0.541477 0.602518 0.3391
1411 2 0.712337 0.521217 0.353879
1981 2 0.684879 0.715329 0.339594
154 1 0.649641 0.50038 0.244011
6058 2 0.752599 0.502831 0.00271231
5788 2 0.751143 0.677388 0.0256628
1803 2 0.627784 0.665708 0.150177
6488 2 0.859281 0.522429 0.0327398
5534 2 0.538251 0.716108 0.014905
779 2 0.566395 0.547717 0.00620754
6452 2 0.810996 0.654458 0.161949
926 2 0.634821 0.716083 0.489812
989 2 0.520533 0.586628 0.493913
954 2 0.56352 0.507056 0.151007
6500 2 0.938473 0.732582 0.402328
5383 2 0.625794 0.733067 0.0307186
6296 2 0.620255 0.608804 0.0100877
6527 2 0.80805 0.718622 0.457961
122 1 0.530077 0.501144 0.240411
132 1 0.56963 0.500382 0.257982
166 2 0.604469 0.573513 0.845723
367 1 0.530686 0.522209 0.745914
363 1 0.510259 0.534209 0.750651
462 1 0.509319 0.557831 0.754613
467 1 0.529353 0.569505 0.75489
371 1 0.550416 0.535001 0.739612
472 1 0.549001 0.558448 0.743942
407 2 0.545469 0.601877 0.860882
504 1 0.669758 0.69658 0.740766
506 1 0.671912 0.6729 0.751508
507 1 0.681461 0.705096 0.702288
377 1 0.570056 0.523304 0.750578
478 1 0.569828 0.569134 0.753633
385 1 0.610036 0.522794 0.747754
381 1 0.590139 0.534507 0.751182
483 1 0.589349 0.557307 0.742036
489 1 0.608555 0.569682 0.740018
395 1 0.649697 0.52326 0.75286
391 1 0.629198 0.534944 0.756404
494 1 0.628296 0.558507 0.753096
498 1 0.647847 0.56989 0.743849
403 1 0.688051 0.523959 0.725865
399 1 0.667534 0.534725 0.727846
502 1 0.666613 0.55871 0.726132
509 1 0.686949 0.56934 0.726466
468 1 0.529894 0.592841 0.747084
463 1 0.509844 0.603337 0.758508
464 1 0.509362 0.626685 0.765997
469 1 0.529611 0.637236 0.776738
473 1 0.55018 0.604634 0.750071
474 1 0.550161 0.627198 0.762546
470 1 0.529456 0.660971 0.77345
465 1 0.509202 0.672054 0.764419
466 1 0.510101 0.692023 0.740847
471 1 0.530308 0.696902 0.718133
475 1 0.550459 0.670764 0.762699
476 1 0.550458 0.686097 0.728467
479 1 0.569259 0.592501 0.759331
480 1 0.570088 0.63634 0.781153
490 1 0.609426 0.59322 0.744752
484 1 0.58971 0.604039 0.756828
485 1 0.591222 0.625221 0.777906
487 1 0.611252 0.637975 0.776588
499 1 0.649833 0.59197 0.758724
493 1 0.629254 0.603881 0.759142
495 1 0.62984 0.627723 0.759688
500 1 0.651269 0.638164 0.763587
508 1 0.687715 0.591579 0.732695
503 1 0.669875 0.603274 0.750524
505 1 0.667697 0.626081 0.740012
510 1 0.685661 0.637762 0.721888
481 1 0.570324 0.660231 0.778565
477 1 0.570734 0.697911 0.72489
488 1 0.611309 0.661212 0.77811
482 1 0.591152 0.671511 0.770952
486 1 0.590584 0.69272 0.747632
491 1 0.611214 0.703198 0.738337
501 1 0.65315 0.661644 0.770488
496 1 0.631837 0.673947 0.772623
492 1 0.630245 0.696375 0.75902
497 1 0.648249 0.70636 0.739814
511 1 0.688402 0.660714 0.727801
260 2 0.585567 0.645247 0.676124
1060 2 0.567765 0.660778 0.507194
932 2 0.587268 0.648648 0.884721
6593 2 0.92811 0.687874 0.812307
703 2 0.727419 0.550931 0.779947
768 2 0.570094 0.584756 0.651354
6489 2 0.91153 0.527155 0.89696
6314 2 0.796756 0.602993 0.820877
1212 2 0.524968 0.643655 0.668375
778 2 0.6034 0.708427 0.852023
802 2 0.668313 0.691071 0.856843
1729 2 0.553432 0.70904 0.618172
624 2 0.63868 0.666316 0.66247
640 2 0.629448 0.542742 0.646312
971 2 0.702587 0.630484 0.826089
6350 2 0.968279 0.54071 0.737919
1663 2 0.541189 0.538081 0.84716
996 2 0.646245 0.60189 0.650998
934 2 0.517034 0.547785 0.648284
1074 2 0.725652 0.691522 0.766903
993 2 0.671972 0.549527 0.837206
871 2 0.501735 0.653289 0.874847
1881 2 0.734746 0.614694 0.716803
1316 2 0.596537 0.503538 0.851188
1437 2 0.715929 0.55328 0.637737
513 2 0.539877 0.711551 0.828831
2085 2 0.715945 0.674183 0.634194
1715 2 0.69744 0.598492 0.534705
368 1 0.530022 0.50022 0.734514
1475 2 0.647558 0.619556 0.865128
916 2 0.570003 0.515222 0.642885
1627 2 0.603499 0.573983 0.509291
3132 2 0.695946 0.586229 0.974612
842 2 0.514549 0.748629 0.734154
1869 2 0.637216 0.733244 0.648204
396 1 0.64933 0.500488 0.766199
4962 2 0.816903 0.536969 0.661526
404 1 0.688109 0.501862 0.738645
2335 2 0.662442 0.518208 0.969327
1362 2 0.515507 0.60999 0.998968
6619 2 0.835184 0.652468 0.681877
6258 2 0.775907 0.749814 0.901323
6448 2 0.609203 0.902902 0.268836
6509 2 0.577693 0.973593 0.147895
6610 2 0.775596 0.756964 0.106607
6492 2 0.930502 0.827648 0.364014
6603 2 0.541471 0.786033 0.0614622
6427 2 0.871234 0.84072 0.259059
5542 2 0.684822 0.816801 0.166238
6470 2 0.501577 0.861396 0.365024