ITEM: TIMESTEP
150000
ITEM: NUMBER OF ATOMS
1583
ITEM: BOX BOUNDS pp pp pp
-3.0000000000000000e+01 3.0000000000000000e+01
-3.0000000000000000e+01 3.0000000000000000e+01
-1.8000000000000000e+01 1.8000000000000000e+01
ITEM: ATOMS id type xs ys zs
6453 2 0.293247 0.11659 0.0313876
6467 2 0.497873 0.0687684 0.173152
4048 2 0.426053 0.229887 0.273142
2917 2 0.375718 0.213611 0.42855
6362 2 0.245931 0.164393 0.48383
6345 2 0.0877111 0.244787 0.465506
5631 2 0.387066 0.162809 0.166757
6384 2 0.416374 0.173501 0.0284075
6285 2 0.274829 0.103434 0.336575
6414 2 0.0924041 0.0422027 0.48952
6417 2 0.231043 0.172049 0.157122
6452 2 0.0364737 0.130767 0.0440366
6499 2 0.288843 0.213527 0.365001
6463 2 0.181114 0.21716 0.253635
6491 2 0.21331 0.0484795 0.190293
6276 2 0.360858 0.134873 0.507229
6056 2 0.372487 0.21347 0.942463
5765 2 0.482241 0.205291 0.935702
6424 2 0.0854621 0.0356028 0.698787
2021 2 0.446282 0.222186 0.801518
6289 2 0.0082051 0.0908893 0.686948
6214 2 0.453776 0.0761717 0.840936
2912 2 0.371527 0.224404 0.747656
6438 2 0.372672 0.0448461 0.633573
6108 2 0.243783 0.197965 0.63448
6451 2 0.21609 0.0926735 0.668355
6173 2 0.266263 0.0159838 0.761686
6351 2 0.438084 0.173625 0.559298
6431 2 0.356005 0.128164 0.696631
6456 2 0.183517 0.176214 0.936923
6474 2 0.158741 0.108094 0.815514
6511 2 0.287542 0.136847 0.765707
5 1 0.330595 0.295306 0.120869
3 1 0.310222 0.306719 0.120692
2 1 0.311172 0.329817 0.121176
4 1 0.330969 0.340727 0.132319
9 1 0.370423 0.294802 0.110896
7 1 0.351393 0.305622 0.12571
6 1 0.351162 0.328857 0.132068
8 1 0.371309 0.340475 0.126761
13 1 0.411579 0.29673 0.112858
11 1 0.390288 0.306711 0.106362
10 1 0.391423 0.329572 0.117473
12 1 0.410616 0.33958 0.135497
15 1 0.430816 0.305825 0.124823
14 1 0.430261 0.327718 0.138357
48 1 0.331274 0.363956 0.126266
44 1 0.315471 0.37741 0.146078
45 1 0.317583 0.399844 0.150418
49 1 0.336378 0.41121 0.140083
56 1 0.371542 0.363398 0.116038
52 1 0.351163 0.37547 0.116026
53 1 0.352446 0.399052 0.121296
57 1 0.372994 0.41027 0.125687
67 1 0.411952 0.36288 0.131699
62 1 0.392538 0.374611 0.120182
63 1 0.392887 0.397706 0.127813
64 1 0.412976 0.40939 0.122775
68 1 0.432596 0.373141 0.127446
70 1 0.433123 0.396587 0.118776
17 1 0.450056 0.298411 0.107759
16 1 0.450546 0.339663 0.140236
20 1 0.490992 0.298958 0.109037
19 1 0.470261 0.310366 0.107815
18 1 0.470774 0.331547 0.126888
21 1 0.490467 0.342011 0.138271
74 1 0.450969 0.362673 0.145122
72 1 0.452573 0.408593 0.126745
80 1 0.49128 0.364126 0.153171
76 1 0.470349 0.375241 0.152716
77 1 0.470017 0.398179 0.146007
81 1 0.490245 0.409816 0.143441
51 1 0.338114 0.435551 0.139669
46 1 0.319194 0.448553 0.144248
47 1 0.31602 0.46881 0.12756
50 1 0.332164 0.477187 0.103897
58 1 0.372663 0.43158 0.108805
54 1 0.355648 0.445833 0.121179
55 1 0.352758 0.465629 0.101878
59 1 0.372489 0.477123 0.0927011
65 1 0.412649 0.431583 0.108935
60 1 0.39301 0.443337 0.100429
61 1 0.393016 0.466737 0.100103
66 1 0.413596 0.477574 0.101838
69 1 0.432597 0.442665 0.115938
71 1 0.432594 0.466118 0.114659
43 2 0.392988 0.396933 0.0379836
2338 2 0.324437 0.317673 0.218027
1 2 0.361644 0.374521 0.203934
73 1 0.45079 0.431952 0.13358
75 1 0.453524 0.477043 0.11524
82 1 0.490924 0.433291 0.13941
78 1 0.470053 0.444489 0.143021
79 1 0.470873 0.467018 0.133697
83 1 0.49165 0.47788 0.13454
313 1 0.470706 0.46203 0.379529
314 1 0.470947 0.485724 0.38427
253 1 0.338662 0.315527 0.35964
252 1 0.327859 0.327435 0.332252
274 1 0.329871 0.349976 0.329459
279 1 0.34032 0.361626 0.357865
255 1 0.372202 0.317104 0.399313
254 1 0.351916 0.326421 0.385875
283 1 0.352959 0.349334 0.384916
288 1 0.370839 0.36204 0.401704
257 1 0.412462 0.318105 0.410167
256 1 0.39193 0.328546 0.40929
296 1 0.39227 0.351914 0.406644
300 1 0.411699 0.362553 0.394292
258 1 0.432512 0.328156 0.398397
305 1 0.429996 0.350176 0.384524
280 1 0.333534 0.383177 0.368642
275 1 0.319421 0.394666 0.3446
276 1 0.319199 0.417619 0.343007
289 1 0.369851 0.385173 0.39847
284 1 0.349878 0.39647 0.388382
285 1 0.349292 0.420162 0.385884
299 1 0.410044 0.383899 0.379741
294 1 0.390371 0.395725 0.391366
295 1 0.389663 0.419264 0.383024
301 1 0.430014 0.394303 0.372562
303 1 0.429311 0.416891 0.36486
259 1 0.453448 0.320655 0.407292
306 1 0.44867 0.359189 0.366352
261 1 0.491841 0.327392 0.41143
260 1 0.472334 0.329356 0.391314
310 1 0.469865 0.348713 0.36827
315 1 0.489001 0.360927 0.357974
309 1 0.448419 0.38246 0.359252
316 1 0.488088 0.383338 0.345975
311 1 0.468265 0.395185 0.351437
312 1 0.470344 0.417739 0.361487
281 1 0.330891 0.430705 0.370171
290 1 0.369358 0.431612 0.381931
297 1 0.408791 0.429239 0.367288
282 1 0.329768 0.453986 0.365297
277 1 0.313908 0.46455 0.388243
278 1 0.313138 0.487629 0.394348
291 1 0.370079 0.453065 0.36694
286 1 0.349827 0.465244 0.36454
287 1 0.35102 0.488527 0.373045
298 1 0.409718 0.452014 0.367947
292 1 0.390142 0.463889 0.375448
293 1 0.390032 0.487325 0.379337
302 1 0.429837 0.462328 0.373585
304 1 0.430417 0.485913 0.368326
307 1 0.450308 0.428687 0.371019
317 1 0.489055 0.430451 0.350593
308 1 0.450094 0.451736 0.372324
318 1 0.491566 0.450921 0.36998
3706 2 0.233345 0.438408 0.238387
1037 2 0.273351 0.424583 0.12563
2173 2 0.392714 0.307408 0.20245
1835 2 0.356953 0.462304 0.455293
2594 2 0.271651 0.466944 0.447962
1455 2 0.471529 0.439776 0.0498642
1274 2 0.268558 0.352138 0.16744
1011 2 0.429083 0.340084 0.0489834
1088 2 0.467166 0.376895 0.443541
1403 2 0.377559 0.283735 0.322547
1500 2 0.356486 0.49134 0.182756
1191 2 0.479853 0.480554 0.294937
1746 2 0.42389 0.425384 0.455066
1282 2 0.402235 0.488365 0.0088617
2015 2 0.393933 0.25486 0.0664166
1528 2 0.279161 0.364871 0.315092
1597 2 0.419175 0.348178 0.496795
1645 2 0.290512 0.369652 0.0603635
1249 2 0.276937 0.493026 0.174764
1421 2 0.369726 0.403152 0.302965
1487 2 0.299547 0.344746 0.410681
1510 2 0.25955 0.302386 0.085612
5553 2 0.0925516 0.267399 0.149328
1546 2 0.387896 0.346156 0.317308
1554 2 0.327081 0.425703 0.0511293
1906 2 0.35622 0.344402 0.482428
1224 2 0.464963 0.361905 0.269197
2080 2 0.284941 0.487666 0.0593435
1576 2 0.346591 0.337058 0.0420345
1980 2 0.472781 0.305969 0.49867
1785 2 0.305102 0.407409 0.440018
1593 2 0.423893 0.390557 0.209346
2267 2 0.398049 0.447832 0.19096
4945 2 0.230361 0.372491 0.49753
2414 2 0.272379 0.442649 0.345641
1715 2 0.477365 0.374234 0.0630488
1884 2 0.338925 0.277536 0.432625
1017 2 0.425575 0.490236 0.456389
1341 2 0.290667 0.288383 0.338366
1888 2 0.289252 0.262252 0.168273
2004 2 0.46581 0.302165 0.203805
6048 2 0.231634 0.282777 0.499977
2124 2 0.480121 0.424852 0.229354
1382 2 0.472189 0.260022 0.0572153
382 1 0.370883 0.499838 0.377043
409 1 0.491286 0.49818 0.381854
2475 2 0.430699 0.440283 0.282789
2168 2 0.385724 0.486869 0.290325
1357 2 0.483925 0.275207 0.39365
1975 2 0.423178 0.266827 0.402283
6392 2 0.163322 0.393854 0.411161
2742 2 0.315907 0.424007 0.236138
6442 2 0.132191 0.435216 0.081517
1604 2 0.444395 0.312659 0.313289
6093 2 0.11737 0.338688 0.294217
6203 2 0.193344 0.384986 0.0656598
1388 2 0.395851 0.290205 0.491475
4004 2 0.323674 0.262927 0.0537055
400 1 0.451134 0.497418 0.37472
6171 2 0.196398 0.315144 0.243759
1215 2 0.360037 0.25427 0.169887
1922 2 0.32082 0.495251 0.298564
390 1 0.410234 0.49849 0.372861
6322 2 0.0550571 0.271857 0.0179392
372 1 0.332982 0.499714 0.389644
2070 2 0.433086 0.250011 0.150563
506 1 0.332335 0.304654 0.588942
504 1 0.318757 0.30504 0.619361
503 1 0.319049 0.324902 0.639818
505 1 0.330823 0.344221 0.628827
510 1 0.371932 0.313011 0.569694
508 1 0.350062 0.320905 0.583245
507 1 0.349477 0.339763 0.608189
509 1 0.369199 0.349074 0.619502
514 1 0.411464 0.312946 0.575765
512 1 0.390413 0.319568 0.589738
511 1 0.389961 0.339267 0.610949
513 1 0.408799 0.34269 0.633125
516 1 0.43153 0.322081 0.590051
515 1 0.430212 0.336427 0.619484
547 1 0.327557 0.362983 0.651557
543 1 0.309799 0.375849 0.639935
544 1 0.312541 0.3989 0.633312
548 1 0.33022 0.410421 0.648162
555 1 0.368346 0.362904 0.650844
551 1 0.348393 0.374357 0.659254
552 1 0.348838 0.398155 0.661401
556 1 0.369761 0.409335 0.656638
566 1 0.408587 0.362003 0.654953
561 1 0.388549 0.374299 0.652863
562 1 0.389606 0.396792 0.663929
563 1 0.410136 0.408266 0.66474
567 1 0.429671 0.372897 0.662447
569 1 0.430919 0.396788 0.661991
518 1 0.450711 0.310168 0.586693
517 1 0.448926 0.340188 0.642194
521 1 0.488533 0.304915 0.59321
520 1 0.468436 0.311701 0.610331
519 1 0.468691 0.328315 0.638049
522 1 0.489929 0.337953 0.644602
573 1 0.449477 0.360898 0.658782
571 1 0.451026 0.407454 0.649346
579 1 0.490509 0.360707 0.656799
575 1 0.469937 0.372153 0.662317
576 1 0.470974 0.395625 0.651489
580 1 0.490162 0.408332 0.659489
550 1 0.335895 0.430195 0.6284
545 1 0.323056 0.440064 0.599977
546 1 0.32423 0.462019 0.590865
549 1 0.337997 0.476653 0.610683
557 1 0.369224 0.433388 0.659931
553 1 0.350556 0.444553 0.647888
554 1 0.35195 0.467063 0.637887
558 1 0.371569 0.478544 0.640864
564 1 0.409802 0.430691 0.65374
559 1 0.390534 0.444647 0.660704
560 1 0.391028 0.46788 0.652047
565 1 0.411052 0.476602 0.639354
568 1 0.429784 0.441287 0.643676
570 1 0.429241 0.463297 0.629709
806 1 0.452039 0.45214 0.868307
4321 2 0.234113 0.455436 0.982139
812 1 0.471534 0.485269 0.874885
572 1 0.450014 0.430326 0.652332
574 1 0.450539 0.475113 0.626917
581 1 0.490527 0.430041 0.647432
577 1 0.470088 0.44219 0.648729
578 1 0.471003 0.464359 0.633941
582 1 0.489682 0.477153 0.646357
811 1 0.468994 0.46557 0.854188
816 1 0.488404 0.456458 0.83736
753 1 0.330957 0.330539 0.899195
752 1 0.311768 0.339763 0.88467
772 1 0.31151 0.356023 0.858084
777 1 0.329427 0.363395 0.838629
755 1 0.369494 0.334568 0.898268
754 1 0.350638 0.335656 0.877898
781 1 0.349697 0.351705 0.848966
786 1 0.369832 0.362715 0.839512
757 1 0.409678 0.329109 0.895693
756 1 0.389446 0.335114 0.877776
794 1 0.389377 0.35179 0.84966
798 1 0.410666 0.3626 0.842027
758 1 0.430503 0.335868 0.879875
803 1 0.430652 0.355321 0.858429
778 1 0.329762 0.386677 0.830159
773 1 0.312006 0.401516 0.83812
774 1 0.31297 0.424496 0.839208
787 1 0.37089 0.38566 0.831267
782 1 0.350986 0.398382 0.827665
783 1 0.352429 0.420581 0.842821
797 1 0.410538 0.385525 0.83758
792 1 0.390848 0.396589 0.843797
793 1 0.39135 0.419405 0.857335
799 1 0.429936 0.397638 0.836761
801 1 0.430794 0.417618 0.855468
759 1 0.450158 0.333125 0.901469
804 1 0.450486 0.36293 0.842163
761 1 0.490822 0.33586 0.905288
760 1 0.470365 0.342926 0.891167
808 1 0.470567 0.353664 0.855725
813 1 0.490145 0.362867 0.843409
807 1 0.450595 0.385332 0.831056
814 1 0.491068 0.386112 0.834965
809 1 0.471199 0.397734 0.831956
810 1 0.471194 0.420647 0.841168
779 1 0.333927 0.433825 0.836768
788 1 0.372445 0.431745 0.851378
795 1 0.411733 0.42879 0.869959
780 1 0.335944 0.456844 0.845853
775 1 0.317457 0.470917 0.842861
776 1 0.315046 0.490516 0.86218
789 1 0.373991 0.454234 0.863384
784 1 0.352838 0.464593 0.870555
785 1 0.351332 0.485116 0.89194
796 1 0.412627 0.450833 0.883533
790 1 0.393339 0.464577 0.87722
791 1 0.391828 0.485149 0.89829
800 1 0.433449 0.461961 0.885311
802 1 0.431685 0.486162 0.887174
805 1 0.450755 0.431108 0.851444
815 1 0.489861 0.432712 0.832504
502 2 0.301646 0.348477 0.554794
248 2 0.375253 0.443227 0.952924
1335 2 0.366789 0.311655 0.681966
1472 2 0.384817 0.446724 0.569683
1090 2 0.415059 0.389816 0.578706
1095 2 0.40425 0.3804 0.928506
1111 2 0.347534 0.358466 0.74779
1214 2 0.327064 0.419052 0.744578
1424 2 0.45998 0.491867 0.967512
1397 2 0.395469 0.308812 0.974967
6145 2 0.12463 0.266575 0.632146
906 1 0.491631 0.497945 0.878742
1166 2 0.277342 0.374876 0.790585
1168 2 0.354711 0.390738 0.57055
1594 2 0.267984 0.454983 0.848567
1591 2 0.365023 0.283254 0.888392
3619 2 0.300783 0.289806 0.933541
1205 2 0.264627 0.408519 0.671561
1206 2 0.388124 0.418975 0.757546
1232 2 0.443862 0.47775 0.714797
4535 2 0.26493 0.318921 0.849512
2091 2 0.269792 0.341614 0.650573
1328 2 0.424002 0.292615 0.668027
6387 2 0.168629 0.451511 0.618972
2001 2 0.464149 0.34765 0.750148
4356 2 0.3033 0.279738 0.696208
1520 2 0.328959 0.307802 0.807994
1297 2 0.41884 0.464948 0.798087
1486 2 0.347346 0.387507 0.918573
1365 2 0.435706 0.280134 0.899838
1518 2 0.451922 0.410135 0.744848
1953 2 0.368707 0.26496 0.602126
1203 2 0.468932 0.363017 0.571653
1580 2 0.302731 0.462926 0.678142
2320 2 0.275195 0.38425 0.903983
2301 2 0.459537 0.391862 0.921302
2056 2 0.475806 0.303301 0.831091
6427 2 0.0840969 0.477771 0.742247
869 1 0.330533 0.498303 0.889063
3027 2 0.282589 0.412539 0.555664
500 2 0.440364 0.258301 0.576272
2784 2 0.305181 0.260241 0.563707
650 1 0.41036 0.49935 0.628207
1317 2 0.360088 0.472337 0.732224
879 1 0.371861 0.496864 0.903704
2293 2 0.406832 0.365005 0.747666
6433 2 0.0228754 0.351328 0.970434
6311 2 0.140795 0.350944 0.588925
1313 2 0.490315 0.282442 0.682062
1179 2 0.312661 0.44947 0.930797
1811 2 0.277412 0.482847 0.579797
2714 2 0.411288 0.309843 0.803471
887 1 0.412031 0.496274 0.903341
897 1 0.451858 0.498386 0.879099
5923 2 0.199434 0.398299 0.773702
670 1 0.489481 0.499766 0.636479
6017 2 0.187256 0.317211 0.780848
6241 2 0.460029 0.439035 0.55806
6492 2 0.103256 0.413926 0.834827
1466 2 0.490208 0.290123 0.954046
6319 2 0.201694 0.352192 0.9329
1849 2 0.4965 0.448382 0.738381
633 1 0.334487 0.499988 0.615066
660 1 0.450491 0.499187 0.633572
1739 2 0.498478 0.441759 0.922141
6460 2 0.134052 0.275891 0.892188
128 1 0.316166 0.510747 0.122239
127 1 0.318047 0.53342 0.130449
133 1 0.337427 0.546216 0.121377
137 1 0.352354 0.512792 0.0909737
136 1 0.35162 0.536126 0.0955606
141 1 0.372272 0.547155 0.0879545
144 1 0.392374 0.511957 0.0954508
143 1 0.39257 0.535408 0.0872806
148 1 0.411897 0.547799 0.096505
155 1 0.433361 0.512898 0.0994272
153 1 0.431857 0.536245 0.106218
131 1 0.338648 0.569692 0.12271
140 1 0.373369 0.57046 0.0952874
147 1 0.413055 0.570093 0.0846258
158 1 0.452267 0.54756 0.109356
164 1 0.472933 0.512317 0.117579
163 1 0.472467 0.536058 0.111698
168 1 0.491303 0.548529 0.121933
157 1 0.452666 0.57038 0.099899
167 1 0.492759 0.569237 0.103505
126 1 0.318535 0.581272 0.129451
125 1 0.314895 0.602797 0.117645
130 1 0.331053 0.615229 0.0983238
135 1 0.353373 0.581614 0.0996339
134 1 0.351085 0.604752 0.0926906
139 1 0.371282 0.617021 0.0892672
146 1 0.392721 0.581853 0.0829099
145 1 0.39215 0.605854 0.081881
150 1 0.413088 0.617242 0.0882333
154 1 0.433136 0.581678 0.0872586
152 1 0.433007 0.605188 0.0864155
129 1 0.332044 0.638291 0.110505
217 1 0.313261 0.645502 0.130268
218 1 0.314775 0.661969 0.157532
219 1 0.334962 0.670798 0.170344
138 1 0.37253 0.638652 0.1059
220 1 0.35269 0.64954 0.118827
221 1 0.352955 0.663972 0.149884
222 1 0.372481 0.664214 0.17311
151 1 0.412073 0.636146 0.111834
223 1 0.391601 0.641827 0.128632
224 1 0.391967 0.657615 0.156774
225 1 0.41046 0.653842 0.181568
226 1 0.431528 0.64244 0.129439
227 1 0.431039 0.648638 0.167103
160 1 0.452925 0.615779 0.0910477
162 1 0.473557 0.5801 0.0900823
161 1 0.473706 0.603906 0.0864074
166 1 0.492926 0.616186 0.0975043
156 1 0.451417 0.632324 0.119564
228 1 0.451186 0.655352 0.184938
165 1 0.491746 0.637476 0.115422
229 1 0.47065 0.643802 0.129217
230 1 0.469723 0.656547 0.162446
231 1 0.489737 0.661239 0.17904
216 2 0.314408 0.56033 0.040035
474 1 0.488989 0.705003 0.368143
475 1 0.489431 0.659317 0.371789
371 1 0.332634 0.523542 0.383511
368 1 0.317528 0.537167 0.403504
367 1 0.319265 0.560238 0.407006
373 1 0.337926 0.571943 0.393608
381 1 0.370736 0.52264 0.366897
377 1 0.351075 0.535637 0.369524
376 1 0.352519 0.558868 0.372008
380 1 0.372294 0.569756 0.369429
389 1 0.410416 0.521166 0.381517
384 1 0.391614 0.532392 0.367789
383 1 0.391909 0.55658 0.369758
388 1 0.411836 0.567036 0.357657
395 1 0.431263 0.53275 0.384653
393 1 0.430913 0.5558 0.371292
473 1 0.46942 0.693714 0.378407
472 1 0.46972 0.671016 0.376412
399 1 0.451121 0.520377 0.381631
397 1 0.451033 0.565923 0.359617
408 1 0.491366 0.520179 0.369663
404 1 0.470717 0.531603 0.368235
403 1 0.470305 0.554935 0.372753
407 1 0.49089 0.566879 0.373245
370 1 0.338041 0.595219 0.390626
366 1 0.320411 0.609125 0.399388
365 1 0.317358 0.629454 0.384739
369 1 0.332316 0.638288 0.359064
379 1 0.372365 0.591516 0.35682
375 1 0.355821 0.605163 0.37281
374 1 0.352033 0.626533 0.353028
378 1 0.371282 0.638409 0.34265
387 1 0.411995 0.590675 0.348264
386 1 0.391747 0.603218 0.345919
385 1 0.391321 0.626911 0.352677
391 1 0.411543 0.637864 0.359343
394 1 0.432186 0.601392 0.354956
392 1 0.431357 0.624709 0.361168
458 1 0.330333 0.661237 0.355172
456 1 0.313035 0.670658 0.375276
457 1 0.314847 0.691252 0.392963
459 1 0.334553 0.702617 0.393047
462 1 0.370497 0.662307 0.343675
460 1 0.3498 0.67484 0.349718
461 1 0.350531 0.696518 0.367109
463 1 0.371867 0.704764 0.373545
466 1 0.411337 0.660311 0.34963
464 1 0.391145 0.67136 0.357079
465 1 0.391361 0.693585 0.365949
467 1 0.410979 0.705322 0.366519
468 1 0.432051 0.671093 0.351272
469 1 0.431221 0.69476 0.355574
396 1 0.452781 0.589712 0.351692
398 1 0.451484 0.636071 0.355301
406 1 0.492118 0.590001 0.36374
402 1 0.472817 0.601556 0.353832
401 1 0.471786 0.624874 0.359117
405 1 0.489135 0.635887 0.377608
470 1 0.450944 0.658993 0.365286
471 1 0.44994 0.705745 0.371968
1220 2 0.399453 0.600269 0.434394
1940 2 0.471698 0.67153 0.28248
4766 2 0.197747 0.50764 0.0941692
1169 2 0.430088 0.623081 0.270391
1014 2 0.448372 0.661085 0.0433427
2591 2 0.46165 0.720853 0.460203
1154 2 0.36627 0.717855 0.170979
1031 2 0.281663 0.643942 0.316467
1045 2 0.321176 0.588135 0.304765
1070 2 0.368415 0.720835 0.459945
1376 2 0.325603 0.688396 0.0721689
1105 2 0.377945 0.563979 0.281242
1149 2 0.433623 0.526416 0.296506
1354 2 0.27459 0.586443 0.385593
1463 2 0.497812 0.656557 0.461446
2463 2 0.274798 0.516978 0.355965
1315 2 0.414144 0.59532 0.17081
1395 2 0.439812 0.545482 0.0139031
1861 2 0.462784 0.596016 0.440536
1029 2 0.471538 0.5969 0.176115
1353 2 0.270102 0.558831 0.12055
6207 2 0.138793 0.688312 0.211482
2828 2 0.265611 0.703671 0.360465
6075 2 0.184963 0.59618 0.124826
1503 2 0.486642 0.694742 0.10341
2245 2 0.279148 0.629823 0.0683164
4314 2 0.271698 0.540393 0.458137
149 1 0.412942 0.500785 0.103108
169 1 0.493094 0.500371 0.123325
1613 2 0.374967 0.539462 0.452284
1569 2 0.275083 0.651199 0.430542
1663 2 0.48358 0.566607 0.283893
5937 2 0.292612 0.724826 0.463061
1303 2 0.43172 0.700829 0.147072
1854 2 0.42376 0.668974 0.438938
1734 2 0.388658 0.686425 0.0767504
1740 2 0.357951 0.611486 0.182425
1764 2 0.398297 0.680284 0.263025
2225 2 0.320768 0.709605 0.295049
1824 2 0.38312 0.543691 0.176164
132 1 0.332037 0.500424 0.0996458
2382 2 0.36085 0.653063 0.432009
6418 2 0.189062 0.744222 0.412276
2134 2 0.346011 0.646166 0.263101
2485 2 0.285614 0.616594 0.192189
4365 2 0.316658 0.550754 0.216943
5418 2 0.206634 0.634051 0.486779
1158 2 0.322606 0.507892 0.486934
2326 2 0.318454 0.587471 0.491561
5986 2 0.226877 0.543145 0.244738
2727 2 0.289417 0.710023 0.164355
6225 2 0.0595451 0.57431 0.304891
2353 2 0.466857 0.73721 0.304445
273 2 0.494657 0.521807 0.210244
142 1 0.37259 0.500306 0.0884228
1247 2 0.388005 0.738707 0.306808
159 1 0.454088 0.500923 0.107705
1840 2 0.492355 0.536838 0.456346
6398 2 0.0236467 0.564585 0.0392153
1575 2 0.498498 0.528815 0.0373912
1349 2 0.433729 0.50071 0.190596
629 1 0.32102 0.510649 0.588556
628 1 0.320321 0.533721 0.58565
634 1 0.33385 0.546234 0.612384
638 1 0.350529 0.512928 0.634076
637 1 0.352395 0.535512 0.625706
642 1 0.371436 0.547426 0.636732
645 1 0.391632 0.512855 0.639434
644 1 0.391257 0.535295 0.629648
649 1 0.410919 0.546763 0.620314
656 1 0.43102 0.510413 0.622505
654 1 0.430411 0.533975 0.618428
632 1 0.332293 0.570241 0.613526
641 1 0.370373 0.571313 0.635993
648 1 0.410723 0.569674 0.628148
659 1 0.45121 0.545482 0.623571
665 1 0.469862 0.511575 0.636387
664 1 0.470351 0.532576 0.617702
669 1 0.49084 0.542951 0.608825
658 1 0.451825 0.569657 0.625731
668 1 0.490884 0.566338 0.604537
627 1 0.316182 0.581561 0.590935
626 1 0.315168 0.604562 0.593955
631 1 0.33264 0.616859 0.606441
636 1 0.350419 0.582294 0.627855
635 1 0.351637 0.604451 0.610936
640 1 0.372108 0.61644 0.608432
647 1 0.390569 0.581689 0.630139
646 1 0.39103 0.602969 0.614063
651 1 0.411871 0.613815 0.609026
655 1 0.431308 0.581087 0.625091
653 1 0.431375 0.602289 0.611924
630 1 0.331938 0.638916 0.618712
718 1 0.312177 0.644481 0.637935
719 1 0.313831 0.655217 0.672282
720 1 0.334415 0.665947 0.679487
639 1 0.372925 0.639274 0.617657
721 1 0.35266 0.649728 0.627318
722 1 0.351918 0.666022 0.655374
723 1 0.372728 0.671235 0.67016
652 1 0.412504 0.63685 0.619088
724 1 0.393015 0.647269 0.631366
725 1 0.393467 0.663355 0.658388
726 1 0.41295 0.667439 0.678946
727 1 0.43245 0.645894 0.633127
728 1 0.432883 0.659053 0.665838
661 1 0.451532 0.614 0.618685
663 1 0.470943 0.579383 0.610264
662 1 0.471329 0.603217 0.6118
667 1 0.490214 0.615635 0.605287
657 1 0.452081 0.637075 0.62153
729 1 0.453767 0.668858 0.677154
666 1 0.491849 0.637122 0.617275
730 1 0.472837 0.648137 0.627002
731 1 0.473253 0.66388 0.655393
732 1 0.492995 0.670923 0.670378
998 2 0.451915 0.621924 0.809981
954 2 0.486814 0.55165 0.697622
955 2 0.453891 0.562817 0.827767
868 1 0.33268 0.521495 0.891781
865 1 0.31912 0.532374 0.865318
864 1 0.324565 0.55244 0.848501
870 1 0.343162 0.563843 0.861068
878 1 0.372931 0.520387 0.910293
874 1 0.352805 0.532206 0.902557
873 1 0.357303 0.552618 0.884372
877 1 0.372445 0.56588 0.904071
886 1 0.413543 0.518604 0.91621
881 1 0.394156 0.53168 0.91371
880 1 0.393698 0.554876 0.906456
885 1 0.413003 0.566551 0.914844
892 1 0.433574 0.530716 0.912181
890 1 0.433088 0.55457 0.915829
625 2 0.361513 0.616774 0.698493
249 2 0.48825 0.598266 0.983462
896 1 0.451916 0.521059 0.893133
894 1 0.452445 0.567364 0.916791
905 1 0.492473 0.521187 0.887538
901 1 0.472151 0.532359 0.895601
900 1 0.472858 0.554599 0.909016
904 1 0.492191 0.567495 0.897326
867 1 0.342361 0.587954 0.860168
863 1 0.323922 0.59844 0.845055
862 1 0.317443 0.620129 0.853531
866 1 0.331334 0.633977 0.874781
876 1 0.370412 0.589864 0.906068
872 1 0.352182 0.600816 0.888112
871 1 0.349685 0.624295 0.892571
875 1 0.370162 0.636828 0.897643
884 1 0.412196 0.589554 0.911409
883 1 0.391484 0.601574 0.91116
882 1 0.390568 0.624338 0.898772
888 1 0.409689 0.633464 0.882182
891 1 0.431506 0.60136 0.900255
889 1 0.429594 0.625492 0.89638
959 1 0.332269 0.656074 0.863027
957 1 0.31253 0.66866 0.857775
958 1 0.313266 0.691033 0.848013
960 1 0.331425 0.703648 0.859222
963 1 0.370569 0.659329 0.884833
961 1 0.351622 0.66897 0.868316
962 1 0.349855 0.692776 0.872914
964 1 0.371108 0.703493 0.871826
967 1 0.409808 0.654633 0.867118
965 1 0.389733 0.667196 0.867155
966 1 0.390111 0.690964 0.862445
968 1 0.409114 0.702257 0.860052
969 1 0.429324 0.667131 0.867074
970 1 0.428436 0.691415 0.869705
893 1 0.45147 0.590615 0.91055
895 1 0.449557 0.636912 0.896712
903 1 0.490323 0.590309 0.888486
899 1 0.46986 0.601824 0.895087
898 1 0.470559 0.62541 0.897229
902 1 0.489443 0.635566 0.88045
971 1 0.448989 0.658166 0.880615
972 1 0.449047 0.702196 0.861864
976 1 0.4881 0.655849 0.86068
973 1 0.467109 0.666652 0.860495
974 1 0.466367 0.68898 0.848996
975 1 0.48658 0.699675 0.841602
624 2 0.297902 0.527451 0.674745
1302 2 0.315898 0.570831 0.938836
1144 2 0.286933 0.510031 0.789114
1889 2 0.440268 0.693574 0.59406
953 2 0.396198 0.58409 0.827228
1133 2 0.277662 0.575124 0.855851
1611 2 0.487046 0.677224 0.944262
1608 2 0.353181 0.545875 0.720431
2007 2 0.460429 0.505869 0.543442
1505 2 0.40784 0.6716 0.953599
1222 2 0.434842 0.566176 0.538134
1823 2 0.309664 0.642471 0.768819
5682 2 0.274006 0.691439 0.687196
1036 2 0.36906 0.627066 0.806863
1047 2 0.420423 0.611043 0.703236
1050 2 0.485378 0.612635 0.697172
1340 2 0.402357 0.718535 0.676474
1148 2 0.413138 0.525151 0.82714
2433 2 0.382844 0.55206 0.997518
1630 2 0.424627 0.538413 0.706689
1194 2 0.370598 0.566533 0.547647
1114 2 0.362427 0.684093 0.781527
5094 2 0.339607 0.722695 0.691917
2651 2 0.262806 0.677267 0.820467
1278 2 0.484009 0.740415 0.895399
1511 2 0.304619 0.59652 0.682714
1436 2 0.451589 0.635026 0.532595
1446 2 0.336651 0.666429 0.956613
1467 2 0.427247 0.677252 0.774487
2042 2 0.488772 0.665985 0.765243
1491 2 0.425462 0.604648 0.994094
956 2 0.476564 0.512165 0.795515
6063 2 0.156358 0.584175 0.603601
6373 2 0.089932 0.688918 0.520245
3034 2 0.270111 0.554827 0.579167
2411 2 0.277054 0.637077 0.905692
1551 2 0.242044 0.579645 0.973737
1189 2 0.420041 0.741836 0.916648
3590 2 0.324778 0.644031 0.524238
2227 2 0.379942 0.693104 0.586227
2241 2 0.317931 0.692654 0.602444
3425 2 0.265853 0.628752 0.601833
2533 2 0.278419 0.515529 0.9193
2236 2 0.390431 0.636878 0.529598
1457 2 0.439321 0.744617 0.808418
3726 2 0.28196 0.706083 0.925886
2135 2 0.470292 0.718355 0.688479
643 1 0.370484 0.502211 0.6444
2393 2 0.350918 0.734998 0.94049
5968 2 0.2464 0.607572 0.746604
5691 2 0.217756 0.530549 0.698878
751 2 0.358704 0.510269 0.8141
4178 2 0.299334 0.748649 0.844305
4950 2 0.206384 0.536613 0.845097
6446 2 0.165574 0.740133 0.954105
2109 2 0.374509 0.506138 0.553807
1020 2 0.365796 0.612824 0.989733
6496 2 0.094901 0.647277 0.97043
6382 2 0.102779 0.552218 0.823275
6479 2 0.00455582 0.609362 0.900809
1751 2 0.341357 0.503856 0.994378
6468 2 0.177509 0.695505 0.677979
1252 2 0.365006 0.749251 0.824697
6507 2 0.100785 0.653597 0.74082
6466 2 0.247342 0.771142 0.0649607
5158 2 0.334379 0.754896 0.371859
2746 2 0.426867 0.756352 0.384043
6419 2 0.478756 0.836252 0.279757
6195 2 0.399753 0.903898 0.112323
5122 2 0.305808 0.78884 0.261324
4622 2 0.473459 0.788895 0.179629
6390 2 0.301718 0.875285 0.369277
6505 2 0.356222 0.909739 0.238571
6365 2 0.184212 0.973658 0.326414
6401 2 0.107346 0.98678 0.349658
6437 2 0.199317 0.897573 0.114421
6313 2 0.14386 0.894153 0.304183
6191 2 0.411299 0.762319 0.0582432
6363 2 0.100628 0.982934 0.0991462
6439 2 0.0519023 0.769573 0.370455
6444 2 0.0427747 0.931082 0.231081
6445 2 0.171921 0.991265 0.00812808
6489 2 0.0419194 0.762301 0.121322
6502 2 0.309382 0.960367 0.374835
6503 2 0.286037 0.913181 0.116621
6506 2 0.0544328 0.844657 0.0468695
6484 2 0.06613 0.893016 0.949976
6334 2 0.370536 0.838666 0.740177
6098 2 0.324016 0.837718 0.519841
6325 2 0.201673 0.974371 0.821796
6459 2 0.255733 0.858887 0.794404
6402 2 0.0774685 0.941779 0.81957
6447 2 0.183143 0.834125 0.996967
6332 2 0.0201265 0.980244 0.973457
3010 2 0.458717 0.776681 0.559448
6090 2 0.372539 0.843209 0.925385
6031 2 0.486092 0.85638 0.805956
6405 2 0.362439 0.768765 0.569202
6512 2 0.0219775 0.846649 0.513258
2596 2 0.514622 0.240685 0.27321
3750 2 0.626912 0.224658 0.239088
5878 2 0.7615 0.17335 0.205858
6277 2 0.505485 0.120236 0.497397
6257 2 0.969444 0.155891 0.47901
5904 2 0.593465 0.189355 0.481342
6501 2 0.944936 0.231635 0.241764
4796 2 0.514551 0.211283 0.456626
6458 2 0.722744 0.0964811 0.318201
5948 2 0.561537 0.182467 0.148514
6476 2 0.623028 0.0802208 0.0489775
6421 2 0.702545 0.243132 0.324915
6148 2 0.665692 0.143281 0.41321
6303 2 0.684664 0.18542 0.0767455
6482 2 0.958115 0.0478388 0.337929
6457 2 0.872708 0.225805 0.373736
6454 2 0.608402 0.0221882 0.43496
6494 2 0.790253 0.0355856 0.205109
4711 2 0.653781 0.244393 0.57574
6450 2 0.790349 0.0315155 0.943892
6510 2 0.634532 0.0659577 0.609077
6246 2 0.683281 0.149553 0.950411
6469 2 0.598416 0.10308 0.851458
6508 2 0.738601 0.112859 0.871385
5705 2 0.554383 0.196266 0.848109
6475 2 0.836775 0.180589 0.803371
6073 2 0.502735 0.118593 0.986501
2432 2 0.60612 0.225197 0.752371
5926 2 0.721859 0.188533 0.543748
6483 2 0.985836 0.0198421 0.536192
6495 2 0.976837 0.184045 0.907556
6500 2 0.970641 0.0658842 0.892761
25 1 0.531702 0.301256 0.105188
23 1 0.511108 0.309309 0.118337
22 1 0.510053 0.332743 0.124173
24 1 0.531563 0.343781 0.130114
27 1 0.551283 0.31323 0.106492
26 1 0.550353 0.3308 0.132999
91 1 0.531502 0.364353 0.14788
87 1 0.511723 0.375688 0.149353
86 1 0.509868 0.398601 0.156475
90 1 0.530456 0.410587 0.160562
95 1 0.551504 0.375602 0.15287
94 1 0.55091 0.398803 0.162939
28 1 0.571139 0.303278 0.0981754
29 1 0.569514 0.339776 0.148725
33 1 0.608924 0.305304 0.0957996
31 1 0.590024 0.310892 0.115442
30 1 0.590211 0.329078 0.141122
32 1 0.611361 0.340787 0.145313
36 1 0.648383 0.303373 0.0943136
34 1 0.62882 0.316082 0.101421
35 1 0.6292 0.334701 0.123878
37 1 0.650498 0.342301 0.132054
40 1 0.681329 0.307871 0.0625466
38 1 0.669485 0.312611 0.0951057
39 1 0.667887 0.335768 0.10643
41 1 0.686432 0.349287 0.102346
99 1 0.570417 0.36256 0.159434
98 1 0.570754 0.410121 0.154617
104 1 0.612059 0.363163 0.158603
103 1 0.59138 0.373893 0.164351
102 1 0.591692 0.397647 0.157952
107 1 0.611113 0.409592 0.167091
115 1 0.652024 0.363029 0.151141
111 1 0.632112 0.374862 0.155695
108 1 0.631375 0.39868 0.161998
114 1 0.649172 0.409984 0.145365
123 1 0.687689 0.368369 0.123712
119 1 0.671326 0.376283 0.147125
118 1 0.67035 0.399468 0.144191
121 1 0.684914 0.410393 0.117531
89 1 0.530479 0.433108 0.153706
85 1 0.509623 0.444308 0.153608
84 1 0.50929 0.467752 0.153121
88 1 0.529198 0.479017 0.159712
93 1 0.550477 0.444562 0.161541
92 1 0.549678 0.468114 0.161351
272 2 0.580685 0.414307 0.251031
97 1 0.571146 0.43398 0.15596
96 1 0.570235 0.480096 0.154787
106 1 0.611243 0.433278 0.168269
101 1 0.590617 0.445425 0.166703
100 1 0.59034 0.468282 0.156207
105 1 0.610709 0.480051 0.163955
112 1 0.647931 0.432949 0.1438
110 1 0.630523 0.444888 0.159201
109 1 0.631119 0.468308 0.158943
113 1 0.648715 0.478499 0.139669
122 1 0.676932 0.429856 0.0980155
117 1 0.659505 0.442806 0.114891
116 1 0.660926 0.465826 0.113645
120 1 0.678636 0.476183 0.0942625
455 2 0.561446 0.45 0.425142
355 1 0.661449 0.486752 0.379461
364 2 0.584422 0.354722 0.252404
42 2 0.613379 0.490647 0.0708816
263 1 0.530477 0.331606 0.412522
262 1 0.509993 0.341131 0.406572
323 1 0.508892 0.357592 0.379541
327 1 0.528895 0.364125 0.361416
264 1 0.549197 0.335087 0.38917
332 1 0.548524 0.350861 0.362288
326 1 0.52829 0.383177 0.337851
322 1 0.507986 0.395694 0.338165
321 1 0.507934 0.418961 0.336711
331 1 0.548997 0.395226 0.338894