ITEM: TIMESTEP
150000
ITEM: NUMBER OF ATOMS
695
ITEM: BOX BOUNDS pp pp pp
-3.0000000000000000e+01 3.0000000000000000e+01
-3.0000000000000000e+01 3.0000000000000000e+01
-3.0000000000000000e+01 3.0000000000000000e+01
ITEM: ATOMS id type xs ys zs
9972 2 0.238329 0.176608 0.146867
9872 2 0.367303 0.301588 0.160111
9766 2 0.281371 0.272889 0.107314
9922 2 0.260941 0.398017 0.110906
9491 2 0.155628 0.427421 0.0359709
10110 2 0.015181 0.337778 0.0507874
9764 2 0.413053 0.18932 0.210068
10041 2 0.0316832 0.115909 0.0607913
9776 2 0.4985 0.0856618 0.0215045
9521 2 0.113034 0.0507178 0.014575
9750 2 0.403242 0.347552 0.074031
9989 2 0.151986 0.384893 0.191634
9865 2 0.0409503 0.157153 0.153212
9780 2 0.36299 0.0553285 0.0595612
9259 2 0.449799 0.375256 0.244897
10022 2 0.465792 0.271248 0.0632143
10042 2 0.288027 0.124941 0.0152586
10057 2 0.168168 0.222223 0.241706
9890 2 0.158182 0.109662 0.244673
10103 2 0.214148 0.0457286 0.187704
10137 2 0.0807105 0.177447 0.00879127
10138 2 0.458661 0.448604 0.126358
77 1 0.428314 0.407915 0.493505
193 1 0.429224 0.476081 0.496436
8880 2 0.233673 0.289611 0.426914
10065 2 0.191088 0.242263 0.355567
9694 2 0.427333 0.0420524 0.407291
10044 2 0.194008 0.372873 0.397599
4266 2 0.407653 0.45542 0.373396
24 2 0.475725 0.403825 0.44683
3 2 0.356207 0.261474 0.468003
70 1 0.408241 0.418875 0.496249
30 2 0.481597 0.476545 0.447586
81 1 0.449014 0.419123 0.493077
9896 2 0.0287083 0.326795 0.335456
94 1 0.489428 0.442711 0.493376
45 1 0.31371 0.336985 0.489387
92 1 0.489937 0.373012 0.494277
9212 2 0.423835 0.2911 0.36783
898 2 0.478676 0.333324 0.4462
54 1 0.331966 0.302563 0.495193
48 1 0.313363 0.452472 0.490904
83 1 0.450108 0.373004 0.494097
3955 2 0.321004 0.482868 0.363617
82 1 0.449225 0.441829 0.496464
66 1 0.3894 0.3828 0.498662
26 2 0.35745 0.413283 0.455182
3860 2 0.410349 0.303113 0.449364
78 1 0.4299 0.337382 0.495561
10036 2 0.293971 0.490155 0.259724
9777 2 0.339448 0.0324207 0.268366
17 2 0.461885 0.26953 0.468215
329 2 0.289433 0.429438 0.446399
6815 2 0.317509 0.273226 0.340014
153 1 0.31445 0.475441 0.489004
354 2 0.415777 0.371691 0.446037
9953 2 0.0255026 0.412062 0.286413
9505 2 0.00368428 0.316169 0.454599
201 1 0.449566 0.488386 0.495105
930 2 0.354851 0.342289 0.452352
87 1 0.46846 0.408064 0.498593
80 1 0.450224 0.349594 0.493439
9765 2 0.257536 0.101477 0.260924
9970 2 0.102318 0.0458892 0.494047
1408 2 0.289125 0.351723 0.440455
2614 2 0.29495 0.498084 0.440144
795 2 0.419199 0.444508 0.45074
47 1 0.314441 0.406484 0.492182
5154 2 0.277717 0.275716 0.488692
49 1 0.313833 0.314227 0.486526
46 1 0.314234 0.383752 0.48896
51 1 0.332183 0.371062 0.496856
68 1 0.389642 0.337198 0.499242
75 1 0.429385 0.384612 0.498306
85 1 0.469687 0.38419 0.498662
44 2 0.36157 0.477174 0.454745
93 1 0.488603 0.420088 0.499496
9707 2 0.451876 0.173134 0.493695
10122 2 0.158801 0.0664422 0.379883
186 1 0.408757 0.487359 0.499963
89 1 0.46954 0.453279 0.499897
174 1 0.369483 0.488007 0.509029
62 1 0.369924 0.417013 0.507449
166 1 0.349224 0.475601 0.508112
60 1 0.370186 0.347855 0.505514
967 2 0.268658 0.497937 0.505102
10082 2 0.233179 0.0716581 0.60964
53 1 0.329336 0.440382 0.503484
67 1 0.389781 0.406169 0.502065
147 2 0.440509 0.416556 0.546623
177 1 0.38904 0.475896 0.505711
9438 2 0.410699 0.27756 0.605105
1089 2 0.380297 0.454538 0.556974
209 1 0.468963 0.476671 0.502658
10000 2 0.0786685 0.486818 0.734882
1339 2 0.312681 0.3917 0.549165
9859 2 0.149452 0.0314343 0.559183
301 2 0.441056 0.488508 0.549093
9826 2 0.316387 0.283456 0.641139
71 1 0.407868 0.440949 0.503339
216 1 0.489802 0.487854 0.502628
9657 2 0.0401366 0.248658 0.662598
3114 2 0.30929 0.321596 0.54544
9847 2 0.124557 0.402157 0.66454
9727 2 0.256622 0.344165 0.622007
1034 2 0.273671 0.429791 0.518076
56 1 0.350077 0.381654 0.506309
35 2 0.441269 0.347782 0.548209
936 2 0.380214 0.387078 0.55374
57 1 0.350139 0.40531 0.508063
65 1 0.387448 0.452274 0.501554
9933 2 0.160269 0.48083 0.686387
9976 2 0.325084 0.392748 0.707156
79 1 0.430457 0.314611 0.501048
86 1 0.470774 0.339498 0.50032
9676 2 0.188881 0.229184 0.557202
498 2 0.267631 0.362668 0.503883
91 1 0.490893 0.35041 0.500564
59 1 0.350875 0.312039 0.505528
1448 2 0.380621 0.324695 0.554683
63 1 0.367648 0.440103 0.503479
55 1 0.349903 0.335798 0.508013
58 1 0.348914 0.451762 0.507685
3359 2 0.478168 0.273332 0.547699
52 1 0.331048 0.416979 0.50339
88 1 0.470257 0.316141 0.502146
74 1 0.410936 0.305088 0.507183
64 1 0.37222 0.301789 0.502667
911 2 0.409488 0.252132 0.508957
1281 2 0.313889 0.467371 0.551127
90 1 0.491166 0.304286 0.503571
73 1 0.410284 0.348566 0.50027
9760 2 0.395501 0.140842 0.689747
159 1 0.330424 0.487947 0.500418
76 1 0.429064 0.452803 0.50302
10121 2 0.483159 0.427505 0.71198
61 1 0.369872 0.37078 0.500911
10096 2 0.354388 0.243118 0.737054
9610 2 0.355773 0.35072 0.617614
72 1 0.409602 0.371553 0.5011
84 1 0.450167 0.305889 0.508496
2133 2 0.347364 0.265456 0.536738
9794 2 0.230602 0.45485 0.64737
10023 2 0.15414 0.209931 0.743838
9475 2 0.301031 0.184439 0.643725
50 1 0.330534 0.34828 0.502088
736 2 0.409153 0.46414 0.62624
9507 2 0.161449 0.341245 0.569033
9879 2 0.289525 0.0910457 0.68548
10002 2 0.0917902 0.125338 0.557473
69 1 0.391141 0.313997 0.500348
9968 2 0.487964 0.143674 0.767099
9900 2 0.446056 0.0832503 0.861731
9845 2 0.237254 0.229484 0.874401
10105 2 0.0961643 0.420412 0.836286
9956 2 0.0822948 0.128347 0.838278
10080 2 0.473914 0.141239 0.942014
9979 2 0.268532 0.455676 0.82116
10046 2 0.190742 0.174961 0.948254
9803 2 0.256477 0.355961 0.982829
9733 2 0.261126 0.338463 0.789419
9494 2 0.447036 0.411218 0.97133
10053 2 0.123418 0.276275 0.910604
10125 2 0.398702 0.403619 0.921252
9754 2 0.438503 0.0147928 0.951306
9732 2 0.477536 0.361727 0.781212
10074 2 0.159085 0.110058 0.813813
9849 2 0.318554 0.00123947 0.809618
10141 2 0.283828 0.137374 0.768267
10142 2 0.173479 0.494984 0.833299
9962 2 0.0795725 0.515068 0.246923
10129 2 0.356202 0.909762 0.237019
9713 2 0.461258 0.896109 0.0325136
10144 2 0.277565 0.590347 0.228387
9130 2 0.221668 0.653098 0.211994
10118 2 0.143993 0.651684 0.150364
9471 2 0.0540828 0.520046 0.0274582
10047 2 0.400704 0.737881 0.0158155
10064 2 0.497138 0.644669 0.00774032
9821 2 0.370027 0.592792 0.247761
10027 2 0.185965 0.990694 0.00777181
9459 2 0.0240779 0.884426 0.0741048
9984 2 0.313931 0.681914 0.248011
10045 2 0.173487 0.913951 0.126096
10029 2 0.265654 0.677053 0.0114728
10030 2 0.110895 0.952211 0.0625943
10099 2 0.0395784 0.761592 0.125969
10109 2 0.413966 0.804848 0.148779
150 1 0.310379 0.593736 0.495928
9233 2 0.353436 0.861808 0.334697
294 2 0.351038 0.610337 0.454669
27 2 0.418395 0.584482 0.446041
152 1 0.313791 0.522771 0.488416
196 1 0.430295 0.683301 0.493301
191 1 0.429067 0.545354 0.494339
180 1 0.38902 0.590815 0.497658
32 2 0.478355 0.610922 0.449763
1819 2 0.287798 0.577077 0.445842
190 1 0.429856 0.614571 0.496698
175 1 0.371892 0.69361 0.493617
168 1 0.351014 0.682123 0.491231
169 1 0.369859 0.648234 0.497761
10038 2 0.226732 0.726088 0.321437
7929 2 0.488367 0.765705 0.391596
9305 2 0.155103 0.639673 0.343752
1110 2 0.480594 0.544524 0.449576
217 1 0.48904 0.510536 0.497393
1171 2 0.403864 0.718559 0.446766
214 1 0.489571 0.57936 0.496591
158 1 0.330786 0.511615 0.499964
199 1 0.449766 0.557074 0.494433
198 1 0.450243 0.580403 0.496294
825 2 0.42189 0.629186 0.375898
212 1 0.490007 0.649985 0.499796
178 1 0.389914 0.521897 0.498129
162 1 0.349921 0.659031 0.49307
43 2 0.476343 0.740692 0.479077
151 1 0.312443 0.54564 0.489384
521 2 0.402902 0.649284 0.451461
200 1 0.449409 0.512165 0.496922
9848 2 0.306292 0.57371 0.373108
161 1 0.332365 0.695409 0.4971
9637 2 0.462716 0.824268 0.480495
497 2 0.470901 0.671556 0.451149
9669 2 0.00669093 0.634997 0.347629
515 2 0.420236 0.512523 0.449152
160 1 0.33086 0.558222 0.497178
631 2 0.351642 0.742075 0.473373
149 1 0.311508 0.616724 0.494188
563 2 0.320447 0.670603 0.442762
919 2 0.265523 0.641818 0.485722
948 2 0.361494 0.53976 0.453495
9954 2 0.495842 0.975941 0.275743
184 1 0.408733 0.557145 0.495032
8405 2 0.193193 0.579507 0.429289
9820 2 0.438813 0.885025 0.27551
9874 2 0.21772 0.976631 0.340499
195 1 0.431473 0.660643 0.498287
9612 2 0.188892 0.533688 0.342603
1476 2 0.398693 0.540365 0.365994
202 1 0.450774 0.625964 0.49701
189 1 0.410817 0.693474 0.496712
10048 2 0.27452 0.846476 0.263971
9593 2 0.391746 0.907507 0.472923
9937 2 0.12036 0.753564 0.471066
155 1 0.329791 0.649198 0.496676
7479 2 0.284463 0.730524 0.497244
9929 2 0.314947 0.697683 0.365249
9573 2 0.393753 0.692861 0.289409
179 1 0.389821 0.614342 0.499018
203 1 0.449654 0.694151 0.49936
9992 2 0.263228 0.866254 0.473877
9779 2 0.162988 0.908959 0.250477
205 1 0.470162 0.661017 0.506239
167 1 0.350774 0.5229 0.505151
288 2 0.498445 0.589399 0.550075
40 2 0.353687 0.663861 0.54652
9608 2 0.021135 0.680678 0.568227
290 2 0.383584 0.522148 0.552395
211 1 0.488869 0.695792 0.505624
163 1 0.349527 0.61634 0.508842
210 1 0.469391 0.522474 0.501622
34 2 0.426892 0.685331 0.549495
9905 2 0.00377832 0.935457 0.654819
197 1 0.450661 0.648846 0.50204
9 2 0.26765 0.568375 0.510546
339 2 0.497089 0.655591 0.554272
213 1 0.489779 0.626569 0.502342
10037 2 0.172362 0.512864 0.552588
208 1 0.468678 0.54571 0.503802
204 1 0.469866 0.615209 0.50309
183 1 0.409605 0.580065 0.500657
148 1 0.31308 0.662419 0.505643
182 1 0.390309 0.68325 0.502002
146 2 0.437578 0.556807 0.547541
188 1 0.411496 0.648968 0.504648
170 1 0.370703 0.626422 0.505736
311 2 0.315486 0.537553 0.546929
9264 2 0.31852 0.958302 0.534918
9532 2 0.305083 0.850518 0.66357
187 1 0.409944 0.625427 0.502073
7893 2 0.367787 0.810666 0.563202
165 1 0.349274 0.546718 0.506376
774 2 0.424866 0.742121 0.511944
946 2 0.277179 0.670271 0.545227
9955 2 0.376704 0.724043 0.746163
9258 2 0.0595318 0.947226 0.564142
20 2 0.362245 0.725538 0.536957
7486 2 0.378676 0.635237 0.616805
6786 2 0.252914 0.502905 0.592415
36 2 0.313828 0.605439 0.553135
9998 2 0.117612 0.851825 0.561586
176 1 0.389172 0.54558 0.500237
156 1 0.328805 0.627688 0.504247
181 1 0.389478 0.660261 0.504563
172 1 0.369861 0.557594 0.504793
154 1 0.313153 0.685739 0.503555
9303 2 0.139794 0.659254 0.670133
173 1 0.369919 0.510282 0.501337
416 2 0.438441 0.618789 0.551285
8704 2 0.46096 0.760898 0.588258
215 1 0.490011 0.556284 0.503153
740 2 0.379278 0.59638 0.552798
9830 2 0.302224 0.507075 0.673346
9481 2 0.163177 0.736211 0.65164
164 1 0.348999 0.593058 0.506015
207 1 0.468747 0.684259 0.507824
9739 2 0.0531814 0.795139 0.617848
194 1 0.429645 0.523077 0.501985
9671 2 0.272551 0.62842 0.623138
9699 2 0.262728 0.868301 0.596143
157 1 0.328611 0.5811 0.503321
206 1 0.47033 0.59117 0.50209
185 1 0.410122 0.510489 0.503318
10123 2 0.461673 0.633353 0.68954
171 1 0.368795 0.580264 0.500819
10143 2 0.398135 0.790485 0.688868
192 1 0.429956 0.591702 0.500288
10100 2 0.344944 0.8834 0.985591
9705 2 0.30799 0.759588 0.989476
9932 2 0.0780529 0.92032 0.827301
10005 2 0.132984 0.932886 0.910044
10052 2 0.253742 0.849167 0.808095
9990 2 0.0515893 0.81575 0.954676
9667 2 0.159026 0.627867 0.767547
10126 2 0.101109 0.544731 0.815714
9775 2 0.397793 0.55664 0.831112
9464 2 0.207894 0.939823 0.840472
9663 2 0.310392 0.990287 0.900412
10117 2 0.205683 0.52957 0.751928
10051 2 0.44911 0.589957 0.944194
9703 2 0.0674858 0.76082 0.840125
10007 2 0.352305 0.579515 0.764677
10021 2 0.455393 0.669645 0.824672
10024 2 0.368306 0.89141 0.866377
10028 2 0.156921 0.744088 0.965155
10086 2 0.367322 0.64158 0.870706
10132 2 0.0981107 0.534897 0.913449
10136 2 0.157484 0.853107 0.887149
9951 2 0.804571 0.242315 0.0147601
9823 2 0.54584 0.380743 0.10873
9923 2 0.996921 0.189802 0.0115691
9307 2 0.515422 0.0522322 0.124959
10076 2 0.855498 0.0679119 0.198055
9414 2 0.700288 0.425406 0.157188
10015 2 0.566539 0.131882 0.224728
10040 2 0.934413 0.326175 0.0166535
9921 2 0.989672 0.435221 0.0457951
8893 2 0.738515 0.169558 0.10185
10078 2 0.62629 0.0784736 0.0562081
10055 2 0.726185 0.370193 0.0546123
10115 2 0.944182 0.227738 0.237047
10106 2 0.860068 0.221945 0.217533
10113 2 0.865619 0.416732 0.0751919
115 1 0.589996 0.339335 0.492656
282 1 0.690574 0.489408 0.496454
9926 2 0.92044 0.0491121 0.329043
8836 2 0.676534 0.170502 0.444103
134 1 0.650065 0.350845 0.498116
10084 2 0.630412 0.317184 0.251997
9967 2 0.771134 0.105929 0.377903
42 2 0.589905 0.462189 0.450536
673 2 0.521062 0.25657 0.494334
121 1 0.610434 0.350927 0.494643
233 1 0.551214 0.476642 0.495737
9981 2 0.96068 0.121124 0.472818
105 1 0.551178 0.453651 0.497756
1160 2 0.646125 0.488106 0.451217
9792 2 0.778671 0.0337814 0.311295
142 1 0.689483 0.444209 0.494816
2231 2 0.658055 0.351321 0.359392
114 1 0.569536 0.350918 0.49327
7923 2 0.541904 0.291767 0.372777
618 2 0.677875 0.35007 0.449854
106 1 0.550046 0.407852 0.496119
557 2 0.536282 0.43239 0.4467
7944 2 0.745977 0.322169 0.39801
135 1 0.670406 0.455921 0.496933
10013 2 0.864925 0.418455 0.49484
583 2 0.547532 0.305677 0.451591
10140 2 0.777215 0.162581 0.293917
145 2 0.650093 0.421362 0.454853
7366 2 0.605704 0.43885 0.376541
729 2 0.729998 0.322138 0.482541
591 2 0.534767 0.365668 0.448326
8897 2 0.783559 0.429699 0.408522
138 1 0.671644 0.386744 0.496855
327 2 0.595406 0.382165 0.44803
9871 2 0.685657 0.0804937 0.3542
1161 2 0.670002 0.267102 0.467016
9441 2 0.679846 0.0971275 0.483788
9913 2 0.873216 0.115863 0.396006
112 1 0.57086 0.41973 0.495952
133 1 0.651467 0.374079 0.494799
8394 2 0.533392 0.408433 0.320344
98 1 0.510767 0.337982 0.497797
10072 2 0.949504 0.139073 0.306368
595 2 0.62238 0.315256 0.446987
219 1 0.510181 0.477047 0.496915
95 1 0.510606 0.45376 0.493531
97 1 0.510251 0.384015 0.495611
128 1 0.631101 0.385831 0.497359
332 2 0.715912 0.400491 0.458794
9442 2 0.832505 0.322411 0.334593
137 1 0.669433 0.315666 0.499129
914 2 0.589154 0.258256 0.483112
255 1 0.611021 0.488488 0.497684
2190 2 0.712825 0.470457 0.446928
9623 2 0.789349 0.0421352 0.457532
240 1 0.571539 0.488049 0.496743
119 1 0.5893 0.31574 0.495165
117 1 0.592029 0.408451 0.49948
10034 2 0.924518 0.481145 0.422222
108 1 0.549904 0.339047 0.498358
96 1 0.509014 0.407722 0.49533
9815 2 0.745346 0.193201 0.372412
99 1 0.511749 0.314319 0.499061
101 1 0.529828 0.418817 0.499993
124 1 0.608439 0.305471 0.504082
1758 2 0.500483 0.388366 0.548039
143 1 0.689497 0.373513 0.5031
2256 2 0.514024 0.33132 0.553426
9861 2 0.618947 0.087241 0.588135
110 1 0.570651 0.305495 0.502588
140 1 0.686618 0.304297 0.508562
118 1 0.590854 0.385407 0.50421
129 1 0.629729 0.339844 0.501781
116 1 0.591853 0.454239 0.504974
122 1 0.611713 0.442306 0.501441
39 2 0.582105 0.347191 0.54738
9977 2 0.97805 0.0615149 0.709896
144 1 0.688517 0.351087 0.506447
120 1 0.611397 0.373548 0.502453
102 1 0.530272 0.373316 0.503227
10077 2 0.525786 0.355687 0.719008
10097 2 0.933639 0.484423 0.737757
9797 2 0.628023 0.189745 0.61681
132 1 0.651788 0.42052 0.508271
263 1 0.631018 0.47698 0.503276
126 1 0.631953 0.408419 0.505717
275 1 0.672082 0.477707 0.502629
300 2 0.653081 0.377554 0.549136
10070 2 0.940699 0.148828 0.711883
127 1 0.63184 0.454415 0.500471
269 1 0.651078 0.488935 0.504874
2 2 0.562977 0.41227 0.548894
104 1 0.531516 0.305757 0.507714
9742 2 0.791935 0.235667 0.650059
2094 2 0.561072 0.277547 0.546686
9490 2 0.632264 0.405732 0.682701
136 1 0.671797 0.408812 0.505602
131 1 0.652048 0.444394 0.50489
1119 2 0.685666 0.445284 0.55364
10094 2 0.985439 0.0182031 0.538696
125 1 0.629335 0.316716 0.504775
2147 2 0.542745 0.3639 0.620593
103 1 0.530477 0.350147 0.503135
247 1 0.591477 0.477518 0.502782
445 2 0.633927 0.262154 0.529889
421 2 0.652586 0.313502 0.555411
4309 2 0.710669 0.261001 0.529738
225 1 0.530705 0.487823 0.500661
123 1 0.611627 0.419432 0.505605
9911 2 0.745215 0.314483 0.647662
139 1 0.668804 0.339273 0.504803
9222 2 0.722672 0.346157 0.555555
9365 2 0.901593 0.0824926 0.56352
1164 2 0.622233 0.449151 0.554666
9681 2 0.766772 0.244841 0.739913
109 1 0.550997 0.316963 0.506364
9687 2 0.9968 0.100256 0.574868
1992 2 0.737143 0.398667 0.519428
1019 2 0.737529 0.462669 0.507851
7852 2 0.66942 0.446349 0.625853
1210 2 0.560401 0.480844 0.548527
8292 2 0.608105 0.299317 0.641137
9973 2 0.899578 0.269882 0.648595
113 1 0.5701 0.37362 0.500321
111 1 0.571195 0.442346 0.502133
100 1 0.530381 0.442279 0.500359
107 1 0.550326 0.385368 0.502004
9927 2 0.6517 0.0690849 0.715125
9855 2 0.957149 0.337933 0.744798
130 1 0.64877 0.305508 0.500248
10127 2 0.771369 0.467128 0.581554
10128 2 0.983971 0.417344 0.535219
10130 2 0.542928 0.14492 0.504157
41 2 0.50053 0.453861 0.547203
141 1 0.690599 0.421717 0.500131
10032 2 0.756857 0.444903 0.967889
10039 2 0.566963 0.104503 0.956229
10010 2 0.55066 0.324519 0.887034
9559 2 0.624409 0.432357 0.873003
10131 2 0.633934 0.23042 0.800978
9993 2 0.915003 0.230969 0.912745
10112 2 0.545967 0.226926 0.993426
9362 2 0.730608 0.146795 0.929696
9626 2 0.511028 0.417541 0.884452
10066 2 0.667161 0.172615 0.902502
9987 2 0.696947 0.0580839 0.79156
9928 2 0.557022 0.165508 0.821809
10075 2 0.83244 0.185348 0.794655
10068 2 0.600445 0.0967609 0.849382
9983 2 0.839292 0.22119 0.914615
10102 2 0.980544 0.451197 0.934279
10108 2 0.531431 0.0116446 0.969603
10124 2 0.802033 0.445982 0.835356
9850 2 0.958834 0.828788 0.100314
8244 2 0.608399 0.713108 0.177127
9411 2 0.720414 0.894737 0.037429
9495 2 0.943057 0.797844 0.0097752
9936 2 0.981167 0.845793 0.197663
9073 2 0.69053 0.789156 0.0841415
9935 2 0.896507 0.962978 0.0642127
10085 2 0.622857 0.516207 0.209662
9685 2 0.813087 0.985304 0.173464
9991 2 0.650038 0.638002 0.0190672
9520 2 0.565095 0.584864 0.144522
9805 2 0.934201 0.687841 0.0686261
10019 2 0.894928 0.748277 0.118811
9710 2 0.895684 0.924137 0.21432
9486 2 0.963126 0.513146 0.0759292
9616 2 0.565503 0.989853 0.182928
10093 2 0.559244 0.717206 0.00960637
9858 2 0.809167 0.681369 0.208521
9454 2 0.646926 0.885022 0.19348
9925 2 0.867932 0.500103 0.0247139
10009 2 0.789668 0.509397 0.193491
10095 2 0.595043 0.519078 0.108105
10062 2 0.664333 0.626179 0.133874
10071 2 0.930987 0.778559 0.178416
10120 2 0.5368 0.784813 0.0575289
10133 2 0.741121 0.572073 0.106614
10134 2 0.871699 0.837476 0.0840095
10135 2 0.774792 0.7578 0.104545
243 1 0.5695 0.580638 0.495389
9590 2 0.879173 0.752969 0.261089
1534 2 0.628498 0.64352 0.37519
29 2 0.602062 0.611371 0.446992
9132 2 0.579004 0.899142 0.252111
262 1 0.630638 0.522893 0.492944
289 2 0.541118 0.508516 0.449053
264 1 0.629495 0.545509 0.494487
266 1 0.62827 0.660775 0.490997
10081 2 0.751224 0.878251 0.438921
256 1 0.610643 0.511205 0.491827
236 1 0.548893 0.61518 0.49628
28 2 0.593226 0.543681 0.44307
10087 2 0.549609 0.510201 0.325864
7948 2 0.800428 0.571384 0.46152
222 1 0.509876 0.615462 0.4986
244 1 0.569537 0.627298 0.495702
10017 2 0.958021 0.740512 0.321441
366 2 0.544402 0.736923 0.473827
234 1 0.548751 0.544668 0.495559
9555 2 0.644211 0.931638 0.4312
9974 2 0.740099 0.691367 0.358277
1272 2 0.538925 0.580176 0.448775
9382 2 0.985996 0.934339 0.319554
8462 2 0.536848 0.63107 0.256799
283 1 0.689213 0.511932 0.493795
248 1 0.58999 0.521762 0.49348
260 1 0.626532 0.68422 0.491993
258 1 0.610022 0.580406 0.495243
2505 2 0.699578 0.742438 0.478505
9684 2 0.632407 0.782879 0.307347
245 1 0.570092 0.65071 0.498502
242 1 0.568669 0.557007 0.492517
9897 2 0.759373 0.875429 0.277243
274 1 0.669924 0.524052 0.494235
10063 2 0.845014 0.976457 0.353902
238 1 0.548549 0.68432 0.499124
580 2 0.656647 0.55552 0.447331
9425 2 0.635064 0.534541 0.295313
9802 2 0.53607 0.966857 0.440468
385 2 0.588408 0.677626 0.451159
254 1 0.608007 0.649119 0.495509
463 2 0.532548 0.645068 0.451984
261 1 0.629823 0.592146 0.495913
220 1 0.509429 0.54437 0.498084
1586 2 0.513806 0.585087 0.374461
221 1 0.509659 0.591633 0.496022
265 1 0.628406 0.615873 0.497668
9904 2 0.52717 0.765482 0.256752
3630 2 0.624944 0.737627 0.471049
1603 2 0.675548 0.611382 0.458321
2453 2 0.717032 0.544609 0.45706
273 1 0.648587 0.648828 0.495315
9709 2 0.676533 0.96746 0.31398
7255 2 0.731177 0.606136 0.405264
8681 2 0.689158 0.521804 0.381202
419 2 0.730805 0.667629 0.484537
1344 2 0.659327 0.679007 0.444436
218 1 0.509745 0.521732 0.496188
10050 2 0.751872 0.757127 0.258159
249 1 0.589034 0.545045 0.497323
10079 2 0.833245 0.648828 0.301512
280 1 0.668809 0.660311 0.498424
257 1 0.609451 0.55711 0.497266
259 1 0.608141 0.69633 0.499039
267 1 0.646228 0.694051 0.499996
9508 2 0.798577 0.860319 0.632905
224 1 0.508922 0.685117 0.508325
6085 2 0.767332 0.636714 0.581065
9880 2 0.749057 0.926396 0.717374
235 1 0.549535 0.59155 0.501151
1220 2 0.562576 0.684538 0.557292
38 2 0.56342 0.559167 0.547099
10069 2 0.96422 0.551727 0.524819
253 1 0.608333 0.627063 0.500846
296 2 0.561708 0.624214 0.550065
268 1 0.648948 0.556294 0.50179
2026 2 0.701308 0.672846 0.55505
277 1 0.666601 0.590885 0.510621
286 1 0.686571 0.626281 0.512604
9598 2 0.857144 0.536222 0.652548
272 1 0.646954 0.626979 0.504268
278 1 0.666451 0.68297 0.503202
9636 2 0.787853 0.796687 0.503173
270 1 0.650546 0.512301 0.500346
9863 2 0.821885 0.991977 0.710599
9342 2 0.93319 0.745773 0.650458
1877 2 0.624911 0.633644 0.618866
228 1 0.529114 0.579806 0.501164
285 1 0.688305 0.558922 0.501081
306 2 0.622517 0.589402 0.549089
10145 2 0.939111 0.589631 0.659216
10059 2 0.82697 0.653008 0.729924
246 1 0.589253 0.661148 0.503982
1407 2 0.582448 0.743729 0.522292
9334 2 0.621726 0.968201 0.621048
231 1 0.52805 0.69525 0.500361
9010 2 0.748973 0.519265 0.628543
649 2 0.521553 0.652327 0.634603
279 1 0.666126 0.61492 0.513086
291 2 0.690042 0.590916 0.562025
305 2 0.615948 0.516443 0.545524
287 1 0.686814 0.649026 0.507818
9618 2 0.784919 0.521053 0.710716
230 1 0.5294 0.650049 0.506576
11 2 0.516006 0.732736 0.538777
1018 2 0.734764 0.604162 0.50743
427 2 0.630918 0.658777 0.545971
2405 2 0.500174 0.566759 0.626434
2751 2 0.653719 0.732112 0.536414
276 1 0.669553 0.545962 0.501987
9437 2 0.589057 0.69338 0.667815
229 1 0.52973 0.626807 0.503786
446 2 0.67886 0.513318 0.550366
9575 2 0.688657 0.995268 0.516646
227 1 0.528865 0.556338 0.500225
9811 2 0.903335 0.841015 0.662771
251 1 0.588744 0.615199 0.501455
252 1 0.588998 0.684934 0.505262
10114 2 0.951665 0.866719 0.747773
853 2 0.732688 0.533642 0.517106
10101 2 0.570178 0.516031 0.629764
9691 2 0.980986 0.813747 0.536729
223 1 0.509569 0.662585 0.501944
237 1 0.550574 0.661146 0.505556
281 1 0.685431 0.694218 0.500153
9325 2 0.612667 0.847512 0.611771
284 1 0.686773 0.581355 0.504945
852 2 0.500272 0.524436 0.550758
232 1 0.549889 0.522388 0.501678
226 1 0.52938 0.51103 0.502572
250 1 0.589482 0.591945 0.500792
9958 2 0.805721 0.684345 0.501294
10119 2 0.54075 0.906555 0.617737
10012 2 0.61914 0.757788 0.617871
10058 2 0.885039 0.919829 0.564732
239 1 0.568869 0.696215 0.501458
271 1 0.648901 0.579571 0.500214
241 1 0.570534 0.510791 0.501226
9996 2 0.690125 0.73777 0.746185
9883 2 0.833089 0.722987 0.84545
10067 2 0.508451 0.518869 0.832021
9828 2 0.614049 0.519721 0.787741
9169 2 0.986133 0.734623 0.893977
9870 2 0.716277 0.963952 0.862982
9980 2 0.579952 0.669183 0.935406
9160 2 0.978351 0.787468 0.783872
10111 2 0.517607 0.604925 0.899736
9906 2 0.614726 0.795831 0.847786
10107 2 0.925683 0.689328 0.812961
10016 2 0.643695 0.96816 0.94208
9462 2 0.56925 0.947343 0.797527
9898 2 0.945906 0.988651 0.902115
9944 2 0.827918 0.917039 0.834437
9961 2 0.961908 0.614232 0.93537
9948 2 0.756867 0.612732 0.939155
9379 2 0.519893 0.852009 0.795721
10089 2 0.665498 0.589763 0.841029
10091 2 0.967132 0.866938 0.857388
10139 2 0.929273 0.609726 0.831924
