
     Program PWSCF v.7.3.1 starts on  5Aug2024 at 10:54:16 

     This program is part of the open-source Quantum ESPRESSO suite
     for quantum simulation of materials; please cite
         "P. Giannozzi et al., J. Phys.:Condens. Matter 21 395502 (2009);
         "P. Giannozzi et al., J. Phys.:Condens. Matter 29 465901 (2017);
         "P. Giannozzi et al., J. Chem. Phys. 152 154105 (2020);
          URL http://www.quantum-espresso.org", 
     in publications or presentations arising from this work. More details at
     http://www.quantum-espresso.org/quote

     Parallel version (MPI & OpenMP), running on       2 processor cores
     Number of MPI processes:                 2
     Threads/MPI process:                     1

     MPI processes distributed on     1 nodes
     832 MiB available memory on the printing compute node when the environment starts

     Reading input from test.in

     Current dimensions of program PWSCF are:
     Max number of different atomic species (ntypx) = 10
     Max number of k-points (npk) =  40000
     Max angular momentum in pseudopotentials (lmaxx) =  4

     IMPORTANT: XC functional enforced from input :
     Exchange-correlation= LDA
                           (   1   1   0   0   0   0   0)
     Any further DFT definition will be discarded
     Please, verify this is what you really want

     Found identity + ( -0.5000  0.0000  0.0000) symmetry
     This is a supercell, fractional translations are disabled

     R & G space division:  proc/nbgrp/npool/nimage =       2
     Subspace diagonalization in iterative solution of the eigenvalue problem:
     a serial algorithm will be used


     Parallelization info
     --------------------
     sticks:   dense  smooth     PW     G-vecs:    dense   smooth      PW
     Min         351     351    105                13229    13229    2231
     Max         352     352    106                13234    13234    2234
     Sum         703     703    211                26463    26463    4465

     Using Slab Decomposition



     bravais-lattice index     =            4
     lattice parameter (alat)  =       8.0000  a.u.
     unit-cell volume          =     775.9595 (a.u.)^3
     number of atoms/cell      =           24
     number of atomic types    =            1
     number of electrons       =        96.00
     number of Kohn-Sham states=           58
     kinetic-energy cutoff     =      40.0000  Ry
     charge density cutoff     =     160.0000  Ry
     scf convergence threshold =      1.0E-06
     mixing beta               =       0.7000
     number of iterations used =            8  plain     mixing
     energy convergence thresh.=      1.0E-04
     force convergence thresh. =      1.0E-03
     press convergence thresh. =      5.0E-01
     Exchange-correlation= LDA
                           (   1   1   0   0   0   0   0)
     nstep                     =           50


     celldm(1)=   8.000004  celldm(2)=   0.000000  celldm(3)=   1.749999
     celldm(4)=   0.000000  celldm(5)=   0.000000  celldm(6)=   0.000000

     crystal axes: (cart. coord. in units of alat)
               a(1) = (   1.000000   0.000000   0.000000 )  
               a(2) = (  -0.500000   0.866025   0.000000 )  
               a(3) = (   0.000000   0.000000   1.749999 )  

     reciprocal axes: (cart. coord. in units 2 pi/alat)
               b(1) = (  1.000000  0.577350 -0.000000 )  
               b(2) = (  0.000000  1.154701  0.000000 )  
               b(3) = (  0.000000 -0.000000  0.571429 )  


     PseudoPot. # 1 for C  read from file:
     /home/edoardocabiati/.burai/.pseudopot/C.pz-n-rrkjus_psl.0.1.UPF
     MD5 check sum: a3cecbabebb5b3a1aff122f23eb09bb0
     Pseudo is Ultrasoft + core correction, Zval =  4.0
     Generated using "atomic" code by A. Dal Corso  v.5.0.2 svn rev. 9415
     Using radial grid of 1073 points,  4 beta functions with: 
                l(1) =   0
                l(2) =   0
                l(3) =   1
                l(4) =   1
     Q(r) pseudized with 0 coefficients 


     atomic species   valence    mass     pseudopotential
     C                 4.00    12.01100     C ( 1.00)

     12 Sym. Ops. (no inversion) found



   Cartesian axes

     site n.     atom                  positions (alat units)
         1        C      tau(   1) = (   0.0000000   0.0000000   0.2916653  )
         2        C      tau(   2) = (   0.0000000   0.0000000   0.8749994  )
         3        C      tau(   3) = (   0.0000000   0.0000000   1.4583318  )
         4        C      tau(   4) = (  -0.0000005   0.2886748   0.2916653  )
         5        C      tau(   5) = (   0.2500000   0.1443370   0.8749994  )
         6        C      tau(   6) = (  -0.0000005   0.2886748   1.4583318  )
         7        C      tau(   7) = (   0.5000000   0.0000000   0.2916653  )
         8        C      tau(   8) = (   0.5000000   0.0000000   0.8749994  )
         9        C      tau(   9) = (   0.5000000   0.0000000   1.4583318  )
        10        C      tau(  10) = (   0.4999995   0.2886748   0.2916653  )
        11        C      tau(  11) = (   0.7500000   0.1443370   0.8749994  )
        12        C      tau(  12) = (   0.4999995   0.2886748   1.4583318  )
        13        C      tau(  13) = (  -0.2500000   0.4330127   0.2916653  )
        14        C      tau(  14) = (  -0.2500000   0.4330127   0.8749994  )
        15        C      tau(  15) = (  -0.2500000   0.4330127   1.4583318  )
        16        C      tau(  16) = (  -0.2500005   0.7216875   0.2916653  )
        17        C      tau(  17) = (   0.0000000   0.5773497   0.8749994  )
        18        C      tau(  18) = (  -0.2500005   0.7216875   1.4583318  )
        19        C      tau(  19) = (   0.2500000   0.4330127   0.2916653  )
        20        C      tau(  20) = (   0.2500000   0.4330127   0.8749994  )
        21        C      tau(  21) = (   0.2500000   0.4330127   1.4583318  )
        22        C      tau(  22) = (   0.2499995   0.7216875   0.2916653  )
        23        C      tau(  23) = (   0.5000000   0.5773497   0.8749994  )
        24        C      tau(  24) = (   0.2499995   0.7216875   1.4583318  )

     number of k points=    24  Gaussian smearing, width (Ry)=  0.0100
                       cart. coord. in units 2pi/alat
        k(    1) = (   0.0833333   0.1443376   0.0952382), wk =   0.0740741
        k(    2) = (   0.0833333   0.1443376  -0.2857145), wk =   0.0370370
        k(    3) = (   0.0833333   0.3367877   0.0952382), wk =   0.1481481
        k(    4) = (   0.0833333   0.3367877  -0.2857145), wk =   0.0740741
        k(    5) = (   0.0833333   0.5292377   0.0952382), wk =   0.1481481
        k(    6) = (   0.0833333   0.5292377  -0.2857145), wk =   0.0740741
        k(    7) = (   0.0833333  -0.4330127   0.0952382), wk =   0.1481481
        k(    8) = (   0.0833333  -0.4330127  -0.2857145), wk =   0.0740741
        k(    9) = (   0.0833333  -0.2405626   0.0952382), wk =   0.1481481
        k(   10) = (   0.0833333  -0.2405626  -0.2857145), wk =   0.0740741
        k(   11) = (   0.0833333  -0.0481125   0.0952382), wk =   0.0740741
        k(   12) = (   0.0833333  -0.0481125  -0.2857145), wk =   0.0370370
        k(   13) = (   0.2500000   0.4330127   0.0952382), wk =   0.0740741
        k(   14) = (   0.2500000   0.4330127  -0.2857145), wk =   0.0370370
        k(   15) = (   0.2500000   0.6254628   0.0952382), wk =   0.1481481
        k(   16) = (   0.2500000   0.6254628  -0.2857145), wk =   0.0740741
        k(   17) = (   0.2500000  -0.3367877   0.0952382), wk =   0.1481481
        k(   18) = (   0.2500000  -0.3367877  -0.2857145), wk =   0.0740741
        k(   19) = (   0.2500000  -0.1443376   0.0952382), wk =   0.0740741
        k(   20) = (   0.2500000  -0.1443376  -0.2857145), wk =   0.0370370
        k(   21) = (   0.4166667   0.7216878   0.0952382), wk =   0.0740741
        k(   22) = (   0.4166667   0.7216878  -0.2857145), wk =   0.0370370
        k(   23) = (   0.4166667  -0.2405626   0.0952382), wk =   0.0740741
        k(   24) = (   0.4166667  -0.2405626  -0.2857145), wk =   0.0370370

     Dense  grid:    26463 G-vectors     FFT dimensions: (  36,  36,  60)

     Estimated max dynamical RAM per process >      73.21 MB

     Estimated total dynamical RAM >     146.42 MB

     Check: negative core charge=   -0.000046

     Initial potential from superposition of free atoms

     starting charge      95.9992, renormalised to      96.0000
     Starting wfcs are   96 randomized atomic wfcs

     total cpu time spent up to now is       11.9 secs

     Self-consistent Calculation

     iteration #  1     ecut=    40.00 Ry     beta= 0.70
     Davidson diagonalization with overlap
     ethr =  1.00E-02,  avg # of iterations =  5.5

     total cpu time spent up to now is       46.1 secs

     total energy              =    -282.99527914 Ry
     estimated scf accuracy    <       5.19935177 Ry

     iteration #  2     ecut=    40.00 Ry     beta= 0.70
     Davidson diagonalization with overlap
     ethr =  5.42E-03,  avg # of iterations =  2.1

     total cpu time spent up to now is       66.1 secs

     total energy              =    -283.41505267 Ry
     estimated scf accuracy    <       0.17026154 Ry

     iteration #  3     ecut=    40.00 Ry     beta= 0.70
     Davidson diagonalization with overlap
     ethr =  1.77E-04,  avg # of iterations = 10.1

     total cpu time spent up to now is      107.2 secs

     total energy              =    -283.63500668 Ry
     estimated scf accuracy    <       0.07458476 Ry

     iteration #  4     ecut=    40.00 Ry     beta= 0.70
     Davidson diagonalization with overlap
     ethr =  7.77E-05,  avg # of iterations =  4.7

     total cpu time spent up to now is      131.6 secs

     total energy              =    -283.65034531 Ry
     estimated scf accuracy    <       0.00388828 Ry

     iteration #  5     ecut=    40.00 Ry     beta= 0.70
     Davidson diagonalization with overlap
     c_bands:  1 eigenvalues not converged
     c_bands:  2 eigenvalues not converged
     c_bands:  1 eigenvalues not converged
     ethr =  4.05E-06,  avg # of iterations = 11.0

     total cpu time spent up to now is      177.5 secs

     total energy              =    -283.65083693 Ry
     estimated scf accuracy    <       0.01137618 Ry

     iteration #  6     ecut=    40.00 Ry     beta= 0.70
     Davidson diagonalization with overlap
     ethr =  4.05E-06,  avg # of iterations =  4.5

     total cpu time spent up to now is      197.9 secs

     total energy              =    -283.65094137 Ry
     estimated scf accuracy    <       0.00122531 Ry

     iteration #  7     ecut=    40.00 Ry     beta= 0.70
     Davidson diagonalization with overlap
     ethr =  1.28E-06,  avg # of iterations =  5.1

     total cpu time spent up to now is      227.8 secs

     total energy              =    -283.65156315 Ry
     estimated scf accuracy    <       0.00009500 Ry

     iteration #  8     ecut=    40.00 Ry     beta= 0.70
     Davidson diagonalization with overlap
     ethr =  9.90E-08,  avg # of iterations =  5.0

     total cpu time spent up to now is      259.5 secs

     total energy              =    -283.65159377 Ry
     estimated scf accuracy    <       0.00011814 Ry

     iteration #  9     ecut=    40.00 Ry     beta= 0.70
     Davidson diagonalization with overlap
     ethr =  9.90E-08,  avg # of iterations =  1.0

     total cpu time spent up to now is      275.2 secs

     total energy              =    -283.65155117 Ry
     estimated scf accuracy    <       0.00008121 Ry

     iteration # 10     ecut=    40.00 Ry     beta= 0.70
     Davidson diagonalization with overlap
     ethr =  8.46E-08,  avg # of iterations =  2.0

     total cpu time spent up to now is      293.8 secs

     total energy              =    -283.65155350 Ry
     estimated scf accuracy    <       0.00000766 Ry

     iteration # 11     ecut=    40.00 Ry     beta= 0.70
     Davidson diagonalization with overlap
     ethr =  7.98E-09,  avg # of iterations =  4.8

     total cpu time spent up to now is      326.3 secs

     End of self-consistent calculation

          k = 0.0833 0.1443 0.0952 (  3299 PWs)   bands (ev):

    -8.5860  -7.6165  -6.9310  -2.9040  -2.9040  -2.1675  -2.1674  -1.6989
    -1.6989  -1.3792  -1.0538  -0.7297  -0.2093   0.2725   0.6075   0.8394
     0.8394   1.4800   1.4800   1.8730   1.8730   2.2191   4.0401   7.0264
     7.3058   7.4653   7.6381   7.6381   7.8810   7.8811   8.0199   8.0199
     8.0472   9.3424   9.3424  10.5957  10.7834  10.7834  11.7539  12.2662
    12.4010  12.4549  12.5152  12.6059  12.6598  13.4337  13.4703  13.4703
    15.7726  16.6620  16.6620  17.8752  18.2008  18.2008  19.5888  20.8293
    20.8293  22.6090

          k = 0.0833 0.1443-0.2857 (  3308 PWs)   bands (ev):

    -8.2706  -8.2050  -6.6015  -2.6617  -2.6617  -2.6005  -2.6005  -1.4938
    -1.4938  -1.2613  -1.1065  -0.7881  -0.3443   0.2394   0.7985   1.0237
     1.0237   1.1394   1.1395   1.4924   2.0473   2.0473   6.2791   6.2885
     7.1117   7.1595   7.5270   7.7114   7.7115   7.7561   7.7561   8.0721
     8.0721   8.7829   8.7830  10.1371  12.0714  12.0714  12.0724  12.2904
    12.3811  12.4634  12.4826  12.5987  12.6870  12.7384  12.7384  13.6676
    16.1791  16.4026  16.4026  17.9194  18.6951  19.2147  19.2147  19.7015
    19.7016  25.1696

          k = 0.0833 0.3368 0.0952 (  3318 PWs)   bands (ev):

    -8.0435  -7.0934  -6.4277  -4.8515  -4.0229  -3.6121  -3.4712  -2.8349
    -2.3283  -1.8129  -1.1334  -0.7184   0.7098   1.3407   1.7272   2.3787
     2.9226   2.9532   3.2999   3.5356   4.0707   4.3894   4.7194   5.4465
     5.8320   6.0552   6.6540   6.9784   7.0367   7.1634   8.2221   8.4535
     8.5903   8.5936   8.6861   8.6947  10.1415  10.4688  10.6366  10.7170
    10.8433  11.2490  11.4341  11.5320  11.9703  12.2537  13.4185  14.1936
    16.2643  17.8721  18.0196  19.3288  19.6733  19.7137  20.9710  21.8207
    23.0774  23.6865

          k = 0.0833 0.3368-0.2857 (  3326 PWs)   bands (ev):

    -7.7340  -7.6689  -6.1105  -4.5795  -4.5176  -3.3564  -3.2959  -3.2204
    -2.1021  -1.5894  -1.5275  -0.5426   0.8799   1.0198   1.8995   2.2098
     2.5527   2.6398   3.4506   3.6972   3.7820   4.5309   5.5659   5.6241
     6.1466   6.3973   6.7529   6.8078   6.9415   6.9437   7.2395   7.9883
     8.2934   8.3388   8.6464  10.1191  10.5311  10.6057  10.6337  10.7606
    10.8941  11.2881  11.3576  11.5706  11.8869  12.1562  12.8740  13.8789
    16.2559  17.6362  18.2554  19.0348  19.2427  20.4144  20.9517  22.2791
    22.6192  25.4242

          k = 0.0833 0.5292 0.0952 (  3319 PWs)   bands (ev):

    -7.0741  -6.4332  -6.1596  -5.5427  -5.5287  -4.9346  -3.9206  -3.1284
    -2.6083  -2.0995  -1.3865  -0.9329   2.5218   3.0717   3.3975   3.5093
     4.0067   4.1198   4.1761   4.3025   4.6050   4.8808   4.9953   5.0719
     5.4775   5.7237   5.9203   6.3920   6.6242   6.9675   7.1105   7.8547
     8.2263   8.2453   8.4212   9.2281   9.4551   9.5823   9.8279   9.8362
     9.8717  10.0755  10.1982  10.4845  10.5771  11.9387  13.3122  14.9239
    16.7974  17.9763  19.1813  19.9357  20.2807  22.1687  23.4802  24.0067
    24.4650  24.8275

          k = 0.0833 0.5292-0.2857 (  3316 PWs)   bands (ev):

    -6.7756  -6.7113  -6.1421  -6.0784  -5.2325  -4.6518  -3.6602  -3.5994
    -2.3746  -1.8639  -1.8060  -0.7347   2.6913   2.7701   3.4895   3.5350
     3.6603   3.7392   4.2669   4.3317   4.3448   4.4293   5.0041   5.1829
     5.2665   5.8296   6.5343   6.6100   7.1757   7.6270   7.8471   7.9317
     8.1821   8.2213   8.5439   8.8758   8.9155   9.3014   9.3442   9.6330
     9.9202   9.9301   9.9695  10.2432  11.7241  11.8778  13.4690  13.8749
    16.5062  18.6004  18.8800  19.5298  20.9006  21.8183  23.1182  25.0359
    25.5816  25.8111

          k = 0.0833-0.4330 0.0952 (  3321 PWs)   bands (ev):

    -7.6115  -6.6771  -6.0270  -5.6913  -4.8292  -4.2474  -3.8175  -3.0302
    -2.5144  -2.0024  -1.2985  -0.8546   1.5778   2.1743   2.5354   3.2379
     3.4821   3.7711   4.0894   4.4940   4.9371   4.9567   5.1969   5.2580
     5.4368   5.6743   5.8936   6.0301   6.2700   6.4870   7.6698   8.3616
     8.6786   8.9123   9.0436   9.1613   9.2630   9.5302   9.7001   9.9397
    10.5431  10.5441  10.7474  10.8598  11.3955  11.9598  13.3535  14.6470
    16.5973  17.9088  18.7157  19.8621  19.9142  21.5425  22.0879  22.7467
    23.4884  25.1996

          k = 0.0833-0.4330-0.2857 (  3312 PWs)   bands (ev):

    -7.3069  -7.2421  -5.7193  -5.4089  -5.3460  -3.9797  -3.5586  -3.4979
    -2.2832  -1.7699  -1.7114  -0.6619   1.7552   1.8524   2.6926   2.7806
     3.4005   3.4808   4.2270   4.6314   4.6961   5.0769   5.1888   5.3055
     5.3399   5.8474   6.0087   6.0700   6.5785   7.4570   7.4624   7.7486
     8.7440   8.7914   9.0907   9.3156   9.3816   9.7303   9.7642   9.7967
    10.0014  10.5965  10.6524  10.9026  11.7836  11.9723  13.2655  13.8836
    16.3693  18.3636  18.4932  19.3310  20.7818  21.1364  21.4947  23.9491
    24.2679  25.6499

          k = 0.0833-0.2406 0.0952 (  3310 PWs)   bands (ev):

    -8.3687  -7.4069  -6.7294  -3.9190  -3.3064  -3.1302  -2.6138  -2.5455
    -2.0536  -1.5503  -0.9467  -0.6337   0.0354   0.6348   1.0230   1.5720
     2.1503   2.1828   2.5010   2.5547   2.7405   3.0983   4.3125   6.3120
     6.6410   6.8298   7.2596   7.5366   7.6942   7.8726   8.1141   8.1763
     8.2598   8.3076   8.9227   9.7467  10.4302  10.6935  11.5131  11.7065
    11.7871  11.9132  11.9304  12.0813  12.1568  13.0387  13.4720  13.7358
    15.9357  17.2962  17.8863  17.9888  18.7075  19.3700  19.5709  21.3710
    22.1867  22.7859

          k = 0.0833-0.2406-0.2857 (  3312 PWs)   bands (ev):

    -8.0556  -7.9902  -6.4049  -3.6596  -3.5987  -3.0559  -2.9955  -2.3823
    -1.8355  -1.3547  -1.2737  -0.5150   0.1119   0.4145   1.2079   1.7541
     1.7798   1.8515   2.3281   2.4193   2.7178   3.2549   6.4135   6.4660
     6.5451   6.5518   6.9053   7.3436   7.3926   7.5745   7.7563   7.9472
     7.9913   8.3042   8.3382  10.2128  11.5017  11.5515  11.6366  11.7744
    11.8216  11.9382  12.0001  12.0387  12.1893  12.4058  12.4182  13.8201
    16.2218  16.9338  17.5706  17.9951  18.7829  19.8501  20.3185  20.6702
    21.0510  25.2510

          k = 0.0833-0.0481 0.0952 (  3283 PWs)   bands (ev):

    -8.6948  -7.7214  -7.0320  -2.4122  -1.8512  -1.8512  -1.7147  -1.2889
    -1.2440  -1.2440  -0.9276  -0.9276  -0.2098  -0.2097   0.2108   0.4002
     0.4002   0.7969   0.7969   0.8680   1.2745   2.0779   3.9036   7.5193
     7.5194   7.7317   7.7633   7.7633   7.9029   7.9029   7.9164   7.9625
     8.0948   9.8160  10.2737  10.2737  11.1609  11.5006  11.5006  12.6665
    12.7354  12.8197  12.8825  12.8835  12.9442  13.3460  13.3460  13.4029
    15.8581  15.8581  16.1712  17.8387  17.8388  17.9097  19.8485  19.8485
    20.2925  22.5293

          k = 0.0833-0.0481-0.2857 (  3300 PWs)   bands (ev):

    -8.3782  -8.3126  -6.7000  -2.1839  -2.1187  -1.6556  -1.6556  -1.5705
    -1.5705  -1.1082  -0.8097  -0.8097  -0.1375  -0.1375   0.1814   0.1814
     0.3805   0.5410   0.9873   0.9873   1.3485   1.4583   6.1457   6.1563
     7.5931   7.5932   7.6375   7.6375   7.8013   7.8444   7.9551   7.9551
     8.1434   9.2909   9.7904   9.7905  12.0032  12.0032  12.0590  12.6871
    12.7550  12.7733  12.8395  12.9084  12.9689  13.0849  13.4117  13.4118
    16.1001  16.1001  16.1291  18.1483  18.1483  18.6159  18.8313  18.8314
    19.1834  25.1533

          k = 0.2500 0.4330 0.0952 (  3317 PWs)   bands (ev):

    -7.2888  -6.3663  -5.7277  -5.3760  -5.3760  -4.5260  -4.5259  -3.9550
    -3.9550  -0.1585   0.1036   0.4259   0.7937   1.1973   1.4880   3.2942
     3.7991   3.9000   4.0984   5.1138   5.1138   5.5750   5.5750   5.6597
     5.8279   5.8279   6.3964   6.3964   7.4411   7.4412   7.7177   7.7177
     7.9239   7.9240   8.1239   8.1240   8.9166   9.1586   9.2760   9.5581
     9.6366   9.7919   9.8917  11.7624  11.7624  12.2709  13.3631  14.8292
    15.4838  17.3185  18.4763  21.3895  21.3896  22.5059  22.5059  23.8569
    24.6042  24.6043

          k = 0.2500 0.4330-0.2857 (  3326 PWs)   bands (ev):

    -6.9878  -6.9233  -5.4269  -5.0974  -5.0974  -5.0348  -5.0348  -3.6935
    -3.6935  -0.0396   0.0917   0.3448   0.6207   1.1929   1.6590   3.2070
     3.4484   3.5247   4.2260   5.2444   5.2445   5.3346   5.3346   5.7363
     5.7363   5.9642   5.9642   7.5331   7.5331   7.5920   7.5920   7.8372
     7.8482   7.9984   7.9984   8.9725   9.0934   9.2996   9.6003   9.7742
     9.9297  10.1095  10.1095  10.1827  10.1827  11.8114  13.5360  15.3077
    15.9330  17.0299  17.9924  21.0458  21.0458  23.3839  23.3840  23.9941
    23.9941  26.0142

          k = 0.2500 0.6255 0.0952 (  3313 PWs)   bands (ev):

    -6.7534  -6.1149  -5.8507  -5.4814  -5.2363  -5.2312  -4.6394  -4.6272
    -4.0524  -0.0851   0.4833   0.7740   1.2537   1.7972   2.1083   2.2676
     2.7954   3.1266   4.5912   5.4060   5.8839   6.2082   6.2987   6.3169
     6.4957   6.5305   6.8247   6.8691   7.1080   7.1461   7.2190   7.3570
     7.8107   7.9861   8.0210   8.1397   8.2972   8.3147   8.4696   8.7293
     8.9670   9.0965  10.2224  10.9483  11.6604  12.6850  13.8449  14.9433
    15.5201  16.6964  18.3880  21.9190  22.9407  23.1623  24.1696  24.4129
    24.7100  24.8887

          k = 0.2500 0.6255-0.2857 (  3322 PWs)   bands (ev):

    -6.4585  -6.3945  -5.8275  -5.7641  -5.2016  -5.1388  -4.9417  -4.3630
    -3.7887   0.1044   0.1670   0.8885   1.3559   1.5712   2.2531   2.3904
     2.5431   3.2740   3.9134   4.7524   5.5757   6.0239   6.0997   6.6081
     6.6108   6.6877   6.9141   7.0274   7.2139   7.4305   7.8735   7.9628
     8.0685   8.1467   8.3407   8.4237   8.5027   8.5148   8.8488   8.9002
     9.1881   9.2792   9.3279  10.0022  10.0665  12.2002  14.0928  15.2931
    15.7813  16.9628  17.6370  21.6461  22.8761  23.5269  24.3639  24.6451
    24.8501  25.5157

          k = 0.2500-0.3368 0.0952 (  3323 PWs)   bands (ev):

    -7.7194  -6.7811  -6.1270  -5.1657  -4.5401  -4.3241  -3.7609  -3.7234
    -3.1821  -0.9550  -0.3600  -0.0533   0.5254   1.1050   1.4767   3.3426
     3.7342   4.2529   4.3123   4.3843   4.5607   4.8127   4.8300   5.0912
     5.1054   5.1242   6.6481   6.9851   7.3081   7.4021   7.5485   7.9434
     8.1723   8.3361   8.3975   9.0753   9.0763   9.7519  10.0050  10.1245
    10.4946  10.6808  10.7798  11.5203  11.9629  12.6210  12.7245  14.4738
    15.8584  17.6809  18.9442  19.6363  20.5749  20.8523  21.7953  23.1992
    23.4042  24.2595

          k = 0.2500-0.3368-0.2857 (  3320 PWs)   bands (ev):

    -7.4135  -7.3486  -5.8170  -4.8897  -4.8274  -4.2719  -4.2103  -3.5037
    -2.9371  -0.7599  -0.6869   0.0665   0.6115   0.8806   1.6506   2.6382
     3.8914   3.9727   4.4623   4.5226   4.5459   4.5873   4.6956   5.2002
     5.2397   5.9979   6.8027   7.0993   7.1459   7.3315   7.3344   7.5685
     8.0268   8.0773   8.4274   9.8112   9.9021  10.1687  10.3216  10.4143
    10.5138  10.6221  10.8237  11.0110  11.0432  11.1426  13.1826  14.6272
    16.1826  17.5099  18.4827  19.2540  20.1739  21.8866  22.4424  22.9486
    23.3705  25.6789

          k = 0.2500-0.1443 0.0952 (  3310 PWs)   bands (ev):

    -8.2602  -7.3023  -6.6287  -4.4351  -3.6240  -3.0878  -2.6019  -2.6019
    -1.8759  -1.8759  -1.4153  -1.4153   1.0859   1.0859   1.7118   1.7118
     2.0940   2.0940   2.6417   2.8091   3.3742   3.7142   4.4484   6.4266
     6.4266   6.7541   6.7541   6.9419   6.9419   7.5503   8.2048   8.4316
     8.4371   8.5615   9.1565   9.7504   9.7504  11.0848  11.1837  11.1837
    11.3132  11.4310  11.7314  11.9087  12.0011  12.6203  13.8704  13.8704
    16.7272  16.7272  18.1967  18.1967  18.7919  20.1404  20.5423  20.5424
    22.8763  22.9720

          k = 0.2500-0.1443-0.2857 (  3320 PWs)   bands (ev):

    -7.9483  -7.8830  -6.3067  -4.1687  -4.1072  -2.8456  -2.3628  -2.3628
    -2.3025  -2.3025  -1.2142  -1.2141   1.2681   1.2681   1.3772   1.3772
     1.9233   2.2625   2.2625   2.9799   3.0674   3.8634   6.5273   6.5273
     6.5803   6.5804   6.6775   6.6828   6.9253   7.0173   7.0173   8.2726
     8.3162   8.6093   9.1958   9.1958  11.0342  11.1403  11.2114  11.2170
    11.4782  11.7718  11.8329  12.0359  12.4771  12.4772  13.1289  13.1290
    16.4863  16.4863  18.3547  19.0453  19.0453  19.6454  19.6455  21.4930
    21.8282  25.2924

          k = 0.4167 0.7217 0.0952 (  3319 PWs)   bands (ev):

    -6.6465  -6.6465  -5.7479  -5.7479  -5.1322  -5.1322  -4.7488  -3.9232
    -3.3740  -1.1185  -0.4545  -0.0426   2.2875   2.3271   2.8167   2.8907
     3.1544   3.2930   4.7268   4.7268   5.2860   5.5343   5.7751   5.9370
     6.1189   6.2161   6.4320   6.4320   7.1663   7.1664   7.2140   7.5639
     7.5640   7.7631   7.7631   8.8455   9.0477   9.0478   9.2995   9.2995
     9.4356   9.4356  10.3407  10.3407  11.6364  12.4593  13.0016  15.5846
    15.7782  17.0237  19.0340  20.5869  21.6331  23.4217  24.2737  24.2738
    24.5500  24.5502

          k = 0.4167 0.7217-0.2857 (  3322 PWs)   bands (ev):

    -6.3529  -6.3529  -6.2890  -6.2890  -4.8450  -4.8450  -4.4779  -4.4160
    -3.1245  -0.8983  -0.8423   0.1335   2.4198   2.5314   2.5448   2.5802
     3.2635   3.4490   4.0532   4.0532   5.3886   5.5029   5.7297   5.7599
     6.2084   6.3078   6.5610   7.2492   7.2492   7.3283   7.3283   7.8302
     7.8302   8.6157   8.6158   8.6575   8.6575   9.1430   9.1430   9.1832
     9.1832   9.5002   9.5002  10.8287  10.9255  11.1175  14.2200  14.8866
    15.5247  17.6622  18.5247  20.3095  22.1902  23.1147  24.0183  24.0183
    25.9952  25.9954

          k = 0.4167-0.2406 0.0952 (  3320 PWs)   bands (ev):

    -7.3962  -6.4697  -6.1144  -5.8273  -5.2360  -4.6392  -3.0021  -3.0021
    -2.2490  -2.2490  -1.7623  -1.7623   2.8319   2.8319   3.3761   3.3761
     3.7016   3.7016   3.7603   4.7144   4.7144   5.1512   5.1513   5.3683
     5.4076   5.4076   5.5244   5.7059   6.1012   6.4079   7.1759   8.5552
     8.9003   9.0748   9.1145   9.3327   9.3790   9.3790   9.4571   9.4759
    10.3648  10.5674  10.6807  10.9019  10.9019  10.9306  14.1352  14.1352
    17.7819  17.7819  18.9613  18.9613  20.9771  20.9771  22.5262  23.6806
    23.6826  24.9899

          k = 0.4167-0.2406-0.2857 (  3316 PWs)   bands (ev):

    -7.0940  -7.0294  -5.8270  -5.7637  -5.5243  -4.3630  -2.7540  -2.7540
    -2.6945  -2.6945  -1.5465  -1.5465   2.9987   2.9987   3.0647   3.0783
     3.0783   3.8416   3.8416   4.7457   4.8493   4.8493   4.9143   4.9143
     5.5152   5.5152   5.8132   5.8848   6.5010   7.6993   7.7122   8.6811
     8.7359   8.7934   8.7934   9.1690   9.1784   9.2235   9.2470   9.2951
     9.5027  10.4206  10.4699  10.7224  12.6164  12.6164  12.8901  12.8901
    17.4650  17.4650  19.6654  19.6654  20.5251  20.5251  22.1302  24.8536
    25.1001  25.5811

     the Fermi energy is    15.4543 ev

!    total energy              =    -283.65155801 Ry
     estimated scf accuracy    <       0.00000031 Ry
     smearing contrib. (-TS)   =      -0.00078006 Ry
     internal energy E=F+TS    =    -283.65077795 Ry

     The total energy is F=E-TS. E is the sum of the following terms:
     one-electron contribution =      57.60813969 Ry
     hartree contribution      =      49.69903067 Ry
     xc contribution           =    -109.27752988 Ry
     ewald contribution        =    -281.68041842 Ry

     convergence has been achieved in  11 iterations

     Forces acting on atoms (cartesian axes, Ry/au):

     atom    1 type  1   force =    -0.00000000   -0.00000000    0.01992092
     atom    2 type  1   force =     0.00000000    0.00000000    0.00000000
     atom    3 type  1   force =     0.00000000   -0.00000000   -0.01992092
     atom    4 type  1   force =    -0.00000000   -0.00000173    0.01109385
     atom    5 type  1   force =    -0.00000165   -0.00000095    0.00000000
     atom    6 type  1   force =     0.00000000   -0.00000173   -0.01109385
     atom    7 type  1   force =    -0.00000000    0.00000117    0.01991992
     atom    8 type  1   force =     0.00000000    0.00000414   -0.00000000
     atom    9 type  1   force =     0.00000000    0.00000117   -0.01991992
     atom   10 type  1   force =     0.00000000    0.00000000    0.01109211
     atom   11 type  1   force =     0.00000165   -0.00000095    0.00000000
     atom   12 type  1   force =     0.00000000    0.00000000   -0.01109211
     atom   13 type  1   force =    -0.00000101   -0.00000058    0.01991992
     atom   14 type  1   force =    -0.00000359   -0.00000207    0.00000000
     atom   15 type  1   force =    -0.00000101   -0.00000058   -0.01991992
     atom   16 type  1   force =    -0.00000150    0.00000086    0.01109385
     atom   17 type  1   force =    -0.00000000    0.00000000    0.00000000
     atom   18 type  1   force =    -0.00000150    0.00000086   -0.01109385
     atom   19 type  1   force =     0.00000101   -0.00000058    0.01991992
     atom   20 type  1   force =     0.00000359   -0.00000207    0.00000000
     atom   21 type  1   force =     0.00000101   -0.00000058   -0.01991992
     atom   22 type  1   force =     0.00000150    0.00000086    0.01109385
     atom   23 type  1   force =     0.00000000    0.00000190   -0.00000000
     atom   24 type  1   force =     0.00000150    0.00000086   -0.01109385

     Total force =     0.064490     Total SCF correction =     0.001762


     Computing stress (Cartesian axis) and pressure

          total   stress  (Ry/bohr**3)                   (kbar)     P=     3248.12
   0.03075882   0.00000000   0.00000000         4524.78        0.00        0.00
   0.00000000   0.03075882  -0.00000000            0.00     4524.78       -0.00
   0.00000000  -0.00000000   0.00472327            0.00       -0.00      694.82


     BFGS Geometry Optimization
     Energy error            =      0.0E+00 Ry
     Gradient error          =      2.0E-02 Ry/Bohr
     Cell gradient error     =      4.5E+03 kbar

     number of scf cycles    =   1
     number of bfgs steps    =   0

     enthalpy           new  =    -283.6515580097 Ry

     new trust radius        =       0.5000000000 bohr
     new conv_thr            =       0.0000010000 Ry

     new unit-cell volume =    934.18918 a.u.^3 (   138.43255 Ang^3 )
     density =      3.45781 g/cm^3

CELL_PARAMETERS (alat=  8.00000437)
   1.089747111   0.000000000   0.000000000
  -0.544873556   0.943748682  -0.000000000
   0.000000000  -0.000000000   1.774116252

ATOMIC_POSITIONS (crystal)
C               -0.0000000000       -0.0000000000        0.1668320704
C                0.0000000000        0.0000000000        0.5000000000
C                0.0000000000       -0.0000000000        0.8331669296
C                0.1666659855        0.3333329709        0.1667584837
C                0.3333329680        0.1666659840        0.5000000000
C                0.1666659855        0.3333329709        0.8332405163
C                0.5000000098        0.0000000196        0.1668320621
C                0.5000000349        0.0000000697        0.5000000000
C                0.5000000098        0.0000000196        0.8331669379
C                0.6666660000        0.3333330000        0.1667584692
C                0.8333330160        0.1666659840        0.5000000000
C                0.6666660000        0.3333330000        0.8332405308
C               -0.0000000196        0.4999999902        0.1668320621
C               -0.0000000697        0.4999999651        0.5000000000
C               -0.0000000196        0.4999999902        0.8331669379
C                0.1666659855        0.8333330145        0.1667584837
C                0.3333330000        0.6666660000        0.5000000000
C                0.1666659855        0.8333330145        0.8332405163
C                0.5000000098        0.4999999902        0.1668320621
C                0.5000000349        0.4999999651        0.5000000000
C                0.5000000098        0.4999999902        0.8331669379
C                0.6666660291        0.8333330145        0.1667584837
C                0.8333330160        0.6666660320        0.5000000000
C                0.6666660291        0.8333330145        0.8332405163



     Writing config-only to output data dir ../results/test/graphite.save/ :
     XML data file
     NEW-OLD atomic charge density approx. for the potential

     Check: negative core charge=   -0.000053

     total cpu time spent up to now is      351.9 secs

     Self-consistent Calculation

     iteration #  1     ecut=    40.00 Ry     beta= 0.70
     Davidson diagonalization with overlap
     c_bands:  1 eigenvalues not converged
     c_bands:  1 eigenvalues not converged
     c_bands:  2 eigenvalues not converged
     c_bands:  1 eigenvalues not converged
     c_bands:  1 eigenvalues not converged
     c_bands:  1 eigenvalues not converged
     c_bands:  1 eigenvalues not converged
     c_bands:  1 eigenvalues not converged
     c_bands:  1 eigenvalues not converged
     c_bands:  1 eigenvalues not converged
     c_bands:  1 eigenvalues not converged
     c_bands:  1 eigenvalues not converged
     c_bands:  1 eigenvalues not converged
     c_bands:  2 eigenvalues not converged
     c_bands:  2 eigenvalues not converged
     c_bands:  1 eigenvalues not converged
     ethr =  1.00E-06,  avg # of iterations = 18.9

     total cpu time spent up to now is      466.8 secs

     total energy              =    -286.31808965 Ry
     estimated scf accuracy    <       0.22339606 Ry

     iteration #  2     ecut=    40.00 Ry     beta= 0.70
     Davidson diagonalization with overlap
     ethr =  2.33E-04,  avg # of iterations =  2.7

     total cpu time spent up to now is      488.2 secs

     total energy              =    -286.34895184 Ry
     estimated scf accuracy    <       0.00207060 Ry

     iteration #  3     ecut=    40.00 Ry     beta= 0.70
     Davidson diagonalization with overlap
     c_bands:  1 eigenvalues not converged
     c_bands:  1 eigenvalues not converged
     c_bands:  1 eigenvalues not converged
     ethr =  2.16E-06,  avg # of iterations = 12.2

     total cpu time spent up to now is      541.4 secs

     total energy              =    -286.35481490 Ry
     estimated scf accuracy    <       0.00579815 Ry

     iteration #  4     ecut=    40.00 Ry     beta= 0.70
     Davidson diagonalization with overlap
     ethr =  2.16E-06,  avg # of iterations =  6.7

     total cpu time spent up to now is      563.2 secs

     total energy              =    -286.35498776 Ry
     estimated scf accuracy    <       0.00099572 Ry

     iteration #  5     ecut=    40.00 Ry     beta= 0.70
     Davidson diagonalization with overlap
     ethr =  1.04E-06,  avg # of iterations =  3.3

     total cpu time spent up to now is      587.9 secs

     total energy              =    -286.35525087 Ry
     estimated scf accuracy    <       0.00007335 Ry

     iteration #  6     ecut=    40.00 Ry     beta= 0.70
     Davidson diagonalization with overlap
     ethr =  7.64E-08,  avg # of iterations =  4.0

     total cpu time spent up to now is      609.9 secs

     total energy              =    -286.35524036 Ry
     estimated scf accuracy    <       0.00003378 Ry

     iteration #  7     ecut=    40.00 Ry     beta= 0.70
     Davidson diagonalization with overlap
     ethr =  3.52E-08,  avg # of iterations =  2.6

     total cpu time spent up to now is      635.8 secs

     End of self-consistent calculation

          k = 0.0765 0.1325 0.0939 (  3299 PWs)   bands (ev):

    -9.2976  -8.3429  -7.6693  -4.2948  -4.2948  -3.5082  -3.5082  -2.9906
    -2.9906  -2.8277  -2.5721  -2.0301  -1.8853  -1.5174  -1.4640  -1.1137
    -1.1137  -0.4521  -0.4521  -0.0315  -0.0315   1.4351   3.2393   4.7163
     5.0448   5.2342   5.2768   5.2768   5.5695   5.5695   5.7361   5.7361
     7.2380   7.2380   7.2573   8.2140   8.6597   8.6597   8.9538   9.1101
     9.1832   9.2517   9.3525   9.3732   9.4218  11.0112  11.1676  11.1676
    12.8901  13.5799  13.5800  15.0111  15.1158  15.1158  16.3650  17.3553
    17.3554  20.7612

          k = 0.0765 0.1325-0.2818 (  3308 PWs)   bands (ev):

    -8.9847  -8.9244  -7.3462  -4.0382  -4.0382  -3.9742  -3.9742  -2.7566
    -2.7566  -2.6107  -2.5015  -2.2933  -2.2859  -1.2875  -1.2813  -0.8985
    -0.8985  -0.8386  -0.8386   0.1532   0.1532   0.7176   4.8218   4.8644
     5.3091   5.3701   5.3702   5.4119   5.4120   5.4756   5.4785   5.8010
     5.8010   6.6797   6.6798   7.7372   8.9861   9.0864   9.1859   9.2142
     9.3453   9.4561   9.6444   9.7954   9.7955  10.6240  10.6240  11.3305
    13.3925  13.4177  13.4177  14.8184  15.6368  15.8619  15.8619  16.4074
    16.4074  21.6207

          k = 0.0765 0.3091 0.0939 (  3318 PWs)   bands (ev):

    -8.8234  -7.8840  -7.2258  -6.0227  -5.1768  -4.9310  -4.6066  -4.1225
    -3.5863  -3.3335  -2.5822  -2.0958  -1.2240  -0.5721  -0.1554   0.2741
     0.8782   1.2533   1.2900   1.8602   2.0151   2.2110   3.2519   3.6760
     3.7965   3.9290   4.3438   4.7110   4.9257   5.3803   5.7559   6.0405
     6.2035   6.6422   7.0005   7.3691   7.6557   7.7564   7.8273   8.1740
     8.2172   8.2786   8.4338   8.5485   9.5944  10.5031  11.3260  11.6438
    13.1609  14.5019  14.7872  15.7703  15.8334  16.3579  17.0727  18.0072
    19.4877  21.0329

          k = 0.0765 0.3091-0.2818 (  3326 PWs)   bands (ev):

    -8.5153  -8.4550  -6.9122  -5.7453  -5.6839  -4.6664  -4.6037  -4.3444
    -3.3427  -3.0910  -3.0226  -1.8777  -1.0158  -0.9517   0.0278   0.4670
     0.5320   1.3097   1.4160   1.4717   1.5361   2.3635   3.3895   3.4363
     4.0333   4.4602   4.5086   4.7494   5.0132   5.8457   5.8880   6.0028
     6.0151   6.0468   6.2662   7.4452   7.5296   7.7574   7.8657   8.2617
     8.3430   8.5956   8.8934   9.0786   9.8182  10.1843  10.3479  11.5257
    13.2524  14.1638  14.9427  15.4416  15.7815  16.6662  17.2814  18.1921
    18.6004  21.6923

          k = 0.0765 0.4857 0.0939 (  3319 PWs)   bands (ev):

    -7.9748  -7.4130  -7.0634  -6.5202  -6.4324  -5.9070  -5.2061  -4.3886
    -3.8441  -3.6025  -2.8431  -2.3487   0.3583   0.9001   1.2021   1.7181
     1.7429   2.1056   2.2227   2.3804   2.4886   3.0461   3.1060   3.4524
     3.6792   3.6944   3.8448   4.2777   4.5704   4.7703   5.0801   5.4527
     5.5033   5.7212   6.3666   6.5751   6.8465   6.9985   7.0875   7.3471
     7.4904   7.9376   8.1765   8.6742   9.2453   9.6132  11.3328  12.4461
    13.3473  14.5380  15.2459  16.3412  16.4976  18.2210  18.7702  19.7962
    20.2325  21.0683

          k = 0.0765 0.4857-0.2818 (  3316 PWs)   bands (ev):

    -7.6759  -7.6154  -7.1201  -7.0595  -6.1351  -5.6202  -4.9388  -4.8763
    -3.5960  -3.3564  -3.2902  -2.1269   0.5150   0.6281   1.3149   1.7662
     1.8749   1.9502   1.9939   2.3636   2.5069   2.5813   3.0522   3.1427
     3.3263   3.7848   3.9713   4.0300   4.6755   5.1957   5.2631   5.7574
     5.8136   6.6566   6.7037   6.9376   6.9792   7.0569   7.1681   7.2186
     7.5400   7.5480   7.6039   7.6239   9.7553   9.9718  11.0235  11.5495
    13.0688  14.9516  15.1483  16.0460  16.9509  17.8495  18.4533  19.9854
    20.6325  20.9505

          k = 0.0765-0.3974 0.0939 (  3321 PWs)   bands (ev):

    -8.4454  -7.5184  -6.8724  -6.7615  -5.8906  -5.2978  -5.1142  -4.2997
    -3.7582  -3.5126  -2.7557  -2.2638  -0.4289   0.1914   0.5778   1.0298
     1.5944   1.9368   2.4037   2.4758   2.5487   2.8661   3.0656   3.1490
     3.3763   3.6681   4.0704   4.2372   4.3110   4.5199   6.1236   6.1856
     6.2776   6.4099   6.4595   6.5644   6.6292   6.8169   7.6445   7.8861
     8.0161   8.0180   8.1826   8.2179   9.6151   9.8718  11.3360  12.0957
    13.3216  14.6226  14.9549  16.1251  16.4460  17.2743  18.1675  18.4175
    20.6067  21.2074

          k = 0.0765-0.3974-0.2818 (  3312 PWs)   bands (ev):

    -8.1414  -8.0811  -6.5661  -6.4759  -6.4150  -5.0224  -4.8477  -4.7851
    -3.5113  -3.2670  -3.2003  -2.0431  -0.2335  -0.1620   0.7460   1.2048
     1.2794   1.7801   2.0853   2.5504   2.6055   2.7071   2.7777   3.2683
     3.5165   3.7900   3.8518   3.8642   4.4121   5.8551   6.2133   6.2575
     6.3152   6.3609   6.4844   6.5314   6.6256   6.9004   7.6756   7.7094
     7.7709   8.0708   8.2035   8.3077   9.7816  10.0439  10.7645  11.5468
    13.1367  14.6308  15.0787  15.9393  16.8824  16.9089  17.6419  19.4372
    19.8214  21.3613

          k = 0.0765-0.2208 0.0939 (  3310 PWs)   bands (ev):

    -9.1077  -8.1591  -7.4917  -5.1993  -4.6568  -4.3812  -3.8581  -3.8364
    -3.3298  -3.0711  -2.3350  -1.9949  -1.8057  -1.2900  -0.8519  -0.4484
     0.0637   0.1876   0.5873   0.6823   1.0689   1.6676   3.4629   4.0483
     4.4236   4.6433   4.9109   5.2359   5.4229   5.4698   5.7598   5.9242
     6.3108   6.9066   7.4635   7.8545   8.2906   8.3050   8.3946   8.5162
     8.6167   8.7691   8.9446   9.0352   9.5158  11.0187  11.2521  11.2757
    12.9717  14.0176  14.5551  14.9474  15.3968  15.8871  16.2952  17.7235
    18.3755  20.8635

          k = 0.0765-0.2208-0.2818 (  3312 PWs)   bands (ev):

    -8.7967  -8.7364  -7.1724  -4.9313  -4.8690  -4.3961  -4.3330  -3.5880
    -3.0904  -2.8339  -2.7601  -1.7465  -1.7393  -1.5777  -0.6566  -0.2425
    -0.1809   0.2635   0.3253   0.7619   0.9549   1.2376   4.1704   4.2146
     4.7326   5.0145   5.0582   5.4973   5.5596   5.6042   5.6879   5.6944
     5.7107   5.9893   6.3264   7.8126   8.3374   8.4331   8.6547   8.7765
     8.8946   9.0752   9.5062   9.8343   9.8779   9.9207  10.3827  11.4611
    13.3646  13.7217  14.1872  14.8100  15.6559  16.3038  16.8453  16.9749
    17.4220  21.7179

          k = 0.0765-0.0442 0.0939 (  3283 PWs)   bands (ev):

    -9.3927  -8.4350  -7.7582  -3.8475  -3.3224  -3.3224  -3.0755  -2.5740
    -2.5740  -2.5714  -2.2371  -2.2370  -2.0496  -2.0496  -1.7075  -1.5280
    -1.5280  -1.0787  -1.0787  -1.0273  -0.5900   1.3186   3.1271   5.1796
     5.1796   5.3758   5.4737   5.4737   5.6412   5.6412   5.6566   5.8158
     7.1534   7.6080   7.9618   7.9618   8.9367   9.1814   9.1814   9.3072
     9.3834   9.4914   9.5618   9.5715   9.6387  10.9487  10.9487  11.0306
    12.9788  12.9788  13.2231  14.9860  14.9861  14.9872  16.6080  16.6081
    16.9625  20.7203

          k = 0.0765-0.0442-0.2818 (  3300 PWs)   bands (ev):

    -9.0787  -9.0185  -7.4331  -3.5967  -3.5311  -3.0802  -3.0802  -3.0090
    -3.0090  -2.3442  -1.9928  -1.9927  -1.9658  -1.9658  -1.8271  -1.8271
    -1.4865  -1.4276  -0.8779  -0.8779  -0.3967   0.5989   5.2735   5.2736
     5.3150   5.3150   5.3689   5.3701   5.4655   5.5064   5.7061   5.7062
     5.8767   7.0793   7.4667   7.4667   9.3356   9.4107   9.4315   9.5046
     9.6008   9.6008   9.6039   9.6699   9.6957  10.8839  11.1307  11.1308
    13.2996  13.3301  13.3301  15.0407  15.0408  15.4164  15.7624  15.7624
    16.0302  21.3983

          k = 0.2294 0.3974 0.0939 (  3317 PWs)   bands (ev):

    -8.1628  -7.2453  -6.6083  -6.4851  -6.4851  -5.6236  -5.6236  -5.0396
    -5.0396  -1.8875  -1.5696  -1.1176  -0.9164  -0.6210  -0.5100   1.3245
     1.8306   2.1477   2.6789   2.6789   2.8197   3.1747   3.1747   3.4677
     3.4677   4.5654   4.8328   4.8328   5.0518   5.0518   5.3730   5.3730
     5.5791   5.5791   5.9616   6.2479   6.3976   6.5126   6.5126   6.9195
     7.1262   7.2293   8.4818   9.5767  10.1594  10.1594  10.6571  12.0194
    12.4437  14.1967  15.4603  17.0731  17.0731  18.1513  18.1513  20.1133
    20.1134  20.9176

          k = 0.2294 0.3974-0.2818 (  3326 PWs)   bands (ev):

    -7.8620  -7.8015  -6.3074  -6.2026  -6.2026  -6.1415  -6.1414  -4.7692
    -4.7692  -1.6982  -1.5731  -1.2826  -1.2691  -0.4239  -0.3473   1.4858
     1.5398   2.1315   2.2835   2.8262   2.8263   2.9064   2.9064   3.5964
     3.5964   4.2012   4.2012   5.1389   5.1390   5.1983   5.1983   5.6561
     5.6561   6.0163   6.1441   6.4196   6.7034   6.7680   6.9401   7.0901
     7.2974   8.5031   8.5031   8.6166   8.6167   9.0959  10.7608  12.6566
    12.8348  14.0018  14.8612  16.7587  16.7587  18.9222  18.9222  19.5725
    19.5725  20.7849

          k = 0.2294 0.5740 0.0939 (  3313 PWs)   bands (ev):

    -7.6938  -7.1339  -6.7918  -6.5779  -6.2506  -6.1697  -5.7134  -5.6463
    -5.1264  -1.8420  -1.1688  -0.8452  -0.6544  -0.2080   0.1178   0.5591
     0.9664   1.2785   3.3049   3.3871   3.7185   3.8638   3.9429   4.0603
     4.3047   4.5603   4.5742   4.7878   4.9245   4.9969   5.0825   5.1185
     5.3775   5.5341   5.5346   5.7377   5.9002   6.0341   6.1909   6.4136
     6.4378   6.5773   8.9697   9.5362   9.9180  10.0868  11.0359  11.9187
    12.5463  13.7138  15.3892  17.4285  18.4349  18.4368  19.4173  19.7414
    20.1985  20.6235

          k = 0.2294 0.5740-0.2818 (  3322 PWs)   bands (ev):

    -7.3979  -7.3373  -6.8441  -6.7834  -6.2945  -6.2333  -5.8777  -5.3645
    -4.8548  -1.6305  -1.5423  -0.6402  -0.6248  -0.3986   0.2517   0.6087
     0.7921   1.4220   2.7123   3.3960   3.4075   3.5332   4.0038   4.0218
     4.0843   4.0854   4.6476   4.6682   4.8258   5.0825   5.1922   5.1965
     5.5922   5.6166   5.7064   6.1048   6.1981   6.3521   6.6338   7.2544
     7.3075   7.8436   7.9172   8.4218   8.5232   9.4159  11.1283  12.3220
    13.0448  13.9455  14.5374  17.1653  18.1754  19.0128  19.5396  19.8176
    20.0459  20.7060

          k = 0.2294-0.3091 0.0939 (  3323 PWs)   bands (ev):

    -8.5398  -7.6098  -6.9607  -6.2998  -5.7498  -5.4446  -4.9131  -4.8659
    -4.3518  -2.5729  -1.8624  -1.5201  -1.3206  -0.8191  -0.4049   1.4684
     1.9775   2.0221   2.2903   2.3584   2.3611   2.5148   2.7624   2.8411
     3.0501   4.1279   4.6379   4.9957   5.0605   5.2021   5.4878   5.7209
     5.7959   5.9793   6.7086   6.7253   7.0138   7.1534   7.3202   7.6257
     7.8356   7.9385   8.0904   8.9797  10.1705  10.3012  10.7944  11.8010
    12.7823  14.5814  15.7253  15.7714  16.4968  16.8983  17.6635  19.0477
    19.8807  21.2650

          k = 0.2294-0.3091-0.2818 (  3320 PWs)   bands (ev):

    -8.2348  -8.1745  -6.6525  -6.0193  -5.9581  -5.4757  -5.4139  -4.5989
    -4.0944  -2.3460  -2.2666  -1.2942  -1.2614  -1.0806  -0.2204   1.6417
     1.6629   1.7116   2.1456   2.2138   2.4441   2.4927   2.5044   2.9837
     3.1710   4.4222   4.7412   4.8028   5.0992   5.2907   5.5844   5.6296
     6.0489   6.3098   6.3275   6.7990   6.9070   7.2030   7.6439   7.7723
     7.9995   8.4896   8.6627   8.8026   9.1935   9.3840  10.5242  12.1141
    13.1498  14.3362  15.2999  15.3762  16.1326  17.7847  18.4074  18.6481
    19.1408  21.7845

          k = 0.2294-0.1325 0.0939 (  3310 PWs)   bands (ev):

    -9.0129  -8.0673  -7.4030  -5.6552  -4.8216  -4.2628  -4.0330  -4.0330
    -3.2564  -3.2564  -2.7472  -2.7472  -0.8810  -0.8810  -0.2328  -0.2328
     0.1772   0.1772   0.6468   1.2438   1.6140   1.7836   3.5744   4.1471
     4.1471   4.5197   4.5198   4.7380   4.7380   5.7603   5.7986   6.0361
     6.1920   7.3854   7.5643   7.5713   7.5713   7.9172   8.1861   8.3264
     8.5938   8.8087   8.9189   8.9850   8.9850  10.7504  11.4867  11.4867
    13.5608  13.5609  15.0273  15.0273  15.1692  16.4610  17.0397  17.0398
    18.9730  20.9046

          k = 0.2294-0.1325-0.2818 (  3320 PWs)   bands (ev):

    -8.7028  -8.6425  -7.0856  -5.3822  -5.3205  -4.0068  -3.7801  -3.7801
    -3.7153  -3.7153  -2.5175  -2.5175  -0.6713  -0.6713  -0.6096  -0.6096
     0.3569   0.3570   0.8385   0.9012   1.0732   1.7749   4.2675   4.2675
     4.3127   4.3127   4.8266   4.8266   5.1798   5.7933   5.8017   5.8474
     5.8894   6.2522   7.0181   7.0182   7.9822   8.0613   8.3818   8.6459
     8.7119   8.9624   9.1814   9.4392  10.1253  10.1253  10.9390  10.9390
    13.4102  13.4102  14.7739  15.6210  15.6210  16.2971  16.2972  17.6157
    18.0146  21.5943

          k = 0.3824 0.6623 0.0939 (  3319 PWs)   bands (ev):

    -7.6000  -7.6000  -6.7011  -6.7011  -6.0821  -6.0820  -5.9344  -5.0920
    -4.5250  -2.7416  -2.0147  -1.5491  -0.0160   0.4001   0.7149   1.0853
     1.3503   1.5370   2.6635   3.0361   3.2696   3.4971   3.4971   3.8044
     4.0794   4.2324   4.4647   4.4647   4.8562   4.8562   5.1351   5.1351
     5.2575   5.2575   5.5172   6.4089   6.4089   6.6942   6.6942   6.8522
     6.8522   7.1356   9.0622   9.0622   9.0977  10.4455  10.6967  12.4837
    12.8521  13.8389  15.8289  16.3577  17.3989  19.1959  19.3770  19.3770
    20.3205  20.3205

          k = 0.3824 0.6623-0.2818 (  3322 PWs)   bands (ev):

    -7.3053  -7.3052  -7.2447  -7.2447  -5.7918  -5.7918  -5.6584  -5.5968
    -4.2640  -2.5086  -2.4372  -1.3417   0.1108   0.2798   0.6826   0.9446
     1.4103   1.6622   2.7537   2.8264   2.8264   2.9136   3.2890   3.7586
     4.0600   4.3212   4.5892   4.5892   4.6619   4.6619   4.8855   5.2314
     5.2314   6.4823   6.4823   6.5470   6.5470   6.9130   6.9130   7.3494
     7.3494   7.4057   7.4057   8.5752   9.0687   9.2131  11.4772  12.3354
    12.3457  14.4361  15.2394  16.0830  17.9652  18.8515  19.1163  19.1164
    20.9713  20.9713

          k = 0.3824-0.2208 0.0939 (  3320 PWs)   bands (ev):

    -8.2569  -7.3362  -7.1332  -6.6961  -6.2497  -5.6452  -4.3966  -4.3966
    -3.6077  -3.6077  -3.0884  -3.0884   0.6640   0.6640   1.2321   1.2321
     1.5713   1.5713   2.6503   2.6503   2.7046   3.0829   3.0830   3.1677
     3.3518   3.3518   3.6573   3.9114   4.1253   4.4542   5.6966   5.7673
     6.0862   6.2978   6.4973   6.7623   6.9114   7.2851   7.2851   7.5044
     7.7500   7.8852   8.3786   8.7889   8.7889   9.5169  11.9017  11.9017
    14.1674  14.1674  15.3369  15.3369  17.2973  17.2973  18.0445  19.1413
    20.9374  21.1239

          k = 0.3824-0.2208-0.2818 (  3316 PWs)   bands (ev):

    -7.9549  -7.8945  -6.8434  -6.7826  -6.3935  -5.3635  -4.1395  -4.1395
    -4.0756  -4.0756  -2.8538  -2.8538   0.8363   0.8363   0.9214   0.9214
     1.7169   1.7169   2.0141   2.7717   2.7717   2.8532   2.8532   3.2695
     3.3903   3.4597   3.4670   3.4670   4.0882   5.8006   5.8667   6.3769
     6.5797   6.6237   6.6406   6.6796   6.7045   6.7045   6.9690   7.5762
     7.6263   7.8262   7.9058   7.9375  10.4052  10.4052  10.7716  10.7716
    13.8698  13.8698  15.9839  15.9839  16.8529  16.8529  17.6934  20.1118
    20.4222  20.7487

     the Fermi energy is    12.4883 ev

!    total energy              =    -286.35524709 Ry
     estimated scf accuracy    <       0.00000022 Ry
     smearing contrib. (-TS)   =      -0.00126306 Ry
     internal energy E=F+TS    =    -286.35398404 Ry

     The total energy is F=E-TS. E is the sum of the following terms:
     one-electron contribution =      50.03372545 Ry
     hartree contribution      =      43.28799917 Ry
     xc contribution           =    -103.86756122 Ry
     ewald contribution        =    -275.80814744 Ry

     convergence has been achieved in   7 iterations

     Forces acting on atoms (cartesian axes, Ry/au):

     atom    1 type  1   force =     0.00000000    0.00000000    0.02150661
     atom    2 type  1   force =     0.00000000   -0.00000000   -0.00000000
     atom    3 type  1   force =     0.00000000   -0.00000000   -0.02150661
     atom    4 type  1   force =     0.00000000    0.00000123    0.00936855
     atom    5 type  1   force =     0.00000083    0.00000048   -0.00000000
     atom    6 type  1   force =     0.00000000    0.00000123   -0.00936855
     atom    7 type  1   force =    -0.00000000   -0.00000122    0.02150683
     atom    8 type  1   force =     0.00000000   -0.00000138   -0.00000000
     atom    9 type  1   force =    -0.00000000   -0.00000122   -0.02150683
     atom   10 type  1   force =     0.00000000    0.00000000    0.00936943
     atom   11 type  1   force =    -0.00000083    0.00000048    0.00000000
     atom   12 type  1   force =     0.00000000    0.00000000   -0.00936943
     atom   13 type  1   force =     0.00000106    0.00000061    0.02150683
     atom   14 type  1   force =     0.00000120    0.00000069    0.00000000
     atom   15 type  1   force =     0.00000106    0.00000061   -0.02150683
     atom   16 type  1   force =     0.00000106   -0.00000061    0.00936855
     atom   17 type  1   force =     0.00000000   -0.00000000   -0.00000000
     atom   18 type  1   force =     0.00000106   -0.00000061   -0.00936855
     atom   19 type  1   force =    -0.00000106    0.00000061    0.02150683
     atom   20 type  1   force =    -0.00000120    0.00000069    0.00000000
     atom   21 type  1   force =    -0.00000106    0.00000061   -0.02150683
     atom   22 type  1   force =    -0.00000106   -0.00000061    0.00936855
     atom   23 type  1   force =     0.00000000   -0.00000095   -0.00000000
     atom   24 type  1   force =    -0.00000106   -0.00000061   -0.00936855

     Total force =     0.066351     Total SCF correction =     0.000761


     Computing stress (Cartesian axis) and pressure

          total   stress  (Ry/bohr**3)                   (kbar)     P=     1002.45
   0.00835155   0.00000000  -0.00000000         1228.56        0.00       -0.00
   0.00000000   0.00835155   0.00000000            0.00     1228.56        0.00
   0.00000000   0.00000000   0.00374037            0.00        0.00      550.23

     Energy error            =      2.7E+00 Ry
     Gradient error          =      2.2E-02 Ry/Bohr
     Cell gradient error     =      1.2E+03 kbar

     number of scf cycles    =   2
     number of bfgs steps    =   1

     enthalpy           old  =    -283.6515580097 Ry
     enthalpy           new  =    -286.3552470931 Ry

     CASE: enthalpy          _new < enthalpy          _old

     new trust radius        =       0.6947596466 bohr
     new conv_thr            =       0.0000002151 Ry

     new unit-cell volume =   1116.45288 a.u.^3 (   165.44125 Ang^3 )
     density =      2.89331 g/cm^3

CELL_PARAMETERS (alat=  8.00000437)
   1.128894207   0.000000000   0.000000000
  -0.564447104   0.977651062   0.000000000
  -0.000000000   0.000000000   1.975752798

ATOMIC_POSITIONS (crystal)
C                0.0000000000        0.0000000000        0.1685370666
C               -0.0000000000       -0.0000000000        0.5000000000
C               -0.0000000000        0.0000000000        0.8314619334
C                0.1666661724        0.3333333448        0.1674352333
C                0.3333332897        0.1666661449        0.5000000000
C                0.1666661724        0.3333333448        0.8325637667
C                0.4999998386       -0.0000003229        0.1685371088
C                0.4999997636       -0.0000004729        0.5000000000
C                0.4999998386       -0.0000003229        0.8314618912
C                0.6666660000        0.3333330000        0.1674353584
C                0.8333328551        0.1666661449        0.5000000000
C                0.6666660000        0.3333330000        0.8325636416
C                0.0000003229        0.5000001614        0.1685371088
C                0.0000004729        0.5000002364        0.5000000000
C                0.0000003229        0.5000001614        0.8314618912
C                0.1666661724        0.8333328276        0.1674352333
C                0.3333330000        0.6666660000        0.5000000000
C                0.1666661724        0.8333328276        0.8325637667
C                0.4999998386        0.5000001614        0.1685371088
C                0.4999997636        0.5000002364        0.5000000000
C                0.4999998386        0.5000001614        0.8314618912
C                0.6666656552        0.8333328276        0.1674352333
C                0.8333328551        0.6666657103        0.5000000000
C                0.6666656552        0.8333328276        0.8325637667



     Writing config-only to output data dir ../results/test/graphite.save/ :
     XML data file
     NEW-OLD atomic charge density approx. for the potential

     Check: negative core charge=   -0.000042

     total cpu time spent up to now is      661.9 secs

     Self-consistent Calculation

     iteration #  1     ecut=    40.00 Ry     beta= 0.70
     Davidson diagonalization with overlap
     c_bands:  1 eigenvalues not converged
     c_bands:  2 eigenvalues not converged
     c_bands:  1 eigenvalues not converged
     c_bands:  1 eigenvalues not converged
     c_bands:  1 eigenvalues not converged
     c_bands:  1 eigenvalues not converged
     c_bands:  2 eigenvalues not converged
     ethr =  1.00E-06,  avg # of iterations = 17.0

     total cpu time spent up to now is      762.4 secs

     total energy              =    -286.94328681 Ry
     estimated scf accuracy    <       0.06222262 Ry

     iteration #  2     ecut=    40.00 Ry     beta= 0.70
     Davidson diagonalization with overlap
     ethr =  6.48E-05,  avg # of iterations =  2.0

     total cpu time spent up to now is      783.3 secs

     total energy              =    -286.95237752 Ry
     estimated scf accuracy    <       0.00101424 Ry

     iteration #  3     ecut=    40.00 Ry     beta= 0.70
     Davidson diagonalization with overlap
     ethr =  1.06E-06,  avg # of iterations =  6.5

     total cpu time spent up to now is      814.7 secs

     total energy              =    -286.95301023 Ry
     estimated scf accuracy    <       0.00058479 Ry

     iteration #  4     ecut=    40.00 Ry     beta= 0.70
     Davidson diagonalization with overlap
     ethr =  6.09E-07,  avg # of iterations =  3.6

     total cpu time spent up to now is      835.9 secs

     total energy              =    -286.95308977 Ry
     estimated scf accuracy    <       0.00049344 Ry

     iteration #  5     ecut=    40.00 Ry     beta= 0.70
     Davidson diagonalization with overlap
     ethr =  5.14E-07,  avg # of iterations =  2.0

     total cpu time spent up to now is      854.2 secs

     total energy              =    -286.95318856 Ry
     estimated scf accuracy    <       0.00001283 Ry

     iteration #  6     ecut=    40.00 Ry     beta= 0.70
     Davidson diagonalization with overlap
     ethr =  1.34E-08,  avg # of iterations =  4.2

     total cpu time spent up to now is      882.0 secs

     total energy              =    -286.95319248 Ry
     estimated scf accuracy    <       0.00000544 Ry

     iteration #  7     ecut=    40.00 Ry     beta= 0.70
     Davidson diagonalization with overlap
     ethr =  5.67E-09,  avg # of iterations =  2.1

     total cpu time spent up to now is      901.5 secs

     End of self-consistent calculation

          k = 0.0738 0.1279 0.0844 (  3299 PWs)   bands (ev):

   -10.6043 -10.0442  -9.6873  -5.9693  -5.9693  -5.5246  -5.5246  -5.2546
    -5.2546  -4.7233  -4.4426  -4.2251  -3.9028  -3.7192  -3.5820  -2.9564
    -2.9563  -2.5964  -2.5964  -2.3802  -2.3801   0.1559   1.3572   2.5413
     2.7102   2.8050   3.0592   3.0592   3.2089   3.2089   3.2907   3.2907
     4.1095   5.4948   5.4948   6.3541   6.3734   6.4173   6.4173   6.4372
     6.4809   6.5706   6.6414   6.6794   7.1258   8.2137   8.2137   8.3333
    10.5665  11.2303  11.2303  11.7884  12.1683  12.1683  12.8812  13.7534
    13.7535  16.1934

          k = 0.0738 0.1279-0.2531 (  3308 PWs)   bands (ev):

   -10.3996 -10.3932  -9.5317  -5.8043  -5.8043  -5.7990  -5.7990  -5.1400
    -5.1400  -4.6202  -4.5448  -4.2427  -3.9766  -3.7026  -3.5013  -2.8219
    -2.8218  -2.8186  -2.8186  -2.2912  -2.2912  -0.2978   2.6052   2.6073
     2.8415   2.8681   2.9297   3.1170   3.1171   3.1194   3.1194   3.3219
     3.3219   5.1428   5.1428   6.0882   6.3725   6.4075   6.4921   6.5777
     6.6220   6.6955   7.3001   7.3001   7.4502   7.6821   7.6822   8.3380
    10.7784  11.0782  11.0782  11.8512  12.4094  12.7784  12.7785  13.1287
    13.1287  18.1227

          k = 0.0738 0.2983 0.0844 (  3318 PWs)   bands (ev):

   -10.1635  -9.6143  -9.2658  -7.5635  -7.0787  -6.7780  -6.5538  -6.0932
    -5.8120  -5.0914  -4.6725  -4.4225  -3.0496  -2.7021  -2.4929  -1.6865
    -1.3595  -1.1673  -0.7424  -0.4332  -0.2518   0.6943   1.1909   1.4108
     1.5391   1.8803   2.1977   2.3865   2.4955   3.4959   3.6415   3.7200
     3.8001   4.5940   4.8659   4.8866   4.9567   5.0278   5.1050   5.7187
     5.8234   5.8784   5.9612   6.4495   7.2442   7.3004   8.1157   8.8300
    10.7902  11.7529  12.1371  12.9031  12.9334  13.3971  14.1807  14.4224
    15.7684  16.6337

          k = 0.0738 0.2983-0.2531 (  3326 PWs)   bands (ev):

    -9.9623  -9.9565  -9.1144  -7.3824  -7.3808  -6.6498  -6.3811  -6.3797
    -5.6927  -4.9397  -4.9268  -4.3174  -2.9266  -2.9118  -2.4063  -1.5662
    -1.5588  -1.0889  -0.6265  -0.6211  -0.1769   0.2471   1.2727   1.2759
     1.5901   2.2685   2.2721   2.5365   3.3739   3.3958   3.4285   3.5530
     3.5543   3.7524   4.5769   4.9285   4.9529   5.1337   5.7491   5.7714
     5.9006   6.1240   6.1977   6.2418   7.1323   7.2743   7.9578   8.5242
    10.7863  11.9065  12.0033  12.5259  13.1405  13.5758  13.9291  14.9478
    15.1801  18.2895

          k = 0.0738 0.4688 0.0844 (  3319 PWs)   bands (ev):

    -9.3748  -8.8531  -8.8454  -8.5119  -8.3364  -8.0128  -6.8075  -6.3410
    -6.0549  -5.3297  -4.9033  -4.6459  -1.6855  -1.4064  -1.2473  -0.3965
    -0.2012  -0.1507  -0.0102   0.0048   0.1316   1.0671   1.2480   1.3585
     1.6005   1.6511   1.8441   1.9804   2.2875   2.7630   2.7931   2.9907
     3.0965   3.4178   4.2415   4.3779   4.4538   4.7060   4.7071   4.8368
     4.9064   5.4558   5.7408   6.0023   6.3677   7.3012   8.0327   9.2502
    11.0574  11.7945  12.8352  13.0553  13.5107  14.7140  16.0644  16.6976
    17.2568  17.5456

          k = 0.0738 0.4688-0.2531 (  3316 PWs)   bands (ev):

    -9.1803  -9.1753  -8.6626  -8.6585  -8.3678  -7.8734  -6.6329  -6.6325
    -5.9331  -5.1722  -5.1657  -4.5366  -1.6013  -1.5472  -1.1894  -0.3242
    -0.2720  -0.1553  -0.0916   0.0389   0.1895   1.1051   1.1670   1.2160
     1.4057   1.6825   1.7008   1.8609   2.0443   2.8365   2.8498   3.1417
     4.2731   4.2935   4.2973   4.3115   4.3183   4.4818   4.7558   4.7634
     4.8561   4.8808   4.9331   6.0174   7.0098   7.0737   8.3224   8.5504
    10.8800  12.2410  12.6456  12.7596  13.9479  14.4504  15.8592  17.2047
    17.2882  17.4737

          k = 0.0738-0.3836 0.0844 (  3321 PWs)   bands (ev):

    -9.8122  -9.2717  -8.9300  -8.2483  -7.7467  -7.4340  -6.7227  -6.2582
    -5.9739  -5.2494  -4.8250  -4.5696  -2.3455  -2.0141  -1.8203  -1.0037
    -0.7022  -0.5287   0.4229   0.4243   0.6606   0.7017   0.8019   0.8624
     1.1218   1.5853   1.7900   1.9111   2.2943   3.0013   3.8343   3.8742
     3.9750   4.0501   4.0536   4.1092   4.1468   4.7909   4.9838   5.2103
     5.3278   5.3917   5.8156   6.4016   6.6103   7.3075   8.0632   9.0946
    10.9595  11.7641  12.5646  12.9978  13.2943  14.6250  14.7166  15.4311
    16.8686  16.9813

          k = 0.0738-0.3836-0.2531 (  3312 PWs)   bands (ev):

    -9.6140  -9.6085  -8.7818  -8.0625  -8.0595  -7.2995  -6.5485  -6.5477
    -5.8525  -5.0926  -5.0845  -4.4612  -2.2284  -2.2098  -1.7406  -0.8967
    -0.8796  -0.4551   0.5091   0.5189   0.5257   0.5341   0.6795   0.8601
     0.9304   1.6576   1.6704   1.9602   2.5846   3.7642   3.8064   3.8882
     3.8912   3.9522   3.9608   4.0836   4.1897   4.4062   5.2506   5.2630
     5.4157   5.5182   5.5194   6.0593   7.0549   7.1417   8.1959   8.5467
    10.8268  12.1549  12.3546  12.6644  13.8356  14.2597  14.4792  16.1251
    16.3421  18.2267

          k = 0.0738-0.2131 0.0844 (  3310 PWs)   bands (ev):

   -10.4278  -9.8720  -9.5185  -6.8018  -6.3352  -6.3010  -6.0490  -5.8477
    -5.5710  -4.8710  -4.4720  -4.2431  -3.6622  -3.3369  -3.1276  -2.3482
    -2.0013  -1.8758  -1.7958  -1.5383  -1.3388   0.3719   1.5671   1.9224
     2.1166   2.2276   2.7205   2.8871   2.9799   3.2358   3.3837   3.4646
     4.3049   4.6505   5.1959   5.6612   5.7395   5.8465   5.9018   6.1666
     6.1946   6.2809   6.3262   6.4632   7.2463   7.8335   8.1739   8.5438
    10.6280  11.6643  11.7718  12.1955  12.5270  12.8341  13.0377  14.1166
    14.7065  16.3683

          k = 0.0738-0.2131-0.2531 (  3312 PWs)   bands (ev):

   -10.2244 -10.2183  -9.3646  -6.6263  -6.6255  -6.1322  -6.1296  -5.9271
    -5.4538  -4.7319  -4.7037  -4.1497  -3.5677  -3.5174  -3.0373  -2.2182
    -2.2143  -1.7488  -1.7456  -1.7118  -1.2564  -0.0795   1.9970   1.9991
     2.2728   2.7837   2.7851   3.0153   3.0718   3.1305   3.2932   3.2954
     3.4971   4.2676   4.8273   5.7642   5.7962   5.9204   6.1637   6.2130
     6.2476   6.3441   6.8445   6.9885   7.2230   7.4585   7.6712   8.4614
    10.7822  11.4506  11.8600  11.9442  12.4187  13.2030  13.5306  13.8089
    14.0743  18.2105

          k = 0.0738-0.0426 0.0844 (  3283 PWs)   bands (ev):

   -10.6928 -10.1305  -9.7718  -5.5634  -5.1297  -5.1009  -5.1009  -4.8700
    -4.6939  -4.6939  -4.4593  -4.4592  -3.8950  -3.8950  -3.5615  -3.5615
    -3.4905  -3.3459  -3.3459  -3.1251  -2.9036   0.0479   1.2514   2.9703
     2.9703   3.1210   3.1210   3.1528   3.2040   3.2040   3.2959   3.3745
     4.0101   5.8270   6.1442   6.1443   6.6823   6.6874   6.7578   6.7638
     6.8047   6.8372   6.8761   6.9334   6.9334   8.2270   8.2435   8.2435
    10.6515  10.6516  10.8819  11.8152  11.8152  11.9256  13.0805  13.0806
    13.3904  16.1070

          k = 0.0738-0.0426-0.2531 (  3300 PWs)   bands (ev):

   -10.4873 -10.4808  -9.6154  -5.4054  -5.3949  -4.9580  -4.9580  -4.9316
    -4.9316  -4.7605  -4.3632  -4.3632  -3.7952  -3.7951  -3.7496  -3.7496
    -3.3570  -3.3497  -3.2526  -3.2526  -2.8120  -0.4063   2.7667   2.8284
     3.0285   3.0286   3.0308   3.0308   3.2098   3.2120   3.2343   3.2344
     3.4009   5.4980   5.8432   5.8432   6.7028   6.7339   6.7783   6.8089
     6.8203   6.8905   7.3408   7.3633   7.3633   7.9228   8.1516   8.1517
    10.7712  10.7712  10.8492  12.0354  12.0355  12.3670  12.5308  12.5308
    12.7812  17.9091

          k = 0.2215 0.3836 0.0844 (  3317 PWs)   bands (ev):

    -9.5495  -9.0158  -8.6790  -7.9921  -7.9920  -7.4966  -7.4966  -7.1889
    -7.1889  -3.8451  -3.5747  -3.3769  -3.0360  -2.8545  -2.7327  -0.5499
    -0.2930  -0.1396   0.5273   0.5273   0.7888   0.7888   0.9393   0.9394
     1.4412   2.6024   2.8377   2.8377   3.0090   3.0090   3.1077   3.1077
     3.3159   3.3160   3.5448   3.6871   3.7658   4.4076   4.4076   4.5249
     4.6262   4.6812   5.2702   6.8822   6.8822   7.6472   8.3578   9.4365
    10.0554  11.1572  11.9459  14.5163  14.5164  15.1828  15.1828  16.4455
    16.4455  17.2676

          k = 0.2215 0.3836-0.2531 (  3326 PWs)   bands (ev):

    -9.3536  -9.3485  -8.5333  -7.8080  -7.8080  -7.8055  -7.8055  -7.0566
    -7.0566  -3.7522  -3.6781  -3.3801  -3.0972  -2.8409  -2.6700  -0.4589
    -0.4463  -0.0745   0.6185   0.6185   0.6374   0.6374   1.0017   1.0017
     1.0033   2.8661   2.8661   2.9124   2.9124   2.9319   2.9319   3.1494
     3.1494   3.5735   3.6289   3.7810   4.0794   4.1194   4.5370   4.5929
     4.7085   5.8015   5.8016   5.8062   5.8063   7.3564   8.5874   9.5802
    10.2984  11.0602  11.6530  14.3104  14.3104  15.7191  15.7191  16.0772
    16.0772  17.8812

          k = 0.2215 0.5540 0.0844 (  3313 PWs)   bands (ev):

    -9.1138  -8.5939  -8.5910  -8.2623  -8.0838  -8.0780  -7.7651  -7.5807
    -7.2711  -3.7493  -3.3876  -3.1822  -2.7127  -2.4444  -2.2770  -1.2175
    -1.0090  -0.8758   1.0651   1.2757   1.3953   1.6235   1.8439   1.9671
     1.9689   2.4561   2.5954   2.6104   2.6513   2.7001   2.8198   2.9249
     3.1204   3.2167   3.3032   3.4545   3.5452   3.7264   3.8742   3.9983
     4.0673   4.3142   5.7342   6.2787   6.8093   7.9718   8.7193   9.6369
     9.9229  10.7108  11.8130  14.8299  15.4466  15.7481  16.3493  16.5633
    16.9075  17.4569

          k = 0.2215 0.5540-0.2531 (  3322 PWs)   bands (ev):

    -8.9212  -8.9167  -8.4054  -8.4016  -8.1206  -7.8935  -7.8908  -7.6280
    -7.1391  -3.6262  -3.5921  -3.1011  -2.6570  -2.5579  -2.2191  -1.1795
    -1.1022  -0.8151   1.1242   1.1751   1.4353   1.5373   1.6930   1.7244
     2.0190   2.1726   2.4827   2.5439   2.6977   2.7397   2.7444   2.8046
     2.9568   3.3504   3.3751   3.5812   3.8944   3.9427   4.0953   4.5724
     4.6047   5.1500   5.1691   5.7184   5.7212   7.6627   9.0023   9.8167
     9.9464  10.9527  11.3461  14.6594  15.5808  15.8570  16.3016  16.7901
    16.7935  17.1576

          k = 0.2215-0.2983 0.0844 (  3323 PWs)   bands (ev):

    -9.8998  -9.3573  -9.0138  -7.8202  -7.3292  -7.3108  -7.0239  -6.8316
    -6.5362  -4.4150  -4.0318  -3.8131  -3.2148  -2.9073  -2.7113  -0.5872
    -0.2899  -0.1188  -0.1091   0.1791   0.3117   0.3466   0.5567   0.7017
     1.0154   2.1913   2.4720   2.6537   2.7598   3.2464   3.4054   3.4853
     3.5202   4.1073   4.2730   4.4118   4.4854   4.5923   4.8893   5.1634
     5.1752   5.2774   5.3338   7.0304   7.0925   7.5167   7.8647   9.1208
    10.4151  11.4866  12.3370  13.2841  14.0030  14.0177  14.7323  15.4180
    16.1785  16.9094

          k = 0.2215-0.2983-0.2531 (  3320 PWs)   bands (ev):

    -9.7010  -9.6953  -8.8649  -7.6374  -7.6352  -7.1316  -7.1307  -6.8935
    -6.4104  -4.2830  -4.2519  -3.7257  -3.1310  -3.0697  -2.6276  -0.4787
    -0.4675  -0.0463  -0.0027   0.0057   0.4030   0.4082   0.4169   0.5721
     0.7608   2.5386   2.5457   2.7995   3.0968   3.3098   3.3105   3.5306
     3.6735   3.7087   3.7237   4.3128   4.3499   4.5140   5.1940   5.2333
     5.3551   5.9624   5.9816   6.4775   6.5249   6.7927   8.2682   9.0742
    10.5893  11.4433  12.0700  13.0554  13.7625  14.6354  14.9826  15.4072
    15.6811  18.4246

          k = 0.2215-0.1279 0.0844 (  3310 PWs)   bands (ev):

   -10.3398  -9.7859  -9.4342  -7.2232  -6.7464  -6.4523  -5.7281  -5.7281
    -5.2904  -5.2904  -5.0249  -5.0249  -2.7439  -2.7439  -2.3924  -2.3924
    -2.1832  -2.1831  -1.3366  -1.0112  -0.8200   0.4796   1.6721   2.0147
     2.0147   2.2069   2.2069   2.3177   2.3177   3.5030   3.6429   3.7184
     4.1819   4.4005   5.2238   5.3970   5.5290   5.5989   5.8036   5.8036
     6.0600   6.1646   6.2176   6.7212   6.7212   7.5189   8.5132   8.5132
    11.1991  11.1991  12.0926  12.0926  12.7803  13.5105  13.5106  13.5998
    15.2661  16.4539

          k = 0.2215-0.1279-0.2531 (  3320 PWs)   bands (ev):

   -10.1370 -10.1310  -9.2812  -7.0449  -7.0442  -6.3269  -5.5658  -5.5658
    -5.5599  -5.5599  -4.9120  -4.9120  -2.6138  -2.6138  -2.6075  -2.6075
    -2.0969  -2.0969  -1.2147  -1.2109  -0.7425   0.0289   2.0882   2.0882
     2.0902   2.0902   2.3615   2.3615   3.1727   3.2303   3.5576   3.5611
     3.7482   3.7878   5.4330   5.4541   5.4541   5.4558   5.6246   6.0938
     6.1098   6.2371   6.4946   6.5787   7.6048   7.6048   7.9769   7.9770
    11.0617  11.0617  12.5172  12.5995  12.5995  13.0137  13.0137  14.3997
    14.6335  18.0838

          k = 0.3691 0.6393 0.0844 (  3319 PWs)   bands (ev):

    -9.0267  -9.0266  -8.5059  -8.5058  -8.1790  -8.1790  -7.4817  -6.9991
    -6.7005  -4.5450  -4.1416  -3.9022  -2.0943  -1.8459  -1.6869  -0.8523
    -0.6825  -0.5752   0.4336   0.6316   0.7537   1.6817   1.8270   1.9152
     2.0673   2.0673   2.1876   2.1877   2.4040   2.4040   2.5334   2.5334
     3.2190   3.2190   3.9215   4.0894   4.0894   4.2324   4.2324   4.3089
     4.3089   4.9907   5.8256   5.8256   7.2137   7.4005   8.0842   9.7970
    10.2796  11.0599  12.3546  13.8524  14.4923  15.6338  16.5972  16.5972
    17.1747  17.1747

          k = 0.3691 0.6393-0.2531 (  3322 PWs)   bands (ev):

    -8.8350  -8.8350  -8.8306  -8.8306  -8.0381  -8.0381  -7.3016  -7.3001
    -6.5723  -4.3986  -4.3855  -3.8013  -2.0308  -1.9432  -1.6557  -0.8524
    -0.7244  -0.5233   0.4816   0.5539   0.7802   1.6411   1.6411   1.6922
     1.7847   1.9523   2.2631   2.2631   2.2802   2.2803   2.5805   2.5805
     3.5187   4.1367   4.1368   4.1504   4.1504   4.3396   4.3396   4.6668
     4.6668   4.6963   4.6963   6.3406   6.3640   6.8842   8.9146   9.2947
    10.1220  11.5206  12.0024  13.6740  14.8967  15.3902  16.4309  16.4309
    17.6512  17.6513

          k = 0.3691-0.2131 0.0844 (  3320 PWs)   bands (ev):

    -9.6370  -9.1010  -8.7625  -8.5934  -8.0830  -7.7639  -6.0601  -6.0601
    -5.6129  -5.6129  -5.3410  -5.3410  -1.3614  -1.3614  -1.0618  -1.0618
    -0.8923  -0.8922   0.6608   0.6608   0.8804   0.8804   1.0007   1.0125
     1.0125   1.2636   1.3344   1.4146   2.4988   2.5926   3.3395   3.5383
     3.6487   3.7153   4.1721   4.3060   4.3793   5.0834   5.1728   5.2045
     5.2715   5.5500   5.5500   6.2634   6.5332   6.5332   8.6492   8.6492
    11.8273  11.8273  12.5540  12.5540  13.8260  13.8260  15.4162  16.0986
    17.1293  17.4566

          k = 0.3691-0.2131-0.2531 (  3316 PWs)   bands (ev):

    -9.4402  -9.4350  -8.6160  -8.4048  -8.4011  -7.6271  -5.8936  -5.8936
    -5.8905  -5.8905  -5.2258  -5.2258  -1.2601  -1.2601  -1.2315  -1.2315
    -0.8211  -0.8211   0.7316   0.7316   0.7570   0.7570   0.8946   1.0667
     1.0667   1.0967   1.1064   1.4800   2.1691   3.4061   3.4188   3.6869
     3.9830   4.0241   4.2254   4.2292   4.4072   5.1303   5.1366   5.1403
     5.1557   5.1805   5.1805   5.2958   7.6784   7.6784   7.8228   7.8228
    11.6358  11.6358  13.0251  13.0251  13.5170  13.5170  15.1882  16.7652
    16.9471  17.8352

     the Fermi energy is     9.8534 ev

!    total energy              =    -286.95319308 Ry
     estimated scf accuracy    <       0.00000020 Ry
     smearing contrib. (-TS)   =      -0.00088329 Ry
     internal energy E=F+TS    =    -286.95230979 Ry

     The total energy is F=E-TS. E is the sum of the following terms:
     one-electron contribution =       9.88293136 Ry
     hartree contribution      =      53.94579104 Ry
     xc contribution           =    -101.30875855 Ry
     ewald contribution        =    -249.47227364 Ry

     convergence has been achieved in   7 iterations

     Forces acting on atoms (cartesian axes, Ry/au):

     atom    1 type  1   force =     0.00000000   -0.00000000    0.00348778
     atom    2 type  1   force =     0.00000000   -0.00000000    0.00000000
     atom    3 type  1   force =    -0.00000000    0.00000000   -0.00348778
     atom    4 type  1   force =     0.00000000   -0.00000542    0.00934942
     atom    5 type  1   force =    -0.00000326   -0.00000188   -0.00000000
     atom    6 type  1   force =     0.00000000   -0.00000542   -0.00934942
     atom    7 type  1   force =    -0.00000000    0.00000509    0.00348788
     atom    8 type  1   force =    -0.00000000    0.00000678    0.00000000
     atom    9 type  1   force =     0.00000000    0.00000509   -0.00348788
     atom   10 type  1   force =     0.00000000   -0.00000000    0.00934902
     atom   11 type  1   force =     0.00000326   -0.00000188    0.00000000
     atom   12 type  1   force =     0.00000000   -0.00000000   -0.00934902
     atom   13 type  1   force =    -0.00000441   -0.00000255    0.00348788
     atom   14 type  1   force =    -0.00000587   -0.00000339   -0.00000000
     atom   15 type  1   force =    -0.00000441   -0.00000255   -0.00348788
     atom   16 type  1   force =    -0.00000469    0.00000271    0.00934942
     atom   17 type  1   force =     0.00000000   -0.00000000    0.00000000
     atom   18 type  1   force =    -0.00000469    0.00000271   -0.00934942
     atom   19 type  1   force =     0.00000441   -0.00000255    0.00348788
     atom   20 type  1   force =     0.00000587   -0.00000339    0.00000000
     atom   21 type  1   force =     0.00000441   -0.00000255   -0.00348788
     atom   22 type  1   force =     0.00000469    0.00000271    0.00934942
     atom   23 type  1   force =    -0.00000000    0.00000377   -0.00000000
     atom   24 type  1   force =     0.00000469    0.00000271   -0.00934942

     Total force =     0.028224     Total SCF correction =     0.001505


     Computing stress (Cartesian axis) and pressure

          total   stress  (Ry/bohr**3)                   (kbar)     P=      252.69
   0.00214562  -0.00000000   0.00000000          315.63       -0.00        0.00
  -0.00000000   0.00214562   0.00000000           -0.00      315.63        0.00
   0.00000000  -0.00000000   0.00086195            0.00       -0.00      126.80

     Energy error            =      6.0E-01 Ry
     Gradient error          =      9.3E-03 Ry/Bohr
     Cell gradient error     =      3.2E+02 kbar

     number of scf cycles    =   3
     number of bfgs steps    =   2

     enthalpy           old  =    -286.3552470931 Ry
     enthalpy           new  =    -286.9531930792 Ry

     CASE: enthalpy          _new < enthalpy          _old

     new trust radius        =       0.2356392402 bohr
     new conv_thr            =       0.0000000935 Ry

     new unit-cell volume =   1188.94825 a.u.^3 (   176.18395 Ang^3 )
     density =      2.71690 g/cm^3

CELL_PARAMETERS (alat=  8.00000437)
   1.144957977   0.000000000   0.000000000
  -0.572478989   0.991562695  -0.000000000
  -0.000000000   0.000000000   2.045420265

ATOMIC_POSITIONS (crystal)
C                0.0000000000        0.0000000000        0.1689884838
C               -0.0000000000       -0.0000000000        0.5000000000
C               -0.0000000000        0.0000000000        0.8310105162
C                0.1666656001        0.3333322002        0.1684772176
C                0.3333325124        0.1666657562        0.5000000000
C                0.1666656001        0.3333322002        0.8315217824
C                0.5000003808        0.0000007617        0.1689885506
C                0.5000004599        0.0000009198        0.5000000000
C                0.5000003808        0.0000007617        0.8310104494
C                0.6666660000        0.3333330000        0.1684773298
C                0.8333332438        0.1666657562        0.5000000000
C                0.6666660000        0.3333330000        0.8315216702
C               -0.0000007617        0.4999996192        0.1689885506
C               -0.0000009198        0.4999995401        0.5000000000
C               -0.0000007617        0.4999996192        0.8310104494
C                0.1666656001        0.8333333999        0.1684772176
C                0.3333330000        0.6666660000        0.5000000000
C                0.1666656001        0.8333333999        0.8315217824
C                0.5000003808        0.4999996192        0.1689885506
C                0.5000004599        0.4999995401        0.5000000000
C                0.5000003808        0.4999996192        0.8310104494
C                0.6666667998        0.8333333999        0.1684772176
C                0.8333332438        0.6666664876        0.5000000000
C                0.6666667998        0.8333333999        0.8315217824



     Writing config-only to output data dir ../results/test/graphite.save/ :
     XML data file
     NEW-OLD atomic charge density approx. for the potential

     Check: negative core charge=   -0.000041

     total cpu time spent up to now is      926.8 secs

     Self-consistent Calculation

     iteration #  1     ecut=    40.00 Ry     beta= 0.70
     Davidson diagonalization with overlap
     c_bands:  1 eigenvalues not converged
     c_bands:  1 eigenvalues not converged
     ethr =  1.00E-06,  avg # of iterations = 12.0

     total cpu time spent up to now is      997.6 secs

     total energy              =    -287.01107481 Ry
     estimated scf accuracy    <       0.00996206 Ry

     iteration #  2     ecut=    40.00 Ry     beta= 0.70
     Davidson diagonalization with overlap
     ethr =  1.04E-05,  avg # of iterations =  2.2

     total cpu time spent up to now is     1019.4 secs

     total energy              =    -287.01286492 Ry
     estimated scf accuracy    <       0.00016911 Ry

     iteration #  3     ecut=    40.00 Ry     beta= 0.70
     Davidson diagonalization with overlap
     ethr =  1.76E-07,  avg # of iterations =  4.5

     total cpu time spent up to now is     1047.3 secs

     total energy              =    -287.01291880 Ry
     estimated scf accuracy    <       0.00029531 Ry

     iteration #  4     ecut=    40.00 Ry     beta= 0.70
     Davidson diagonalization with overlap
     ethr =  1.76E-07,  avg # of iterations =  2.2

     total cpu time spent up to now is     1067.1 secs

     total energy              =    -287.01297580 Ry
     estimated scf accuracy    <       0.00004637 Ry

     iteration #  5     ecut=    40.00 Ry     beta= 0.70
     Davidson diagonalization with overlap
     ethr =  4.83E-08,  avg # of iterations =  2.0

     total cpu time spent up to now is     1085.2 secs

[...]

     End of self-consistent calculation

          k = 0.0726 0.1258 0.0809 (  5116 PWs)   bands (ev):

   -11.0954 -10.6438 -10.3545  -6.6194  -6.6192  -6.2653  -6.2651  -6.0487
    -6.0485  -5.4629  -5.2342  -5.0967  -4.5634  -4.4282  -4.3158  -3.6607
    -3.6604  -3.3781  -3.3779  -3.2057  -3.2054  -0.3185   0.7267   1.7091
     1.8400   1.9162   2.2110   2.2112   2.3253   2.3255   2.3914   2.3916
     3.0788   4.8221   4.8223   5.3399   5.3971   5.4282   5.5549   5.5875
     5.5877   5.6021   5.6309   5.6807   6.2617   7.0817   7.0818   7.2336
     9.7599  10.3847  10.3848  10.6477  11.0622  11.0623  11.5523  12.3977
    12.3978  14.6381

          k = 0.0726 0.1258-0.2427 (  5150 PWs)   bands (ev):

   -10.9757 -10.8699 -10.2427  -6.5220  -6.5218  -6.4434  -6.4432  -5.9658
    -5.9655  -5.3641  -5.3569  -5.0818  -4.5785  -4.4588  -4.2578  -3.5836
    -3.5833  -3.5181  -3.5179  -3.1415  -3.1412  -0.6915   1.7430   1.7800
     1.8912   1.9424   2.1934   2.2403   2.2404   2.2736   2.2737   2.4139
     2.4140   4.5279   4.5281   5.3635   5.3637   5.4337   5.4377   5.5689
     5.5766   5.6425   6.4245   6.4246   6.5388   6.5390   6.6046   7.1706
     9.9036  10.2214  10.2215  10.7967  11.1244  11.6918  11.6919  11.8186
    11.8188  16.0509

          k = 0.0726 0.2935 0.0809 (  5139 PWs)   bands (ev):

   -10.6689 -10.2263  -9.9438  -8.1541  -7.7650  -7.5217  -7.1790  -6.8115
    -6.5840  -5.7771  -5.4474  -5.2512  -3.7484  -3.4799  -3.3158  -2.4441
    -2.1870  -2.0334  -1.5277  -1.2845  -1.1392   0.2006   0.4043   0.5767
     0.6787   1.2315   1.3769   1.5238   1.6099   2.6289   2.7397   2.8035
     3.1889   3.5484   3.9159   4.0225   4.0793   4.1058   4.3016   4.7485
     4.8250   4.8675   5.1537   5.7425   6.1098   6.4348   6.9614   7.6982
     9.9544  10.6277  11.2280  11.5803  11.8194  12.4281  13.0329  13.0474
    14.3412  15.0956

          k = 0.0726 0.2935-0.2427 (  5134 PWs)   bands (ev):

   -10.5514 -10.4476  -9.8348  -8.0496  -7.9587  -7.4292  -7.0794  -6.9948
    -6.4976  -5.6833  -5.6160  -5.1747  -3.6706  -3.6190  -3.2529  -2.3731
    -2.3145  -1.9760  -1.4614  -1.4035  -1.0856  -0.1672   0.4503   0.4946
     0.7151   1.4160   1.4544   1.6403   2.3813   2.6575   2.6762   2.6890
     2.8255   2.8573   3.9500   3.9661   3.9879   4.1013   4.7724   4.7848
     4.8840   5.1490   5.3418   5.4678   6.1465   6.2468   7.0753   7.3525
     9.9149  10.9324  11.0157  11.2271  12.1947  12.4469  12.5811  13.7593
    13.7913  16.4325

          k = 0.0726 0.4612 0.0809 (  5148 PWs)   bands (ev):

    -9.9060  -9.4795  -9.4011  -9.2090  -8.9854  -8.7227  -7.4234  -7.0505
    -6.8190  -6.0006  -5.6613  -5.4546  -2.4801  -2.2717  -2.1586  -1.2267
    -1.0422  -0.9429  -0.9019  -0.7525  -0.6574   0.3098   0.4412   0.5230
     0.7378   0.9286   1.0404   1.1224   1.7301   1.8617   2.0131   2.1120
     2.1492   2.7121   3.3426   3.4460   3.5049   3.7858   3.8831   3.9381
     4.0604   4.3750   4.9040   4.9444   5.6585   6.4408   6.8700   8.0642
    10.1868  10.7124  11.7366  11.8797  12.3695  13.3365  14.9536  15.4343
    15.8740  16.2423

          k = 0.0726 0.4612-0.2427 (  5138 PWs)   bands (ev):

    -9.7924  -9.6923  -9.2902  -9.1925  -9.1052  -8.6223  -7.3227  -7.2361
    -6.7312  -5.9069  -5.8317  -5.3758  -2.4050  -2.3916  -2.1141  -1.1599
    -1.1481  -0.9041  -0.8490  -0.8438  -0.6173   0.3565   0.3614   0.5574
     0.7647   0.7912   0.8336   1.0829   1.3787   1.9079   1.9443   2.1547
     3.2505   3.3696   3.3980   3.5253   3.5277   3.7395   3.8123   3.8140
     3.8375   3.9578   4.0762   5.3658   5.9566   6.1274   7.3793   7.3966
    10.0130  11.1572  11.4407  11.7052  12.7952  13.0705  14.7639  15.9895
    16.0174  16.0194

          k = 0.0726-0.3774 0.0809 (  5154 PWs)   bands (ev):

   -10.3290  -9.8936  -9.6165  -8.8163  -8.4130  -8.1594  -7.3417  -6.9705
    -6.7404  -5.9245  -5.5879  -5.3838  -3.0868  -2.8308  -2.6802  -1.7924
    -1.5583  -1.4225  -0.4006  -0.3269  -0.1826  -0.1431  -0.0535  -0.0329
     0.6126   0.7909   0.9495   1.0432   1.6311   2.4212   2.9365   2.9527
     3.0602   3.0726   3.1222   3.1475   3.3766   3.9210   4.1418   4.2637
     4.3524   4.4021   5.0156   5.4925   5.6926   6.4447   6.9033   7.9319
    10.1015  10.6629  11.6277  11.6770  12.1653  13.2475  13.6767  14.2284
    15.4004  15.4594

          k = 0.0726-0.3774-0.2427 (  5126 PWs)   bands (ev):

   -10.2133 -10.1111  -9.5098  -8.7084  -8.6138  -8.0627  -7.2414  -7.1554
    -6.6531  -5.8309  -5.7577  -5.3056  -3.0115  -2.9636  -2.6216  -1.7244
    -1.6778  -1.3703  -0.3406  -0.2895  -0.2751  -0.2350  -0.0057   0.0079
     0.2491   0.8360   0.8703   1.0778   2.0783   2.7637   2.9807   2.9825
     2.9878   3.0111   3.0737   3.1435   3.1770   3.8232   4.2889   4.3090
     4.4203   4.4524   4.6900   5.4057   6.0212   6.1701   7.2865   7.3748
     9.9603  11.0757  11.3541  11.4321  12.6892  12.8924  13.4609  14.8813
    14.9133  16.6631

          k = 0.0726-0.2096 0.0809 (  5133 PWs)   bands (ev):

   -10.9246 -10.4766 -10.1900  -7.4187  -7.0456  -6.9371  -6.8142  -6.5751
    -6.3519  -5.5774  -5.2698  -5.1014  -4.3146  -4.0731  -3.9137  -3.0780
    -2.8054  -2.6406  -2.6223  -2.3565  -2.1962  -0.1103   0.9293   1.1108
     1.2626   1.3518   1.8813   2.0102   2.0852   2.3799   2.4928   2.5581
     3.2679   4.0080   4.5328   4.7399   4.8176   4.8580   4.8681   5.1995
     5.2599   5.2941   5.3497   5.7629   6.3810   6.6888   7.0279   7.4344
     9.8124  10.6333  10.7888  11.2911  11.4226  11.5089  11.9281  12.7490
    13.3173  14.8207

          k = 0.0726-0.2096-0.2427 (  5142 PWs)   bands (ev):

   -10.8058 -10.7007 -10.0793  -7.3179  -7.2317  -6.8385  -6.7561  -6.7262
    -6.2669  -5.4824  -5.4331  -5.0334  -4.2324  -4.2158  -3.8495  -3.0037
    -2.9398  -2.5794  -2.5502  -2.4867  -2.1370  -0.4813   1.1506   1.1919
     1.3829   1.9148   1.9509   2.0880   2.1112   2.3874   2.4089   2.4416
     2.5803   3.6911   4.2269   4.7681   4.7737   4.8733   5.2222   5.2234
     5.3079   5.5057   5.8695   5.9691   6.3238   6.3401   6.8134   7.2906
     9.9075  10.5822  10.8002  11.0585  11.1297  12.0942  12.2020  12.6734
    12.7275  16.2057

          k = 0.0726-0.0419 0.0809 (  5133 PWs)   bands (ev):

   -11.1810 -10.7276 -10.4369  -6.2328  -5.8909  -5.7997  -5.7996  -5.6859
    -5.4854  -5.4853  -5.3128  -5.3127  -4.5360  -4.5360  -4.2876  -4.2875
    -4.1669  -4.1226  -4.1226  -3.8835  -3.7080  -0.4228   0.6252   2.1259
     2.1260   2.2408   2.2409   2.3012   2.3073   2.3074   2.4100   2.4728
     2.9838   5.1454   5.4564   5.4565   5.6584   5.7144   5.7353   5.7446
     5.7888   5.8178   5.8419   6.0773   6.0774   7.1119   7.1410   7.1410
     9.8433   9.8434  10.0600  10.6817  10.6817  10.8065  11.7452  11.7454
    12.0458  14.5478

          k = 0.0726-0.0419-0.2427 (  5146 PWs)   bands (ev):

   -11.0608 -10.9545 -10.3244  -6.1364  -6.0653  -5.7033  -5.7032  -5.6519
    -5.6517  -5.6061  -5.2430  -5.2429  -4.4531  -4.4530  -4.4326  -4.4325
    -4.0876  -4.0568  -4.0567  -4.0274  -3.6418  -0.7969   1.7924   2.0959
     2.1553   2.1554   2.1888   2.1889   2.3289   2.3299   2.3300   2.3611
     2.4940   4.8676   5.1983   5.1984   5.6796   5.6815   5.7554   5.7565
     5.7575   5.8290   6.4788   6.5145   6.5146   6.7705   6.9907   6.9909
     9.9039   9.9040   9.9915  10.9803  10.9804  11.2439  11.2441  11.3010
    11.4849  15.9739

          k = 0.2179 0.3774 0.0809 (  5140 PWs)   bands (ev):

   -10.0750  -9.6450  -9.3719  -8.5684  -8.5682  -8.1705  -8.1703  -7.9209
    -7.9206  -4.6067  -4.3919  -4.2654  -3.7496  -3.6328  -3.5414  -1.2514
    -1.0564  -0.9377  -0.3088  -0.3085  -0.1055  -0.1053   0.0110   0.0113
     0.9199   1.9283   1.9976   1.9977   2.1287   2.1288   2.2051   2.2052
     2.6086   2.7103   2.7203   2.7205   2.7649   3.6135   3.6649   3.6651
     3.6824   3.7247   4.1966   5.7559   5.7561   6.8992   7.4627   8.3361
     9.2294  10.0080  10.6449  13.4834  13.4835  13.9799  13.9800  14.9967
    14.9968  15.7518

          k = 0.2179 0.3774-0.2427 (  5128 PWs)   bands (ev):

    -9.9607  -9.8597  -9.2670  -8.4618  -8.4616  -8.3685  -8.3683  -7.8258
    -7.8256  -4.5150  -4.5080  -4.2476  -3.7741  -3.6448  -3.4956  -1.1943
    -1.1578  -0.8925  -0.2494  -0.2490  -0.2092  -0.2090   0.0559   0.0561
     0.5596   2.0353   2.0355   2.0620   2.0621   2.2337   2.2338   2.3816
     2.3817   2.6460   2.6489   2.7811   3.0630   3.3417   3.6338   3.6462
     3.7439   4.7308   4.7310   4.9620   4.9622   6.6504   7.7317   8.3733
     9.4066  10.0023  10.3771  13.2965  13.2966  14.4905  14.4906  14.6468
    14.6470  16.6657

          k = 0.2179 0.5451 0.0809 (  5130 PWs)   bands (ev):

    -9.6534  -9.2324  -9.1505  -8.9658  -8.7402  -8.6516  -8.4814  -8.2519
    -8.0010  -4.4966  -4.2169  -4.0653  -3.4765  -3.2849  -3.1693  -1.8524
    -1.7081  -1.6125   0.1971   0.3541   0.4385   0.7489   0.9177   1.0109
     1.4261   1.6413   1.7426   1.7514   1.8183   1.8699   1.9422   2.0304
     2.4242   2.4464   2.5598   2.6255   2.6279   2.9926   3.0052   3.0820
     3.1344   3.5755   4.6461   5.1708   5.6828   7.2017   7.8205   8.7098
     8.9440   9.5509  10.5206  13.7806  14.2229  14.6538  15.0884  15.1146
    15.7629  15.9804

          k = 0.2179 0.5451-0.2427 (  5122 PWs)   bands (ev):

    -9.5412  -9.4423  -9.0409  -8.9446  -8.8637  -8.5446  -8.4508  -8.3827
    -7.9054  -4.4085  -4.3662  -4.0044  -3.4147  -3.3907  -3.1240  -1.8104
    -1.7895  -1.5704   0.2548   0.2635   0.4715   0.8024   0.8273   1.0483
     1.0726   1.6796   1.6826   1.6853   1.7898   1.7975   1.8466   1.9677
     2.2850   2.4826   2.4990   2.6533   3.0239   3.0271   3.1554   3.5376
     3.8081   4.0960   4.3518   4.6458   4.8838   6.9414   8.1689   8.7258
     8.8968   9.9043  10.0769  13.6228  14.4950  14.6194  14.8588  15.5120
    15.6390  15.6898

          k = 0.2179-0.2935 0.0809 (  5143 PWs)   bands (ev):

   -10.4138  -9.9767  -9.6982  -8.4022  -8.0078  -7.9096  -7.7607  -7.5259
    -7.2866  -5.1371  -4.8418  -4.6811  -3.8971  -3.6699  -3.5230  -1.3840
    -1.1516  -1.0150  -0.9185  -0.6917  -0.5578  -0.4380  -0.2475  -0.1335
     0.5100   1.5318   1.6426   1.7837   1.8661   2.3877   2.5099   2.5806
     2.9089   3.3182   3.4214   3.4748   3.4842   3.8298   3.8427   4.2318
     4.3037   4.3458   4.3915   5.9001   6.3649   6.3738   6.9793   8.0046
     9.5871  10.3473  11.0271  12.3149  12.8671  12.9973  13.5564  14.0086
    14.7346  15.3771

          k = 0.2179-0.2935-0.2427 (  5126 PWs)   bands (ev):

   -10.2977 -10.1951  -9.5910  -8.2964  -8.2041  -7.8064  -7.7169  -7.6666
    -7.1957  -5.0449  -4.9991  -4.6164  -3.8155  -3.8087  -3.4624  -1.3186
    -1.2677  -0.9636  -0.8557  -0.8037  -0.5079  -0.3859  -0.3405  -0.0920
     0.1454   1.6811   1.7157   1.8958   2.4203   2.4511   2.5738   2.6058
     2.6717   2.9612   3.1559   3.3576   3.3645   3.4968   4.2589   4.2597
     4.3630   4.8995   5.1164   5.4250   5.6132   6.1085   7.3972   7.8828
     9.7085  10.3796  10.7828  12.1067  12.7818  13.4581  13.5927  14.1952
    14.2700  16.6732

          k = 0.2179-0.1258 0.0809 (  5138 PWs)   bands (ev):

   -10.8392 -10.3931 -10.1079  -7.8256  -7.4435  -7.2054  -6.3864  -6.3863
    -6.0381  -6.0380  -5.8257  -5.8256  -3.4584  -3.4584  -3.1833  -3.1833
    -3.0165  -3.0165  -2.1015  -1.8457  -1.6919  -0.0065   1.0302   1.1995
     1.1996   1.3498   1.3499   1.4380   1.4381   2.6367   2.7431   2.8044
     3.3619   3.5572   4.4088   4.4500   4.5081   4.5621   5.0739   5.1182
     5.1183   5.1492   5.1902   5.8795   5.8796   6.3769   7.3716   7.3717
    10.3466  10.3467  10.9826  10.9826  11.8454  12.1660  12.1661  12.4751
    13.8563  14.9112

          k = 0.2179-0.1258-0.2427 (  5140 PWs)   bands (ev):

   -10.7209 -10.6163  -9.9978  -7.7227  -7.6338  -7.1150  -6.2902  -6.2902
    -6.2134  -6.2133  -5.7443  -5.7442  -3.3823  -3.3823  -3.3208  -3.3208
    -2.9539  -2.9539  -2.0322  -1.9707  -1.6352  -0.3765   1.2391   1.2392
     1.2795   1.2796   1.4689   1.4690   2.1860   2.4840   2.6639   2.6951
     2.8252   3.2318   4.4395   4.4568   4.5828   4.8263   4.8264   5.0959
     5.1117   5.2057   5.4746   5.6302   6.7183   6.7184   6.8242   6.8244
    10.1975  10.1976  11.5120  11.5120  11.6055  11.7004  11.7005  13.2372
    13.2648  16.2772

          k = 0.3631 0.6289 0.0809 (  5137 PWs)   bands (ev):

    -9.5693  -9.5691  -9.1500  -9.1499  -8.8848  -8.8846  -8.0747  -7.6875
    -7.4457  -5.2490  -4.9309  -4.7408  -2.8961  -2.7121  -2.6051  -1.5128
    -1.3971  -1.3160  -0.4261  -0.2813  -0.1986   0.9025   1.0025   1.0677
     1.2993   1.2994   1.4628   1.4630   1.5207   1.5209   1.5799   1.5800
     2.5200   2.5202   3.1956   3.1960   3.3030   3.3032   3.3050   3.3636
     3.3640   4.2265   4.7323   4.7325   6.2564   6.4714   7.1920   8.6137
     9.4381   9.9881  11.0555  12.8499  13.3091  14.2219  15.4588  15.4590
    15.8811  15.8813

          k = 0.3631 0.6289-0.2427 (  5126 PWs)   bands (ev):

    -9.4576  -9.4573  -9.3591  -9.3589  -8.7833  -8.7831  -7.9707  -7.8802
    -7.3538  -5.1587  -5.0930  -4.6673  -2.8265  -2.8153  -2.5730  -1.4962
    -1.4474  -1.2788  -0.3707  -0.3632  -0.1727   0.9248   0.9532   1.0962
     1.1713   1.1715   1.3494   1.3496   1.3864   1.3866   1.6026   1.6028
     2.9730   3.2256   3.2261   3.2492   3.2494   3.3854   3.3858   3.6300
     3.6301   3.8976   3.8979   5.2706   5.4825   6.1952   7.9833   8.0966
     9.2743  10.4614  10.7103  12.6869  13.7033  13.9770  15.3006  15.3008
    16.3318  16.3322

          k = 0.3631-0.2096 0.0809 (  5149 PWs)   bands (ev):

   -10.1595  -9.7277  -9.4532  -9.1498  -8.7394  -8.4807  -6.7029  -6.7029
    -6.3465  -6.3464  -6.1270  -6.1270  -2.1482  -2.1482  -1.9194  -1.9193
    -1.7903  -1.7903  -0.0901  -0.0900   0.0764   0.0765   0.1582   0.1769
     0.1769   0.3646   0.4865   0.8172   1.8284   2.0274   2.4205   2.5754
     2.6614   2.9984   3.2774   3.3786   3.4365   4.1034   4.1460   4.2378
     4.2893   4.8717   4.8718   5.1586   5.7042   5.7043   7.4743   7.4744
    10.9229  10.9230  11.4478  11.4479  12.4792  12.4793  14.3397  14.8655
    15.6283  15.9758

          k = 0.3631-0.2096-0.2427 (  5148 PWs)   bands (ev):

   -10.0447  -9.9433  -9.3477  -9.0402  -8.9438  -8.3818  -6.6058  -6.6058
    -6.5244  -6.5244  -6.0437  -6.0436  -2.0774  -2.0773  -2.0411  -2.0410
    -1.7390  -1.7390  -0.0387  -0.0386  -0.0130  -0.0129   0.2150   0.2157
     0.2157   0.2634   0.4559   0.5317   1.6795   2.4613   2.4965   2.6921
     2.9666   3.2483   3.3035   3.3326   3.4564   4.0891   4.1704   4.1951
     4.3075   4.3415   4.5649   4.5650   6.6778   6.6780   6.7723   6.7724
    10.7409  10.7410  11.9117  11.9117  12.1736  12.1738  14.1316  15.4908
    15.5030  16.5306

     the Fermi energy is     8.8216 ev

!    total energy              =    -287.13265435 Ry
     estimated scf accuracy    <          5.4E-09 Ry
     smearing contrib. (-TS)   =      -0.00070026 Ry
     internal energy E=F+TS    =    -287.13195409 Ry

     The total energy is F=E-TS. E is the sum of the following terms:
     one-electron contribution =      -7.23284393 Ry
     hartree contribution      =      58.96588425 Ry
     xc contribution           =    -100.28066273 Ry
     ewald contribution        =    -238.58433167 Ry

     convergence has been achieved in  12 iterations

     Forces acting on atoms (cartesian axes, Ry/au):

     atom    1 type  1   force =    -0.00000000   -0.00000000    0.00040219
     atom    2 type  1   force =    -0.00000000    0.00000000    0.00000000
     atom    3 type  1   force =     0.00000000    0.00000000   -0.00040219
     atom    4 type  1   force =     0.00000000   -0.00005571    0.00069475
     atom    5 type  1   force =    -0.00009526   -0.00005500    0.00000000
     atom    6 type  1   force =     0.00000000   -0.00005571   -0.00069475
     atom    7 type  1   force =    -0.00000000    0.00004322    0.00040016
     atom    8 type  1   force =    -0.00000000    0.00007486    0.00000000
     atom    9 type  1   force =    -0.00000000    0.00004322   -0.00040016
     atom   10 type  1   force =    -0.00000000   -0.00000000    0.00069591
     atom   11 type  1   force =     0.00009526   -0.00005500   -0.00000000
     atom   12 type  1   force =     0.00000000    0.00000000   -0.00069591
     atom   13 type  1   force =    -0.00003743   -0.00002161    0.00040016
     atom   14 type  1   force =    -0.00006483   -0.00003743    0.00000000
     atom   15 type  1   force =    -0.00003743   -0.00002161   -0.00040016
     atom   16 type  1   force =    -0.00004825    0.00002786    0.00069475
     atom   17 type  1   force =     0.00000000   -0.00000000   -0.00000000
     atom   18 type  1   force =    -0.00004825    0.00002786   -0.00069475
     atom   19 type  1   force =     0.00003743   -0.00002161    0.00040016
     atom   20 type  1   force =     0.00006483   -0.00003743    0.00000000
     atom   21 type  1   force =     0.00003743   -0.00002161   -0.00040016
     atom   22 type  1   force =     0.00004825    0.00002786    0.00069475
     atom   23 type  1   force =    -0.00000000    0.00010999    0.00000000
     atom   24 type  1   force =     0.00004825    0.00002786   -0.00069475

     Total force =     0.002287     Total SCF correction =     0.000099


     Computing stress (Cartesian axis) and pressure

          total   stress  (Ry/bohr**3)                   (kbar)     P=      102.51
   0.00063515  -0.00000000  -0.00000000           93.43       -0.00       -0.00
   0.00000000   0.00063515   0.00000000            0.00       93.43        0.00
  -0.00000000   0.00000000   0.00082017           -0.00        0.00      120.65


     Writing all to output data dir ../results/test/graphite.save/ :
     XML data file, charge density, pseudopotentials, collected wavefunctions

     init_run     :     28.06s CPU     28.79s WALL (       2 calls)
     electrons    :   3249.39s CPU   3287.62s WALL (      13 calls)
     update_pot   :      0.17s CPU      0.17s WALL (      11 calls)
     forces       :     71.67s CPU     72.61s WALL (      13 calls)
     stress       :    289.66s CPU    291.42s WALL (      13 calls)

     Called by init_run:
     wfcinit      :     27.48s CPU     28.18s WALL (       2 calls)
     potinit      :      0.04s CPU      0.04s WALL (       2 calls)
     hinit0       :      0.32s CPU      0.33s WALL (       2 calls)

     Called by electrons:
     c_bands      :   3016.47s CPU   3049.75s WALL (      96 calls)
     sum_band     :    226.75s CPU    231.58s WALL (      96 calls)
     v_of_rho     :      0.53s CPU      0.55s WALL (     106 calls)
     newd         :      5.86s CPU      5.95s WALL (     106 calls)
     mix_rho      :      0.39s CPU      0.40s WALL (      96 calls)

     Called by c_bands:
     init_us_2    :     21.54s CPU     21.81s WALL (    5280 calls)
     cegterg      :   2978.30s CPU   3011.26s WALL (    2306 calls)

     Called by *egterg:
     cdiaghg      :    107.79s CPU    108.32s WALL (   12644 calls)
     h_psi        :   1403.62s CPU   1426.68s WALL (   13030 calls)
     s_psi        :    418.17s CPU    420.61s WALL (   13030 calls)
     g_psi        :      9.81s CPU      9.90s WALL (   10676 calls)

     Called by h_psi:
     h_psi:calbec :    401.98s CPU    405.15s WALL (   13030 calls)
     vloc_psi     :    583.62s CPU    601.03s WALL (   13030 calls)
     add_vuspsi   :    413.57s CPU    416.01s WALL (   13030 calls)

     General routines
     calbec       :    600.94s CPU    606.38s WALL (   16894 calls)
     fft          :      0.60s CPU      0.62s WALL (     542 calls)
     ffts         :      0.11s CPU      0.12s WALL (      96 calls)
     fftw         :    579.12s CPU    596.93s WALL ( 1056808 calls)

     Parallel routines

     PWSCF        :      1h 0m CPU      1h 1m WALL


   This run was terminated on:  11:55:38   5Aug2024            

=------------------------------------------------------------------------------=
   JOB DONE.
=------------------------------------------------------------------------------=
