
     Program PWSCF v.7.2 starts on  2Sep2024 at 21:18:33 

     This program is part of the open-source Quantum ESPRESSO suite
     for quantum simulation of materials; please cite
         "P. Giannozzi et al., J. Phys.:Condens. Matter 21 395502 (2009);
         "P. Giannozzi et al., J. Phys.:Condens. Matter 29 465901 (2017);
         "P. Giannozzi et al., J. Chem. Phys. 152 154105 (2020);
          URL http://www.quantum-espresso.org", 
     in publications or presentations arising from this work. More details at
     http://www.quantum-espresso.org/quote

     Parallel version (MPI & OpenMP), running on      96 processor cores
     Number of MPI processes:                96
     Threads/MPI process:                     1

     MPI processes distributed on     2 nodes
     363833 MiB available memory on the printing compute node when the environment starts
 
     Reading input from hydrogen_absorption5.in

     Current dimensions of program PWSCF are:
     Max number of different atomic species (ntypx) = 10
     Max number of k-points (npk) =  40000
     Max angular momentum in pseudopotentials (lmaxx) =  4

     IMPORTANT: XC functional enforced from input :
     Exchange-correlation= LDA
                           (   1   1   0   0   0   0   0)
     Any further DFT definition will be discarded
     Please, verify this is what you really want

 
     K-points division:     npool     =       2
     R & G space division:  proc/nbgrp/npool/nimage =      48
     Subspace diagonalization in iterative solution of the eigenvalue problem:
     a serial algorithm will be used

 
     Parallelization info
     --------------------
     sticks:   dense  smooth     PW     G-vecs:    dense   smooth      PW
     Min          48      19      5                 5268     1332     210
     Max          49      20      6                 5289     1349     227
     Sum        2347     955    283               253683    64261   10477
 
     Using Slab Decomposition
 

     Title: 
     5H2_absorption_C                                                           


     bravais-lattice index     =            0
     lattice parameter (alat)  =       8.0000  a.u.
     unit-cell volume          =    1877.4825 (a.u.)^3
     number of atoms/cell      =           34
     number of atomic types    =            2
     number of electrons       =       106.00
     number of Kohn-Sham states=           64
     kinetic-energy cutoff     =      40.0000  Ry
     charge density cutoff     =     400.0000  Ry
     scf convergence threshold =      1.0E-06
     mixing beta               =       0.0500
     number of iterations used =            8  local-TF  mixing
     energy convergence thresh.=      1.0E-04
     force convergence thresh. =      1.0E-03
     press convergence thresh. =      5.0E-01
     Exchange-correlation= LDA
                           (   1   1   0   0   0   0   0)
     nstep                     =           50


     celldm(1)=   8.000004  celldm(2)=   0.000000  celldm(3)=   0.000000
     celldm(4)=   0.000000  celldm(5)=   0.000000  celldm(6)=   0.000000

     crystal axes: (cart. coord. in units of alat)
               a(1) = (   1.155065   0.003013  -0.005699 )  
               a(2) = (  -0.580577   0.991771  -0.116590 )  
               a(3) = (   0.001423  -0.262750   3.227725 )  

     reciprocal axes: (cart. coord. in units 2 pi/alat)
               b(1) = (  0.864623  0.510991  0.041216 )  
               b(2) = ( -0.002244  1.016713  0.082766 )  
               b(3) = (  0.001446  0.037627  0.312878 )  


     PseudoPot. # 1 for C  read from file:
     ../../potentials/C.pz-n-rrkjus_psl.0.1.UPF
     MD5 check sum: a3cecbabebb5b3a1aff122f23eb09bb0
     Pseudo is Ultrasoft + core correction, Zval =  4.0
     Generated using "atomic" code by A. Dal Corso  v.5.0.2 svn rev. 9415
     Using radial grid of 1073 points,  4 beta functions with: 
                l(1) =   0
                l(2) =   0
                l(3) =   1
                l(4) =   1
     Q(r) pseudized with 0 coefficients 


     PseudoPot. # 2 for H  read from file:
     ../../potentials/H.pz-rrkjus_psl.0.1.UPF
     MD5 check sum: 1467ebfaa2880178e80d097b970df8c7
     Pseudo is Ultrasoft, Zval =  1.0
     Generated using "atomic" code by A. Dal Corso  v.5.0.2 svn rev. 9415
     Using radial grid of  929 points,  2 beta functions with: 
                l(1) =   0
                l(2) =   0
     Q(r) pseudized with 0 coefficients 


     atomic species   valence    mass     pseudopotential
        C              4.00    12.01100     C ( 1.00)
        H              1.00     1.00784     H ( 1.00)

     No symmetry found



   Cartesian axes

     site n.     atom                  positions (alat units)
         1           C   tau(   1) = (  -0.0103991  -0.1422233   0.5102285  )
         2           C   tau(   2) = (  -0.0040377  -0.0459593   1.2637540  )
         3           C   tau(   3) = (   0.0142852  -0.1779739   2.9541897  )
         4           C   tau(   4) = (  -0.0114514   0.1888462   0.4699721  )
         5           C   tau(   5) = (   0.2843830   0.1204357   1.2439150  )
         6           C   tau(   6) = (   0.0131037   0.1530821   2.9139575  )
         7           C   tau(   7) = (   0.5671276  -0.1407211   0.5073334  )
         8           C   tau(   8) = (   0.5736934  -0.0445698   1.2609385  )
         9           C   tau(   9) = (   0.5916819  -0.1764408   2.9510192  )
        10           C   tau(  10) = (   0.5660800   0.1903522   0.4670671  )
        11           C   tau(  11) = (   0.8617591   0.1217981   1.2376619  )
        12           C   tau(  12) = (   0.5905361   0.1546975   2.9110037  )
        13           C   tau(  13) = (  -0.3006842   0.3536350   0.4516864  )
        14           C   tau(  14) = (  -0.2945485   0.4494119   1.2010559  )
        15           C   tau(  15) = (  -0.2761807   0.3180651   2.8957930  )
        16           C   tau(  16) = (  -0.3017599   0.6847324   0.4116155  )
        17           C   tau(  17) = (  -0.0063117   0.6158997   1.1833134  )
        18           C   tau(  18) = (  -0.2770665   0.6491730   2.8565530  )
        19           C   tau(  19) = (   0.2768588   0.3551664   0.4490920  )
        20           C   tau(  20) = (   0.2832510   0.4513880   1.2023279  )
        21           C   tau(  21) = (   0.3012312   0.3195469   2.8935186  )
        22           C   tau(  22) = (   0.2757888   0.6862563   0.4089836  )
        23           C   tau(  23) = (   0.5713357   0.6174983   1.1786590  )
        24           C   tau(  24) = (   0.3004041   0.6505060   2.8528880  )
        25           H   tau(  25) = (   0.2299669   0.8143101   1.9204673  )
        26           H   tau(  26) = (   0.3300371   0.9660712   1.9013424  )
        27           H   tau(  27) = (  -0.0532588   0.4652124   2.1962553  )
        28           H   tau(  28) = (   0.0716104   0.3445227   2.2530121  )
        29           H   tau(  29) = (   0.5145851   0.4754582   2.2789495  )
        30           H   tau(  30) = (   0.6517094   0.3586741   2.3086710  )
        31           H   tau(  31) = (   0.2197937  -0.1225637   2.3115013  )
        32           H   tau(  32) = (   0.3815463  -0.0406608   2.3327514  )
        33           H   tau(  33) = (  -0.4290405   0.4612725   1.8283216  )
        34           H   tau(  34) = (  -0.3145956   0.5909537   1.7721672  )

     number of k points=    36  Gaussian smearing, width (Ry)=  0.0100
                       cart. coord. in units 2pi/alat
        k(    1) = (   0.0722263   0.1367155   0.0885513), wk =   0.0555556
        k(    2) = (   0.0715035   0.1179018  -0.0678877), wk =   0.0555556
        k(    3) = (   0.0718524   0.3061677   0.1023456), wk =   0.0555556
        k(    4) = (   0.0711295   0.2873540  -0.0540935), wk =   0.0555556
        k(    5) = (   0.0714784   0.4756199   0.1161399), wk =   0.0555556
        k(    6) = (   0.0707556   0.4568063  -0.0402992), wk =   0.0555556
        k(    7) = (   0.0733482  -0.3716412   0.0471685), wk =   0.0555556
        k(    8) = (   0.0726254  -0.3904548  -0.1092706), wk =   0.0555556
        k(    9) = (   0.0729743  -0.2021889   0.0609628), wk =   0.0555556
        k(   10) = (   0.0722515  -0.2210026  -0.0954763), wk =   0.0555556
        k(   11) = (   0.0726003  -0.0327367   0.0747570), wk =   0.0555556
        k(   12) = (   0.0718775  -0.0515504  -0.0816820), wk =   0.0555556
        k(   13) = (   0.2163301   0.2218806   0.0954206), wk =   0.0555556
        k(   14) = (   0.2156073   0.2030669  -0.0610185), wk =   0.0555556
        k(   15) = (   0.2159562   0.3913328   0.1092149), wk =   0.0555556
        k(   16) = (   0.2152334   0.3725192  -0.0472242), wk =   0.0555556
        k(   17) = (   0.2155822   0.5607850   0.1230092), wk =   0.0555556
        k(   18) = (   0.2148594   0.5419714  -0.0334299), wk =   0.0555556
        k(   19) = (   0.2174520  -0.2864760   0.0540378), wk =   0.0555556
        k(   20) = (   0.2167292  -0.3052897  -0.1024013), wk =   0.0555556
        k(   21) = (   0.2170781  -0.1170238   0.0678320), wk =   0.0555556
        k(   22) = (   0.2163553  -0.1358375  -0.0886070), wk =   0.0555556
        k(   23) = (   0.2167041   0.0524284   0.0816263), wk =   0.0555556
        k(   24) = (   0.2159813   0.0336147  -0.0748127), wk =   0.0555556
        k(   25) = (   0.3604340   0.3070457   0.1022899), wk =   0.0555556
        k(   26) = (   0.3597111   0.2882320  -0.0541492), wk =   0.0555556
        k(   27) = (   0.3600600   0.4764979   0.1160842), wk =   0.0555556
        k(   28) = (   0.3593372   0.4576843  -0.0403549), wk =   0.0555556
        k(   29) = (   0.3596860   0.6459501   0.1298784), wk =   0.0555556
        k(   30) = (   0.3589632   0.6271365  -0.0265606), wk =   0.0555556
        k(   31) = (   0.3615559  -0.2013109   0.0609070), wk =   0.0555556
        k(   32) = (   0.3608331  -0.2201246  -0.0955320), wk =   0.0555556
        k(   33) = (   0.3611819  -0.0318587   0.0747013), wk =   0.0555556
        k(   34) = (   0.3604591  -0.0506724  -0.0817377), wk =   0.0555556
        k(   35) = (   0.3608079   0.1375935   0.0884956), wk =   0.0555556
        k(   36) = (   0.3600851   0.1187798  -0.0679435), wk =   0.0555556

     Dense  grid:   253683 G-vectors     FFT dimensions: (  60,  60, 180)

     Smooth grid:    64261 G-vectors     FFT dimensions: (  40,  40, 108)

     Estimated max dynamical RAM per process >      13.41 MB

     Estimated total dynamical RAM >       1.20 GB

     Check: negative core charge=   -0.000002

     Initial potential from superposition of free atoms

     starting charge     105.9990, renormalised to     106.0000
     Starting wfcs are  106 randomized atomic wfcs

     total cpu time spent up to now is        1.0 secs

     Self-consistent Calculation

     iteration #  1     ecut=    40.00 Ry     beta= 0.05
     Davidson diagonalization with overlap
     ethr =  1.00E-02,  avg # of iterations =  3.3

     total cpu time spent up to now is        2.5 secs

     total energy              =    -299.48245359 Ry
     estimated scf accuracy    <       1.98682596 Ry

     iteration #  2     ecut=    40.00 Ry     beta= 0.05
     Davidson diagonalization with overlap
     ethr =  1.87E-03,  avg # of iterations =  3.4

     total cpu time spent up to now is        3.7 secs

     total energy              =    -300.36901016 Ry
     estimated scf accuracy    <       2.46560697 Ry

     iteration #  3     ecut=    40.00 Ry     beta= 0.05
     Davidson diagonalization with overlap
     ethr =  1.87E-03,  avg # of iterations =  1.0

     total cpu time spent up to now is        4.5 secs

     total energy              =    -298.40494952 Ry
     estimated scf accuracy    <       3.66062583 Ry

     iteration #  4     ecut=    40.00 Ry     beta= 0.05
     Davidson diagonalization with overlap
     ethr =  1.87E-03,  avg # of iterations =  2.0

     total cpu time spent up to now is        5.4 secs

     total energy              =    -298.54056571 Ry
     estimated scf accuracy    <       0.28569759 Ry

     iteration #  5     ecut=    40.00 Ry     beta= 0.05
     Davidson diagonalization with overlap
     ethr =  2.70E-04,  avg # of iterations =  9.3

     total cpu time spent up to now is        7.9 secs

     total energy              =    -298.61859890 Ry
     estimated scf accuracy    <       0.12268285 Ry

     iteration #  6     ecut=    40.00 Ry     beta= 0.05
     Davidson diagonalization with overlap
     c_bands:  2 eigenvalues not converged
     c_bands:  2 eigenvalues not converged
     ethr =  1.16E-04,  avg # of iterations =  5.7

     total cpu time spent up to now is        9.7 secs

     total energy              =    -298.57929825 Ry
     estimated scf accuracy    <       0.09384957 Ry

     iteration #  7     ecut=    40.00 Ry     beta= 0.05
     Davidson diagonalization with overlap
     ethr =  8.85E-05,  avg # of iterations =  5.4

     total cpu time spent up to now is       11.2 secs

     total energy              =    -298.60486655 Ry
     estimated scf accuracy    <       0.01727712 Ry

     iteration #  8     ecut=    40.00 Ry     beta= 0.05
     Davidson diagonalization with overlap
     c_bands:  1 eigenvalues not converged
     c_bands:  1 eigenvalues not converged
     c_bands:  1 eigenvalues not converged
     ethr =  1.63E-05,  avg # of iterations = 11.7

     total cpu time spent up to now is       13.9 secs

     total energy              =    -298.61106614 Ry
     estimated scf accuracy    <       0.01643953 Ry

     iteration #  9     ecut=    40.00 Ry     beta= 0.05
     Davidson diagonalization with overlap
     ethr =  1.55E-05,  avg # of iterations =  5.5

     total cpu time spent up to now is       15.6 secs

     total energy              =    -298.65090977 Ry
     estimated scf accuracy    <       0.02404027 Ry

     iteration # 10     ecut=    40.00 Ry     beta= 0.05
     Davidson diagonalization with overlap
     c_bands:  1 eigenvalues not converged
     c_bands:  1 eigenvalues not converged
     ethr =  1.55E-05,  avg # of iterations =  9.4

     total cpu time spent up to now is       17.9 secs

     total energy              =    -298.65582336 Ry
     estimated scf accuracy    <       0.12359004 Ry

     iteration # 11     ecut=    40.00 Ry     beta= 0.05
     Davidson diagonalization with overlap
     ethr =  1.55E-05,  avg # of iterations =  1.0

     total cpu time spent up to now is       18.7 secs

     total energy              =    -298.59418194 Ry
     estimated scf accuracy    <       0.11285527 Ry

     iteration # 12     ecut=    40.00 Ry     beta= 0.05
     Davidson diagonalization with overlap
     c_bands:  1 eigenvalues not converged
     ethr =  1.55E-05,  avg # of iterations =  5.8

     total cpu time spent up to now is       20.6 secs

     total energy              =    -298.60671442 Ry
     estimated scf accuracy    <       0.00651474 Ry

     iteration # 13     ecut=    40.00 Ry     beta= 0.05
     Davidson diagonalization with overlap
     ethr =  6.15E-06,  avg # of iterations =  7.4

     total cpu time spent up to now is       22.2 secs

     total energy              =    -298.60472371 Ry
     estimated scf accuracy    <       0.00944438 Ry

     iteration # 14     ecut=    40.00 Ry     beta= 0.05
     Davidson diagonalization with overlap
     ethr =  6.15E-06,  avg # of iterations =  1.2

     total cpu time spent up to now is       23.0 secs

     total energy              =    -298.60143253 Ry
     estimated scf accuracy    <       0.00522056 Ry

     iteration # 15     ecut=    40.00 Ry     beta= 0.05
     Davidson diagonalization with overlap
     c_bands:  1 eigenvalues not converged
     c_bands:  1 eigenvalues not converged
     c_bands:  2 eigenvalues not converged
     ethr =  4.93E-06,  avg # of iterations = 10.9

     total cpu time spent up to now is       25.5 secs

     total energy              =    -298.60607051 Ry
     estimated scf accuracy    <       0.00375056 Ry

     iteration # 16     ecut=    40.00 Ry     beta= 0.05
     Davidson diagonalization with overlap
     c_bands:  1 eigenvalues not converged
     ethr =  3.54E-06,  avg # of iterations =  3.1

     total cpu time spent up to now is       26.5 secs

     total energy              =    -298.60321002 Ry
     estimated scf accuracy    <       0.00617118 Ry

     iteration # 17     ecut=    40.00 Ry     beta= 0.05
     Davidson diagonalization with overlap
     ethr =  3.54E-06,  avg # of iterations =  2.5

     total cpu time spent up to now is       27.4 secs

     total energy              =    -298.60252101 Ry
     estimated scf accuracy    <       0.00158137 Ry

     iteration # 18     ecut=    40.00 Ry     beta= 0.05
     Davidson diagonalization with overlap
     c_bands:  2 eigenvalues not converged
     ethr =  1.49E-06,  avg # of iterations =  5.9

     total cpu time spent up to now is       29.1 secs

     total energy              =    -298.60311951 Ry
     estimated scf accuracy    <       0.00055206 Ry

     iteration # 19     ecut=    40.00 Ry     beta= 0.05
     Davidson diagonalization with overlap
     c_bands:  1 eigenvalues not converged
     ethr =  5.21E-07,  avg # of iterations =  6.4

     total cpu time spent up to now is       31.0 secs

     total energy              =    -298.60395659 Ry
     estimated scf accuracy    <       0.00050270 Ry

     iteration # 20     ecut=    40.00 Ry     beta= 0.05
     Davidson diagonalization with overlap
     c_bands:  1 eigenvalues not converged
     ethr =  4.74E-07,  avg # of iterations =  3.9

     total cpu time spent up to now is       32.4 secs

     total energy              =    -298.60293215 Ry
     estimated scf accuracy    <       0.00184614 Ry

     iteration # 21     ecut=    40.00 Ry     beta= 0.05
     Davidson diagonalization with overlap
     ethr =  4.74E-07,  avg # of iterations =  4.2

     total cpu time spent up to now is       33.9 secs

     total energy              =    -298.60309330 Ry
     estimated scf accuracy    <       0.00007302 Ry

     iteration # 22     ecut=    40.00 Ry     beta= 0.05
     Davidson diagonalization with overlap
     ethr =  6.89E-08,  avg # of iterations =  4.0

     total cpu time spent up to now is       35.3 secs

     total energy              =    -298.60311568 Ry
     estimated scf accuracy    <       0.00003696 Ry

     iteration # 23     ecut=    40.00 Ry     beta= 0.05
     Davidson diagonalization with overlap
     ethr =  3.49E-08,  avg # of iterations =  1.1

     total cpu time spent up to now is       36.0 secs

     total energy              =    -298.60311600 Ry
     estimated scf accuracy    <       0.00003554 Ry

     iteration # 24     ecut=    40.00 Ry     beta= 0.05
     Davidson diagonalization with overlap
     ethr =  3.35E-08,  avg # of iterations =  1.6

     total cpu time spent up to now is       36.8 secs

     total energy              =    -298.60312153 Ry
     estimated scf accuracy    <       0.00003656 Ry

     iteration # 25     ecut=    40.00 Ry     beta= 0.05
     Davidson diagonalization with overlap
     ethr =  3.35E-08,  avg # of iterations =  2.1

     total cpu time spent up to now is       37.7 secs

     total energy              =    -298.60313446 Ry
     estimated scf accuracy    <       0.00004358 Ry

     iteration # 26     ecut=    40.00 Ry     beta= 0.05
     Davidson diagonalization with overlap
     ethr =  3.35E-08,  avg # of iterations =  2.0

     total cpu time spent up to now is       38.6 secs

     total energy              =    -298.60313824 Ry
     estimated scf accuracy    <       0.00006378 Ry

     iteration # 27     ecut=    40.00 Ry     beta= 0.05
     Davidson diagonalization with overlap
     ethr =  3.35E-08,  avg # of iterations =  1.0

     total cpu time spent up to now is       39.3 secs

     total energy              =    -298.60313327 Ry
     estimated scf accuracy    <       0.00006841 Ry

     iteration # 28     ecut=    40.00 Ry     beta= 0.05
     Davidson diagonalization with overlap
     ethr =  3.35E-08,  avg # of iterations =  1.0

     total cpu time spent up to now is       40.0 secs

     total energy              =    -298.60310839 Ry
     estimated scf accuracy    <       0.00005163 Ry

     iteration # 29     ecut=    40.00 Ry     beta= 0.05
     Davidson diagonalization with overlap
     ethr =  3.35E-08,  avg # of iterations =  3.5

     total cpu time spent up to now is       41.3 secs

     total energy              =    -298.60311682 Ry
     estimated scf accuracy    <       0.00001798 Ry

     iteration # 30     ecut=    40.00 Ry     beta= 0.05
     Davidson diagonalization with overlap
     ethr =  1.70E-08,  avg # of iterations =  4.0

     total cpu time spent up to now is       42.6 secs

     total energy              =    -298.60311771 Ry
     estimated scf accuracy    <       0.00002651 Ry

     iteration # 31     ecut=    40.00 Ry     beta= 0.05
     Davidson diagonalization with overlap
     ethr =  1.70E-08,  avg # of iterations =  2.0

     total cpu time spent up to now is       43.5 secs

     total energy              =    -298.60311153 Ry
     estimated scf accuracy    <       0.00001923 Ry

     iteration # 32     ecut=    40.00 Ry     beta= 0.05
     Davidson diagonalization with overlap
     ethr =  1.70E-08,  avg # of iterations =  2.0

     total cpu time spent up to now is       44.3 secs

     total energy              =    -298.60311368 Ry
     estimated scf accuracy    <       0.00000511 Ry

     iteration # 33     ecut=    40.00 Ry     beta= 0.05
     Davidson diagonalization with overlap
     ethr =  4.82E-09,  avg # of iterations =  2.0

     total cpu time spent up to now is       45.5 secs

     total energy              =    -298.60311403 Ry
     estimated scf accuracy    <       0.00000490 Ry

     iteration # 34     ecut=    40.00 Ry     beta= 0.05
     Davidson diagonalization with overlap
     ethr =  4.63E-09,  avg # of iterations =  1.0

     total cpu time spent up to now is       46.3 secs

     total energy              =    -298.60311276 Ry
     estimated scf accuracy    <       0.00000509 Ry

     iteration # 35     ecut=    40.00 Ry     beta= 0.05
     Davidson diagonalization with overlap
     ethr =  4.63E-09,  avg # of iterations =  2.0

     total cpu time spent up to now is       47.2 secs

     total energy              =    -298.60311322 Ry
     estimated scf accuracy    <       0.00000183 Ry

     iteration # 36     ecut=    40.00 Ry     beta= 0.05
     Davidson diagonalization with overlap
     ethr =  1.73E-09,  avg # of iterations =  2.0

     total cpu time spent up to now is       48.1 secs

     total energy              =    -298.60311338 Ry
     estimated scf accuracy    <       0.00000146 Ry

     iteration # 37     ecut=    40.00 Ry     beta= 0.05
     Davidson diagonalization with overlap
     ethr =  1.38E-09,  avg # of iterations =  2.0

     total cpu time spent up to now is       49.0 secs

     total energy              =    -298.60311303 Ry
     estimated scf accuracy    <       0.00000171 Ry

     iteration # 38     ecut=    40.00 Ry     beta= 0.05
     Davidson diagonalization with overlap
     ethr =  1.38E-09,  avg # of iterations =  1.1

     total cpu time spent up to now is       49.8 secs

     total energy              =    -298.60311280 Ry
     estimated scf accuracy    <       0.00000110 Ry

     iteration # 39     ecut=    40.00 Ry     beta= 0.05
     Davidson diagonalization with overlap
     ethr =  1.04E-09,  avg # of iterations =  1.0

     total cpu time spent up to now is       50.5 secs

     total energy              =    -298.60311316 Ry
     estimated scf accuracy    <       0.00000105 Ry

     iteration # 40     ecut=    40.00 Ry     beta= 0.05
     Davidson diagonalization with overlap
     ethr =  9.90E-10,  avg # of iterations =  2.0

     total cpu time spent up to now is       51.5 secs

     End of self-consistent calculation

          k = 0.0722 0.1367 0.0886 (  8032 PWs)   bands (ev):

   -14.8108 -14.6452 -14.4883 -10.4466 -10.4453 -10.3228 -10.3196 -10.2098
   -10.2075  -9.3612  -9.2786  -9.2135  -8.5249  -8.4502  -8.4129  -7.5444
    -7.5431  -7.4460  -7.4434  -7.3583  -7.3564  -4.2766  -3.5971  -2.9592
    -2.3026  -2.2569  -2.2205  -1.9282  -1.8136  -1.8133  -1.7739  -1.7732
    -1.7420  -1.7407  -0.7259  -0.4773  -0.0249   0.1587   1.2170   1.2239
     1.2429   1.2513   1.2773   1.4276   1.4397   1.4674   1.8175   1.8277
     2.0109   2.3476   2.3526   2.3915   2.8012   5.9985   6.4206   6.6198
     6.6513   6.6972   6.9933   7.0531   7.4697   7.4948   8.9806   9.1321

          k = 0.0715 0.1179-0.0679 (  8027 PWs)   bands (ev):

   -14.8109 -14.6451 -14.4884 -10.4465 -10.4453 -10.3228 -10.3196 -10.2098
   -10.2075  -9.3612  -9.2786  -9.2135  -8.5250  -8.4501  -8.4129  -7.5444
    -7.5430  -7.4460  -7.4434  -7.3583  -7.3563  -4.2397  -3.7278  -2.7550
    -2.3026  -2.2569  -2.2205  -2.0751  -1.8136  -1.8133  -1.7739  -1.7732
    -1.7420  -1.7407  -0.6872  -0.4792  -0.0244   0.1591   1.2180   1.2270
     1.2429   1.2484   1.2793   1.4277   1.4397   1.4674   1.8137   1.8267
     2.0112   2.3438   2.3574   2.3913   2.8027   5.9927   6.4342   6.6131
     6.6551   6.6877   6.9996   7.0569   7.4682   7.4903   9.0023   9.1873

          k = 0.0719 0.3062 0.1023 (  8026 PWs)   bands (ev):

   -14.3943 -14.2326 -14.0797 -11.9399 -11.8000 -11.6712 -10.9893 -10.8580
   -10.7388  -9.6300  -9.5140  -9.4121  -7.6375  -7.5429  -7.4622  -6.3614
    -6.2724  -6.1957  -5.4633  -5.3784  -5.3060  -3.8316  -3.5659  -3.5063
    -3.4569  -3.0454  -2.6197  -2.6042  -2.5666  -2.5258  -1.4176  -1.4047
    -1.3673  -1.3404  -1.3345  -0.6936  -0.4767  -0.1628  -0.1282  -0.1059
    -0.0817   0.0727   0.5558   0.6550   0.6804   0.7032   0.7990   1.2170
     1.4747   2.0856   2.1127   2.5974   3.1093   6.1945   6.4829   6.8066
     7.4508   7.8126   8.2332   8.5828   8.8251   9.0344   9.4805   9.5797

          k = 0.0711 0.2874-0.0541 (  8041 PWs)   bands (ev):

   -14.3944 -14.2324 -14.0798 -11.9399 -11.8000 -11.6712 -10.9892 -10.8581
   -10.7388  -9.6300  -9.5140  -9.4120  -7.6375  -7.5429  -7.4621  -6.3614
    -6.2724  -6.1957  -5.4633  -5.3785  -5.3060  -3.7697  -3.5659  -3.5057
    -3.4570  -3.2928  -2.6194  -2.5673  -2.5263  -2.1876  -1.7638  -1.4048
    -1.3662  -1.3351  -1.2944  -0.6574  -0.4535  -0.1631  -0.1281  -0.1084
    -0.0889   0.0856   0.5723   0.6549   0.6805   0.7032   0.7965   1.2094
     1.4707   2.0911   2.1136   2.5998   3.1071   6.1910   6.4929   6.8008
     7.4558   7.8079   8.2383   8.6334   8.8176   9.0717   9.4809   9.5686

          k = 0.0715 0.4756 0.1161 (  8023 PWs)   bands (ev):

   -13.6495 -13.4944 -13.3489 -13.1566 -13.0057 -12.8652 -11.2270 -11.0934
   -10.9716  -9.8425  -9.7223  -9.6152  -6.4288  -6.3657  -6.3150  -5.2029
    -5.1476  -5.1029  -4.8494  -4.8004  -4.7581  -3.6688  -3.6258  -3.5888
    -3.2553  -3.1887  -3.1376  -3.1160  -2.4105  -2.1799  -2.1557  -2.1012
    -2.0576  -1.8613  -1.6541  -0.8699  -0.7539  -0.7077  -0.6720  -0.6426
    -0.5923  -0.3566  -0.2769  -0.2431  -0.2150   0.0719   0.3114   0.5784
     1.2901   1.9651   2.0467   2.6392   3.2614   6.4637   6.7160   6.9986
     8.1111   8.3572   8.5940   8.6876   9.5831  10.2381  10.9966  11.1272

          k = 0.0708 0.4568-0.0403 (  8015 PWs)   bands (ev):

   -13.6496 -13.4942 -13.3490 -13.1566 -13.0059 -12.8652 -11.2270 -11.0934
   -10.9716  -9.8424  -9.7223  -9.6151  -6.4288  -6.3658  -6.3150  -5.2029
    -5.1475  -5.1029  -4.8495  -4.8004  -4.7581  -3.6689  -3.6256  -3.5888
    -3.2548  -3.1900  -3.1344  -3.0849  -2.5236  -2.2572  -2.1590  -2.1025
    -2.0573  -1.6631  -1.3700  -1.1876  -0.9842  -0.7078  -0.6721  -0.6426
    -0.5528  -0.2768  -0.2431  -0.2151  -0.0824   0.0397   0.2552   0.5876
     1.2778   1.9730   2.0415   2.6456   3.2581   6.4637   6.7178   6.9968
     8.1137   8.3526   8.6121   8.6978   9.5670  10.2335  10.9583  11.0689

          k = 0.0733-0.3716 0.0472 (  8028 PWs)   bands (ev):

   -14.0625 -13.9034 -13.7542 -12.5860 -12.4403 -12.3052 -11.1473 -11.0143
   -10.8933  -9.7694  -9.6513  -9.5459  -6.9983  -6.9121  -6.8378  -5.7322
    -5.6521  -5.5863  -4.3642  -4.2882  -4.2750  -4.2244  -4.2106  -4.1581
    -3.4391  -3.1894  -3.1347  -3.0905  -2.9186  -1.9196  -1.7590  -1.3625
    -1.1135  -1.0888  -1.0718  -1.0556  -1.0489  -1.0239  -1.0203  -0.7654
    -0.4347  -0.0391   0.1878   0.2178   0.2440   0.2690   0.6049   0.6605
     1.3406   2.0192   2.0874   2.6343   3.1915   6.3725   6.5937   6.9232
     7.8515   8.1678   8.4970   8.8197   9.4484   9.8378  10.0364  10.2520

          k = 0.0726-0.3905-0.1093 (  8021 PWs)   bands (ev):

   -14.0624 -13.9036 -13.7540 -12.5860 -12.4403 -12.3053 -11.1474 -11.0143
   -10.8933  -9.7694  -9.6512  -9.5459  -6.9983  -6.9121  -6.8378  -5.7322
    -5.6520  -5.5863  -4.3643  -4.2881  -4.2749  -4.2245  -4.2107  -4.1581
    -3.4948  -3.1894  -3.1353  -3.0904  -2.6625  -2.2982  -1.7749  -1.1648
    -1.1131  -1.0887  -1.0680  -1.0517  -1.0482  -1.0214  -1.0193  -0.6993
    -0.3975  -0.0811   0.1387   0.1878   0.2179   0.2442   0.5909   0.7334
     1.3331   2.0205   2.0799   2.6445   3.1875   6.3665   6.6020   6.9202
     7.8518   8.1590   8.5049   8.7643   9.4449   9.8608  10.1414  10.2388

          k = 0.0730-0.2022 0.0610 (  8031 PWs)   bands (ev):

   -14.6440 -14.4797 -14.3247 -11.2233 -11.0902 -10.9686 -10.7539 -10.6246
   -10.5076  -9.4438  -9.3437  -9.2572  -8.2031  -8.1203  -8.0436  -6.9755
    -6.8791  -6.7969  -6.5307  -6.4374  -6.3565  -4.0491  -3.5620  -2.8796
    -2.8256  -2.7832  -2.5136  -2.1341  -2.0891  -2.0533  -1.9418  -1.6484
    -1.6090  -1.5773  -0.8416  -0.6349  -0.1946   0.1220   0.5218   0.6390
     0.6624   0.6887   0.9606   1.0877   1.1073   1.1284   1.2019   1.6050
     1.8405   2.1629   2.2435   2.5133   2.8991   6.1089   6.4229   6.6290
     6.9923   7.4442   7.5246   7.8856   7.9338   8.4388   8.9619   9.5881

          k = 0.0723-0.2210-0.0955 (  8025 PWs)   bands (ev):

   -14.6440 -14.4799 -14.3246 -11.2233 -11.0902 -10.9686 -10.7540 -10.6245
   -10.5076  -9.4438  -9.3436  -9.2572  -8.2031  -8.1203  -8.0435  -6.9754
    -6.8792  -6.7969  -6.5307  -6.4373  -6.3565  -4.1020  -3.3664  -2.8797
    -2.8300  -2.8218  -2.7825  -2.1341  -2.0891  -2.0533  -1.7137  -1.6484
    -1.6091  -1.5773  -0.8758  -0.6458  -0.1973   0.1112   0.5138   0.6390
     0.6624   0.6889   0.9625   1.0877   1.1073   1.1285   1.2058   1.6070
     1.8406   2.1605   2.2408   2.5160   2.8989   6.1300   6.3867   6.6431
     6.9970   7.4238   7.5130   7.9000   7.9513   8.4360   8.9053   9.4210

          k = 0.0726-0.0327 0.0748 (  8038 PWs)   bands (ev):

   -14.8944 -14.7279 -14.5702 -10.0733  -9.9526  -9.8456  -9.6607  -9.6599
    -9.5592  -9.5563  -9.4710  -9.4683  -8.4172  -8.4146  -8.3317  -8.3276
    -8.2508  -8.2491  -8.0394  -7.9381  -7.8506  -4.3481  -3.7839  -2.9198
    -2.1095  -1.8971  -1.8968  -1.8569  -1.8566  -1.8250  -1.8239  -1.7300
    -1.6920  -1.6619  -0.6661  -0.3501   0.0632   0.1974   1.5072   1.5343
     1.5488   1.5768   1.6069   1.6270   1.6414   1.8586   1.8697   2.0196
     2.2136   2.2271   2.5249   2.5795   2.6024   6.1379   6.1649   6.2586
     6.4919   6.5060   6.7412   6.7980   6.8094   7.1442   8.9061   9.1808

          k = 0.0719-0.0516-0.0817 (  8031 PWs)   bands (ev):

   -14.8943 -14.7279 -14.5702 -10.0734  -9.9525  -9.8456  -9.6606  -9.6598
    -9.5592  -9.5564  -9.4710  -9.4683  -8.4173  -8.4147  -8.3316  -8.3276
    -8.2508  -8.2491  -8.0393  -7.9382  -7.8506  -4.3601  -3.7424  -2.9826
    -2.0665  -1.8971  -1.8968  -1.8570  -1.8566  -1.8250  -1.8239  -1.7300
    -1.6920  -1.6619  -0.6749  -0.3494   0.0630   0.1951   1.5079   1.5343
     1.5489   1.5769   1.6070   1.6270   1.6414   1.8649   1.8707   2.0196
     2.2101   2.2177   2.5257   2.5777   2.6086   6.1259   6.1556   6.2663
     6.5164   6.5400   6.7220   6.7826   6.7885   7.1537   8.9392   9.1613

          k = 0.2163 0.2219 0.0954 (  8019 PWs)   bands (ev):

   -14.3943 -14.2325 -14.0797 -11.9398 -11.7998 -11.6711 -10.9894 -10.8583
   -10.7391  -9.6301  -9.5142  -9.4122  -7.6374  -7.5427  -7.4617  -6.3613
    -6.2721  -6.1952  -5.4633  -5.3786  -5.3063  -3.8227  -3.5660  -3.5064
    -3.4569  -3.0722  -2.6193  -2.5766  -2.5650  -2.5259  -1.4383  -1.4050
    -1.3680  -1.3494  -1.3342  -0.6778  -0.5374  -0.1627  -0.1273  -0.0992
    -0.0130   0.1015   0.5182   0.6549   0.6808   0.7047   0.7836   1.2205
     1.4821   2.0923   2.1079   2.5973   3.1101   6.1866   6.4903   6.8082
     7.4517   7.8259   8.2382   8.5527   8.7697   9.0489   9.4944   9.6072

          k = 0.2156 0.2031-0.0610 (  8018 PWs)   bands (ev):

   -14.3944 -14.2324 -14.0798 -11.9398 -11.7999 -11.6710 -10.9894 -10.8583
   -10.7391  -9.6302  -9.5141  -9.4122  -7.6374  -7.5428  -7.4617  -6.3613
    -6.2721  -6.1952  -5.4633  -5.3786  -5.3063  -3.7707  -3.5660  -3.5059
    -3.4570  -3.2770  -2.6193  -2.5674  -2.5266  -2.2276  -1.7523  -1.4050
    -1.3662  -1.3346  -1.2953  -0.6449  -0.3824  -0.2178  -0.1618  -0.1243
    -0.0960   0.0954   0.5931   0.6550   0.6808   0.7058   0.8172   1.2093
     1.4649   2.0909   2.1084   2.6023   3.1080   6.1915   6.4807   6.8122
     7.4635   7.8063   8.2490   8.5885   8.7777   9.0953   9.4660   9.6077

          k = 0.2160 0.3913 0.1092 (  8014 PWs)   bands (ev):

   -13.8146 -13.6580 -13.5109 -12.3445 -12.3430 -12.2017 -12.1983 -12.0686
   -12.0662  -8.5235  -8.4467  -8.3874  -7.7397  -7.6834  -7.6610  -5.1756
    -5.1093  -5.0519  -4.2846  -4.2836  -4.2167  -4.2141  -4.1601  -4.1576
    -3.2247  -2.3756  -2.1600  -2.0153  -2.0143  -1.9690  -1.9682  -1.9335
    -1.9315  -1.7432  -1.4586  -1.4206  -1.3965  -1.2734  -0.9657  -0.7908
    -0.7277  -0.4644  -0.4375  -0.4141  -0.2767   0.0306   0.2300   0.4143
     0.8431   0.9920   3.2237   3.5749   3.9830   5.6174   5.6938   5.7729
     8.5252   9.6234   9.6614   9.9218   9.9617   9.9884  10.2658  10.2959

          k = 0.2152 0.3725-0.0472 (  8026 PWs)   bands (ev):

   -13.8147 -13.6579 -13.5110 -12.3445 -12.3430 -12.2019 -12.1984 -12.0685
   -12.0662  -8.5236  -8.4467  -8.3875  -7.7397  -7.6833  -7.6611  -5.1756
    -5.1092  -5.0519  -4.2846  -4.2835  -4.2166  -4.2142  -4.1601  -4.1575
    -3.1718  -2.6475  -2.0197  -2.0144  -1.9757  -1.9685  -1.9381  -1.9317
    -1.9170  -1.5339  -1.4589  -1.4205  -1.3983  -1.3491  -1.1149  -0.7520
    -0.6860  -0.4812  -0.4642  -0.4367  -0.4124  -0.0116   0.3558   0.5284
     0.8464   0.9240   3.2239   3.5728   3.9858   5.6131   5.6937   5.7762
     8.5690   9.6490   9.6595   9.8726   9.9457  10.0357  10.2293  10.2849

          k = 0.2156 0.5608 0.1230 (  7996 PWs)   bands (ev):

   -13.4029 -13.2497 -13.1068 -12.9122 -12.7637 -12.6254 -12.4248 -12.2803
   -12.1469  -8.3917  -8.3009  -8.2236  -7.4217  -7.3696  -7.3214  -5.7768
    -5.7285  -5.6878  -3.8085  -3.7609  -3.7230  -3.2597  -3.2007  -3.1552
    -2.8939  -2.3732  -2.3380  -2.3068  -2.3008  -2.2854  -2.2567  -2.2222
    -2.0103  -1.6066  -1.5845  -1.5423  -1.5109  -1.3450  -1.1336  -1.0582
    -1.0295  -1.0120  -1.0023  -0.8206  -0.4998  -0.1859   0.1579   0.3864
     0.5726   0.8466   3.5716   3.9331   4.3306   5.1661   5.4202   5.6212
     8.6490   9.4128   9.9610  10.1905  10.4276  10.6727  10.7592  11.0025

          k = 0.2149 0.5420-0.0334 (  8000 PWs)   bands (ev):

   -13.4028 -13.2498 -13.1068 -12.9122 -12.7636 -12.6255 -12.4248 -12.2803
   -12.1469  -8.3917  -8.3009  -8.2236  -7.4217  -7.3695  -7.3214  -5.7768
    -5.7286  -5.6878  -3.8085  -3.7608  -3.7230  -3.2598  -3.2006  -3.1552
    -2.9200  -2.3731  -2.3372  -2.3067  -2.2963  -2.2579  -2.2241  -2.2029
    -1.9399  -1.6089  -1.5839  -1.5556  -1.5417  -1.5106  -1.3366  -1.0580
    -1.0296  -1.0030  -0.9111  -0.5663  -0.3219  -0.2943  -0.0173   0.4194
     0.5419   0.8794   3.5708   3.9337   4.3309   5.1653   5.4201   5.6222
     8.6539   9.3856   9.9618  10.1913  10.4288  10.6878  10.7619  11.0313

          k = 0.2175-0.2865 0.0540 (  8021 PWs)   bands (ev):

   -14.1453 -13.9854 -13.8353 -12.1814 -12.0391 -11.9078 -11.7017 -11.5641
   -11.4376  -9.0161  -8.9206  -8.8385  -7.8050  -7.7270  -7.6563  -5.3295
    -5.2483  -5.1802  -4.8702  -4.7908  -4.7257  -4.3834  -4.3156  -4.2609
    -3.5292  -3.0032  -2.3615  -2.3109  -2.2719  -1.9236  -1.6402  -1.6066
    -1.5917  -1.5623  -1.3814  -1.0211  -0.7514  -0.7204  -0.6911  -0.5821
    -0.3617  -0.0635   0.1458   0.1696   0.1877   0.2053   0.4474   0.8558
     1.0187   1.4811   2.7507   3.1046   3.4871   5.9195   6.0107   6.2966
     8.4957   8.8090   8.9656   9.1586   9.2228   9.3311   9.5813   9.9484

          k = 0.2167-0.3053-0.1024 (  8035 PWs)   bands (ev):

   -14.1452 -13.9856 -13.8352 -12.1814 -12.0389 -11.9079 -11.7017 -11.5641
   -11.4377  -9.0161  -8.9206  -8.8385  -7.8050  -7.7270  -7.6564  -5.3295
    -5.2482  -5.1802  -4.8703  -4.7907  -4.7257  -4.3833  -4.3156  -4.2608
    -3.5823  -2.7700  -2.3616  -2.3395  -2.3101  -2.2713  -1.6392  -1.5968
    -1.5627  -1.4850  -1.1291  -1.0760  -0.7514  -0.7214  -0.7109  -0.6865
    -0.2702  -0.0425   0.1459   0.1680   0.1832   0.2060   0.3940   0.8042
     1.0499   1.4899   2.7505   3.1028   3.4888   5.9115   6.0262   6.2889
     8.4737   8.8321   8.9164   9.1585   9.2147   9.3291   9.5690   9.9608

          k = 0.2171-0.1170 0.0678 (  8021 PWs)   bands (ev):

   -14.5606 -14.3971 -14.2429 -11.6191 -11.4817 -11.3558 -10.2195 -10.2194
   -10.0977 -10.0966  -9.9875  -9.9867  -7.3499  -7.3487  -7.2538  -7.2520
    -7.1689  -7.1681  -6.0212  -5.9307  -5.8546  -3.9727  -3.4337  -2.7935
    -2.7929  -2.7398  -2.7394  -2.6982  -2.6974  -2.4864  -1.8014  -1.4016
    -1.3645  -1.3350  -1.0712  -0.5791  -0.1002  -0.0440   0.0861   0.3223
     0.3561   0.3856   0.8729   0.9723   0.9989   1.0199   1.4940   1.5294
     1.5375   2.0922   2.1127   2.6264   2.6400   6.5796   6.5937   6.8941
     6.9162   7.3577   7.3631   8.0430   8.4950   8.9253   9.0064   9.3188

          k = 0.2164-0.1358-0.0886 (  8040 PWs)   bands (ev):

   -14.5606 -14.3972 -14.2428 -11.6191 -11.4815 -11.3559 -10.2195 -10.2194
   -10.0977 -10.0967  -9.9875  -9.9867  -7.3500  -7.3488  -7.2537  -7.2519
    -7.1689  -7.1681  -6.0212  -5.9307  -5.8546  -4.0047  -3.3152  -2.7935
    -2.7929  -2.7400  -2.7397  -2.7001  -2.6974  -2.6715  -1.6696  -1.4016
    -1.3645  -1.3350  -1.0493  -0.6291  -0.2001  -0.0511   0.2472   0.3224
     0.3562   0.3859   0.8031   0.9723   0.9989   1.0199   1.5066   1.5265
     1.5430   2.0841   2.1044   2.6345   2.6437   6.5624   6.5785   6.9313
     6.9384   7.3398   7.3542   8.0446   8.4899   8.8489   9.0307   9.3184

          k = 0.2167 0.0524 0.0816 (  8031 PWs)   bands (ev):

   -14.6440 -14.4798 -14.3246 -11.2232 -11.0900 -10.9684 -10.7540 -10.6247
   -10.5077  -9.4438  -9.3439  -9.2591  -8.2023  -8.1195  -8.0433  -6.9754
    -6.8790  -6.7968  -6.5307  -6.4374  -6.3566  -4.0814  -3.4469  -2.8795
    -2.8256  -2.7836  -2.7161  -2.1342  -2.0892  -2.0533  -1.7846  -1.6487
    -1.6091  -1.5771  -0.9018  -0.6193  -0.2078   0.1387   0.5300   0.6387
     0.6625   0.6873   0.9604   1.0881   1.1077   1.1297   1.1962   1.6052
     1.8481   2.1691   2.2452   2.5141   2.8785   6.1395   6.4215   6.6258
     6.9901   7.4391   7.5144   7.8856   7.9165   8.4441   8.9260   9.3244

          k = 0.2160 0.0336-0.0748 (  8021 PWs)   bands (ev):

   -14.6440 -14.4798 -14.3246 -11.2232 -11.0901 -10.9683 -10.7541 -10.6245
   -10.5077  -9.4438  -9.3438  -9.2591  -8.2023  -8.1196  -8.0433  -6.9753
    -6.8791  -6.7967  -6.5307  -6.4374  -6.3566  -4.0674  -3.4984  -2.8795
    -2.8256  -2.7834  -2.6310  -2.1342  -2.0892  -2.0533  -1.8553  -1.6487
    -1.6091  -1.5771  -0.8895  -0.6096  -0.1876   0.1377   0.4927   0.6387
     0.6623   0.6867   0.9604   1.0881   1.1077   1.1301   1.2196   1.6081
     1.8440   2.1664   2.2436   2.5181   2.8774   6.1467   6.3976   6.6421
     6.9960   7.4271   7.4996   7.8968   7.9488   8.4145   8.9638   9.3400

          k = 0.3604 0.3070 0.1023 (  8026 PWs)   bands (ev):

   -13.6495 -13.4944 -13.3489 -13.1566 -13.0056 -12.8651 -11.2271 -11.0935
   -10.9718  -9.8426  -9.7226  -9.6155  -6.4289  -6.3659  -6.3125  -5.2030
    -5.1478  -5.1005  -4.8502  -4.8015  -4.7577  -3.6697  -3.6269  -3.5887
    -3.2548  -3.1889  -3.1349  -3.0752  -2.4676  -2.1966  -2.1572  -2.1016
    -2.0584  -1.8867  -1.6126  -0.8952  -0.7528  -0.7077  -0.6719  -0.6420
    -0.5816  -0.3315  -0.2769  -0.2429  -0.2142   0.0862   0.2918   0.5905
     1.2878   1.9700   2.0455   2.6416   3.2609   6.4537   6.7146   7.0180
     8.1050   8.3573   8.4786   8.6537   9.7217  10.5313  11.0683  11.1046

          k = 0.3597 0.2882-0.0541 (  8024 PWs)   bands (ev):

   -13.6495 -13.4942 -13.3490 -13.1565 -13.0058 -12.8651 -11.2271 -11.0936
   -10.9718  -9.8426  -9.7226  -9.6155  -6.4289  -6.3660  -6.3125  -5.2030
    -5.1478  -5.1005  -4.8502  -4.8015  -4.7577  -3.6696  -3.6269  -3.5887
    -3.2547  -3.1888  -3.1349  -3.0338  -2.5735  -2.2881  -2.1591  -2.1029
    -2.0578  -1.6689  -1.3826  -1.1764  -0.9561  -0.7078  -0.6719  -0.6419
    -0.5549  -0.2769  -0.2431  -0.2144  -0.0915   0.0602   0.2557   0.5805
     1.2884   1.9730   2.0418   2.6465   3.2581   6.4536   6.7168   7.0159
     8.1061   8.3581   8.4972   8.6547   9.7126  10.5523  10.8429  11.0748

          k = 0.3601 0.4765 0.1161 (  8009 PWs)   bands (ev):

   -13.4028 -13.2497 -13.1067 -12.9121 -12.7637 -12.6254 -12.4249 -12.2803
   -12.1470  -8.3918  -8.3012  -8.2253  -7.4217  -7.3698  -7.3181  -5.7774
    -5.7294  -5.6874  -3.8084  -3.7610  -3.7207  -3.2597  -3.2008  -3.1552
    -2.8638  -2.3751  -2.3460  -2.3311  -2.3064  -2.2947  -2.2568  -2.2251
    -1.9953  -1.5851  -1.5540  -1.5414  -1.5105  -1.3322  -1.3153  -1.0578
    -1.0287  -1.0029  -0.9969  -0.8082  -0.4098  -0.0606   0.1464   0.2704
     0.5325   0.8930   3.5757   3.9349   4.3162   5.1588   5.4209   5.6446
     8.5110   9.5486   9.9546  10.1934  10.4462  10.7320  10.7812  11.0446

          k = 0.3593 0.4577-0.0404 (  7999 PWs)   bands (ev):

   -13.4027 -13.2497 -13.1067 -12.9122 -12.7635 -12.6255 -12.4248 -12.2805
   -12.1469  -8.3918  -8.3012  -8.2252  -7.4217  -7.3698  -7.3181  -5.7773
    -5.7295  -5.6873  -3.8084  -3.7610  -3.7207  -3.2597  -3.2007  -3.1554
    -2.8711  -2.3750  -2.3405  -2.3085  -2.3007  -2.2834  -2.2572  -2.2245
    -2.0043  -1.6109  -1.5845  -1.5424  -1.5109  -1.4922  -1.2492  -1.0574
    -1.0285  -1.0021  -0.8387  -0.5849  -0.4946  -0.3091  -0.0151   0.5303
     0.6086   0.7917   3.5756   3.9355   4.3156   5.1586   5.4222   5.6438
     8.5210   9.5484   9.9559  10.1958  10.4439  10.7425  10.7810  11.0473

          k = 0.3597 0.6460 0.1299 (  8011 PWs)   bands (ev):

   -13.3213 -13.3197 -13.1698 -13.1662 -13.0271 -13.0246 -11.8626 -11.7236
   -11.5956  -9.1147  -9.0051  -8.9082  -6.8617  -6.7935  -6.7467  -5.4709
    -5.4171  -5.3879  -4.4374  -4.3831  -4.3479  -3.1122  -3.0661  -3.0428
    -2.9942  -2.7111  -2.7105  -2.6523  -2.6517  -2.6080  -2.6054  -2.2995
    -2.0597  -1.8621  -1.3697  -1.1179  -0.9447  -0.8525  -0.8517  -0.8164
    -0.8146  -0.7874  -0.7845  -0.6038  -0.2731  -0.1479   0.0649   0.4284
     0.7647   1.3525   2.8413   3.3485   3.8807   5.6392   6.0065   6.3549
     8.8136   8.9818   9.0729   9.3046   9.6059  10.6701  11.1544  11.5609

          k = 0.3590 0.6271-0.0266 (  8014 PWs)   bands (ev):

   -13.3213 -13.3197 -13.1699 -13.1662 -13.0271 -13.0246 -11.8627 -11.7236
   -11.5957  -9.1147  -9.0051  -8.9082  -6.8617  -6.7935  -6.7467  -5.4709
    -5.4171  -5.3879  -4.4374  -4.3831  -4.3479  -3.1116  -3.0687  -3.0405
    -2.9996  -2.7111  -2.7099  -2.6529  -2.6517  -2.6079  -2.6055  -2.3410
    -1.9672  -1.7840  -1.5034  -1.2137  -0.9337  -0.8525  -0.8517  -0.8165
    -0.8146  -0.7873  -0.7846  -0.5296  -0.2315  -0.1791   0.1628   0.3998
     0.6887   1.3685   2.8371   3.3566   3.8766   5.6400   6.0047   6.3562
     8.8145   8.9902   9.0579   9.3034   9.6061  10.6511  11.0811  11.5665

          k = 0.3616-0.2013 0.0609 (  8024 PWs)   bands (ev):

   -13.8968 -13.7392 -13.5915 -12.9110 -12.7622 -12.6239 -10.5262 -10.5260
   -10.4001 -10.3994 -10.2856 -10.2850  -6.0922  -6.0916  -6.0128  -6.0119
    -5.9480  -5.9474  -4.0520  -4.0507  -3.9906  -3.9898  -3.9433  -3.9430
    -3.8171  -3.7443  -3.6854  -3.3206  -2.7153  -2.0737  -1.7187  -1.6119
    -1.5585  -1.5175  -1.3834  -1.1577  -0.9194  -0.7751  -0.7399  -0.7117
    -0.3527  -0.1516   0.0723   0.1042   0.1298   0.1520   0.3397   1.2917
     1.3161   1.9424   1.9851   2.6015   2.6223   7.1113   7.1161   7.4408
     7.4590   7.8147   7.8240   8.7859   9.3033  10.0380  10.4856  10.8548

          k = 0.3608-0.2201-0.0955 (  8023 PWs)   bands (ev):

   -13.8968 -13.7393 -13.5915 -12.9110 -12.7620 -12.6240 -10.5262 -10.5260
   -10.4001 -10.3994 -10.2856 -10.2850  -6.0922  -6.0916  -6.0128  -6.0119
    -5.9480  -5.9474  -4.0520  -4.0508  -3.9906  -3.9895  -3.9435  -3.9430
    -3.8171  -3.7442  -3.6856  -3.3545  -2.5300  -2.2033  -1.8527  -1.6121
    -1.5595  -1.5391  -1.5155  -0.8935  -0.7751  -0.7399  -0.7117  -0.6179
    -0.5339  -0.1526  -0.0983   0.0723   0.1042   0.1298   0.4739   1.2878
     1.3189   1.9432   1.9794   2.6033   2.6257   7.1060   7.1140   7.4484
     7.4596   7.8120   7.8251   8.7600   9.3047  10.0962  10.5006  10.8297

          k = 0.3612-0.0319 0.0747 (  8028 PWs)   bands (ev):

   -14.1452 -13.9855 -13.8353 -12.1814 -12.0391 -11.9079 -11.7016 -11.5639
   -11.4376  -9.0160  -8.9206  -8.8402  -7.8042  -7.7263  -7.6563  -5.3294
    -5.2483  -5.1802  -4.8701  -4.7906  -4.7254  -4.3833  -4.3157  -4.2609
    -3.5460  -2.9199  -2.3618  -2.3111  -2.2719  -2.1268  -1.6397  -1.5979
    -1.5629  -1.5385  -1.3043  -0.9957  -0.7518  -0.7203  -0.6929  -0.5510
    -0.4426  -0.0968   0.1463   0.1702   0.1906   0.2398   0.5402   0.8018
     0.9916   1.4928   2.7549   3.1059   3.4676   5.9294   6.0289   6.2964
     8.4818   8.6812   8.9180   9.1714   9.2777   9.3383   9.5816   9.9627

          k = 0.3605-0.0507-0.0817 (  8024 PWs)   bands (ev):

   -14.1452 -13.9855 -13.8353 -12.1815 -12.0390 -11.9079 -11.7016 -11.5640
   -11.4375  -9.0159  -8.9206  -8.8402  -7.8043  -7.7262  -7.6563  -5.3294
    -5.2483  -5.1802  -4.8701  -4.7907  -4.7253  -4.3834  -4.3156  -4.2610
    -3.5539  -2.8881  -2.3617  -2.3112  -2.2721  -2.1716  -1.6396  -1.5973
    -1.5644  -1.5531  -1.2305  -1.0262  -0.7517  -0.7204  -0.7180  -0.6891
    -0.2064  -0.0220   0.1464   0.1705   0.1912   0.2367   0.2964   0.8107
     1.0878   1.4792   2.7580   3.1020   3.4680   5.9241   6.0369   6.2943
     8.4513   8.7566   8.8831   9.1649   9.2269   9.3493   9.5775   9.9602

          k = 0.3608 0.1376 0.0885 (  8025 PWs)   bands (ev):

   -14.0624 -13.9035 -13.7540 -12.5860 -12.4401 -12.3052 -11.1475 -11.0145
   -10.8934  -9.7696  -9.6516  -9.5464  -6.9981  -6.9117  -6.8369  -5.7321
    -5.6518  -5.5855  -4.3642  -4.2882  -4.2752  -4.2246  -4.2111  -4.1582
    -3.4667  -3.1898  -3.1357  -3.0905  -2.7349  -2.2473  -1.7604  -1.2300
    -1.1129  -1.0889  -1.0766  -1.0651  -1.0509  -1.0244  -1.0202  -0.7081
    -0.2490  -0.1233   0.1052   0.1880   0.2182   0.2454   0.6120   0.7087
     1.3493   2.0241   2.0841   2.6386   3.1839   6.3656   6.6068   6.9356
     7.8452   8.1641   8.5134   8.5836   9.5655   9.8538  10.2261  10.4228

          k = 0.3601 0.1188-0.0679 (  8024 PWs)   bands (ev):

   -14.0624 -13.9034 -13.7541 -12.5859 -12.4403 -12.3051 -11.1475 -11.0144
   -10.8935  -9.7696  -9.6515  -9.5464  -6.9980  -6.9117  -6.8368  -5.7320
    -5.6519  -5.5854  -4.3641  -4.2882  -4.2752  -4.2246  -4.2110  -4.1583
    -3.4346  -3.1898  -3.1353  -3.0907  -2.8791  -1.9832  -1.8676  -1.2463
    -1.1134  -1.0889  -1.0697  -1.0515  -1.0352  -1.0203  -0.9664  -0.8178
    -0.5120   0.0209   0.1880   0.2182   0.2452   0.2952   0.5926   0.6601
     1.3349   2.0214   2.0856   2.6411   3.1819   6.3710   6.5988   6.9384
     7.8479   8.1639   8.5042   8.6130   9.5676   9.8523  10.2087  10.2916

     the Fermi energy is     4.7432 ev

!    total energy              =    -298.60311259 Ry
     estimated scf accuracy    <       0.00000072 Ry
     smearing contrib. (-TS)   =      -0.00000010 Ry
     internal energy E=F+TS    =    -298.60311250 Ry

     The total energy is F=E-TS. E is the sum of the following terms:
     one-electron contribution =    -427.05695905 Ry
     hartree contribution      =     258.10722487 Ry
     xc contribution           =    -106.28380914 Ry
     ewald contribution        =     -23.36956918 Ry

     convergence has been achieved in  40 iterations

     Forces acting on atoms (cartesian axes, Ry/au):

     atom    1 type  1   force =     0.00015355    0.00012753    0.00032993
     atom    2 type  1   force =    -0.00056189   -0.00028877   -0.00080104
     atom    3 type  1   force =    -0.00030745    0.00033199    0.00022316
     atom    4 type  1   force =     0.00010176   -0.00005512    0.00041520
     atom    5 type  1   force =    -0.00032959    0.00034327   -0.00096551
     atom    6 type  1   force =    -0.00011148    0.00028805   -0.00035374
     atom    7 type  1   force =     0.00019484    0.00008967    0.00034020
     atom    8 type  1   force =    -0.00026124    0.00056983    0.00072368
     atom    9 type  1   force =    -0.00032978   -0.00003700   -0.00019850
     atom   10 type  1   force =     0.00009254   -0.00008813    0.00044135
     atom   11 type  1   force =     0.00002102   -0.00041462    0.00090135
     atom   12 type  1   force =    -0.00018093   -0.00019137    0.00053357
     atom   13 type  1   force =     0.00017657    0.00010819    0.00041256
     atom   14 type  1   force =     0.00048207   -0.00023490   -0.00096071
     atom   15 type  1   force =     0.00018935   -0.00013534   -0.00048923
     atom   16 type  1   force =     0.00016993   -0.00008508    0.00050298
     atom   17 type  1   force =     0.00060743    0.00039948   -0.00072185
     atom   18 type  1   force =    -0.00022638   -0.00003030   -0.00097890
     atom   19 type  1   force =     0.00009681    0.00007858    0.00029536
     atom   20 type  1   force =     0.00010820    0.00032768    0.00072068
     atom   21 type  1   force =     0.00026663   -0.00012566   -0.00082639
     atom   22 type  1   force =     0.00009041   -0.00003920    0.00035850
     atom   23 type  1   force =     0.00017890   -0.00026602    0.00012576
     atom   24 type  1   force =    -0.00022234    0.00003490   -0.00030335
     atom   25 type  2   force =     0.00004218    0.00020083   -0.00066819
     atom   26 type  2   force =    -0.00054083   -0.00049224   -0.00079449
     atom   27 type  2   force =     0.00057164    0.00045361    0.00068215
     atom   28 type  2   force =    -0.00083430   -0.00027227    0.00008855
     atom   29 type  2   force =     0.00008764   -0.00070564    0.00017649
     atom   30 type  2   force =    -0.00006193    0.00088525   -0.00030156
     atom   31 type  2   force =     0.00096425    0.00011644    0.00066999
     atom   32 type  2   force =    -0.00127212    0.00001095    0.00008606
     atom   33 type  2   force =     0.00077828    0.00007388    0.00019616
     atom   34 type  2   force =    -0.00013375   -0.00097849    0.00013977
     The non-local contrib.  to forces
     atom    1 type  1   force =    -0.00040966    0.00046600    0.00050301
     atom    2 type  1   force =     0.00204366    0.00172764    0.00026842
     atom    3 type  1   force =    -0.00332611    0.00199591    0.00183357
     atom    4 type  1   force =     0.00058438   -0.00031928    0.00008495
     atom    5 type  1   force =    -0.00066689    0.00095463    0.00529694
     atom    6 type  1   force =    -0.00187371    0.00045513    0.00016008
     atom    7 type  1   force =    -0.00032397    0.00037686    0.00042059
     atom    8 type  1   force =    -0.00294415    0.00060627    0.00460925
     atom    9 type  1   force =     0.00199220    0.00203041    0.00011730
     atom   10 type  1   force =     0.00046981   -0.00055989   -0.00007482
     atom   11 type  1   force =    -0.00043141   -0.00473361   -0.00347001
     atom   12 type  1   force =     0.00223155   -0.00125005   -0.00063756
     atom   13 type  1   force =    -0.00035623    0.00031697   -0.00034484
     atom   14 type  1   force =     0.00357124   -0.00064683   -0.01228069
     atom   15 type  1   force =    -0.00040805   -0.00309661   -0.00072530
     atom   16 type  1   force =     0.00077848   -0.00036811    0.00001994
     atom   17 type  1   force =     0.00287223    0.00267389   -0.00145017
     atom   18 type  1   force =     0.00026853   -0.00075284    0.00328720
     atom   19 type  1   force =    -0.00052850    0.00042369    0.00047557
     atom   20 type  1   force =    -0.00202723   -0.00189574    0.00256110
     atom   21 type  1   force =     0.00081846    0.00020595    0.00151158
     atom   22 type  1   force =     0.00037764   -0.00028904    0.00042593
     atom   23 type  1   force =    -0.00211028    0.00052474   -0.00713626
     atom   24 type  1   force =    -0.00049202    0.00139116   -0.00043165
     atom   25 type  2   force =     0.03412171    0.05207123   -0.00625418
     atom   26 type  2   force =    -0.03450948   -0.05194888    0.00688705
     atom   27 type  2   force =     0.04292976   -0.04156136    0.01940810
     atom   28 type  2   force =    -0.04272172    0.04158640   -0.01956986
     atom   29 type  2   force =     0.04720025   -0.04030653    0.01014004
     atom   30 type  2   force =    -0.04737438    0.04004489   -0.01034863
     atom   31 type  2   force =     0.05576502    0.02844621    0.00735303
     atom   32 type  2   force =    -0.05574758   -0.02818211   -0.00729207
     atom   33 type  2   force =     0.04027347    0.04523673   -0.01949421
     atom   34 type  2   force =    -0.03975336   -0.04547936    0.01967104
     The ionic contribution  to forces
     atom    1 type  1   force =     0.00126259    0.05441877    0.42531449
     atom    2 type  1   force =     0.06779010    1.18207146    9.48903368
     atom    3 type  1   force =    -0.11057402   -1.01277045   -8.93859096
     atom    4 type  1   force =     0.00679775    0.04693086    0.40808130
     atom    5 type  1   force =     0.02507587    1.15304319    9.57983144
     atom    6 type  1   force =    -0.11315526   -1.10302752   -8.98720941
     atom    7 type  1   force =    -0.00080037    0.05241498    0.42397527
     atom    8 type  1   force =     0.02274890    1.13373615    9.47207442
     atom    9 type  1   force =     0.02851072   -1.06444734   -8.98863011
     atom   10 type  1   force =     0.00131094    0.04419855    0.40427634
     atom   11 type  1   force =     0.06550737    1.05675191    9.34342270
     atom   12 type  1   force =     0.02733667   -1.13734578   -8.92965258
     atom   13 type  1   force =     0.00180307    0.04979216    0.40421846
     atom   14 type  1   force =     0.07877720    1.08855884    9.10756113
     atom   15 type  1   force =    -0.00011950   -1.15421408   -8.93552402
     atom   16 type  1   force =     0.00573119    0.05046437    0.40443898
     atom   17 type  1   force =     0.10367297    1.15163909    9.40484441
     atom   18 type  1   force =    -0.00163147   -1.06147630   -8.84544133
     atom   19 type  1   force =    -0.00123185    0.05088335    0.42583192
     atom   20 type  1   force =     0.00691065    1.10602641    9.46933416
     atom   21 type  1   force =    -0.08079308   -1.06103539   -8.83621972
     atom   22 type  1   force =     0.00202728    0.04867915    0.41473337
     atom   23 type  1   force =    -0.02117089    1.16154331    9.25632903
     atom   24 type  1   force =    -0.07850989   -0.99628692   -8.97090487
     atom   25 type  2   force =    -0.45265902   -0.65490010    0.38232509
     atom   26 type  2   force =     0.45773064    0.70055351    0.21440182
     atom   27 type  2   force =    -0.45525202    0.34234966   -1.58954362
     atom   28 type  2   force =     0.53925781   -0.74135815   -1.42246635
     atom   29 type  2   force =    -0.67843428    0.31665725   -2.08421952
     atom   30 type  2   force =     0.58918728   -0.82699127   -1.90072885
     atom   31 type  2   force =    -0.76209714   -0.48889912   -1.75847322
     atom   32 type  2   force =     0.74425585    0.14480207   -1.80696445
     atom   33 type  2   force =    -0.58520757   -0.48515419    1.57326137
     atom   34 type  2   force =     0.56594151    0.85239158    1.39127964
     The local contribution  to forces
     atom    1 type  1   force =    -0.00072631   -0.05465800   -0.42485861
     atom    2 type  1   force =    -0.07037656   -1.18404747   -9.49015240
     atom    3 type  1   force =     0.11354839    1.01111937    8.93697315
     atom    4 type  1   force =    -0.00724856   -0.04662481   -0.40722891
     atom    5 type  1   force =    -0.02475288   -1.15362795   -9.58597219
     atom    6 type  1   force =     0.11489566    1.10285342    8.98658030
     atom    7 type  1   force =     0.00129681   -0.05260683   -0.42343313
     atom    8 type  1   force =    -0.02007389   -1.13380781   -9.47598869
     atom    9 type  1   force =    -0.03081905    1.06241125    8.98823680
     atom   10 type  1   force =    -0.00165978   -0.04368924   -0.40324463
     atom   11 type  1   force =    -0.06505352   -1.05255589   -9.33933632
     atom   12 type  1   force =    -0.02972611    1.13838431    8.93071460
     atom   13 type  1   force =    -0.00129205   -0.04990777   -0.40286302
     atom   14 type  1   force =    -0.08183923   -1.08822729   -9.09696890
     atom   15 type  1   force =     0.00070028    1.15714338    8.93571752
     atom   16 type  1   force =    -0.00630632   -0.05013945   -0.40343953
     atom   17 type  1   force =    -0.10585845   -1.15387463   -9.40426056
     atom   18 type  1   force =     0.00115355    1.06217392    8.84121421
     atom   19 type  1   force =     0.00182980   -0.05113141   -0.42538375
     atom   20 type  1   force =    -0.00483020   -1.10384302   -9.47125593
     atom   21 type  1   force =     0.08025957    1.06071682    8.83395460
     atom   22 type  1   force =    -0.00228694   -0.04838402   -0.41426134
     atom   23 type  1   force =     0.02341174   -1.16235518   -9.24949087
     atom   24 type  1   force =     0.07879286    0.99491828    8.97093583
     atom   25 type  2   force =     0.41857993    0.60302145   -0.37681337
     atom   26 type  2   force =    -0.42375995   -0.64910239   -0.22215834
     atom   27 type  2   force =     0.41289004   -0.30034841    1.57073022
     atom   28 type  2   force =    -0.49737366    0.69949390    1.44202588
     atom   29 type  2   force =     0.63133537   -0.27708220    2.07415611
     atom   30 type  2   force =    -0.54188466    0.78783556    1.91066700
     atom   31 type  2   force =     0.70731153    0.46055684    1.75169476
     atom   32 type  2   force =    -0.68979907   -0.11662556    1.81423994
     atom   33 type  2   force =     0.54571997    0.43998985   -1.55364619
     atom   34 type  2   force =    -0.52632917   -0.80790861   -1.41088484
     The core correction contribution to forces
     atom    1 type  1   force =     0.00003142   -0.00003145   -0.00006857
     atom    2 type  1   force =    -0.00003927   -0.00007122   -0.00014439
     atom    3 type  1   force =     0.00008089   -0.00004000   -0.00002323
     atom    4 type  1   force =    -0.00002949    0.00002393    0.00003880
     atom    5 type  1   force =     0.00001835   -0.00004882   -0.00032398
     atom    6 type  1   force =     0.00005117    0.00001957    0.00008667
     atom    7 type  1   force =     0.00002658   -0.00002762   -0.00006279
     atom    8 type  1   force =     0.00002380    0.00001395   -0.00016289
     atom    9 type  1   force =    -0.00004734   -0.00004808    0.00004984
     atom   10 type  1   force =    -0.00002916    0.00003140    0.00004601
     atom   11 type  1   force =    -0.00000310    0.00010891    0.00010065
     atom   12 type  1   force =    -0.00005582    0.00003771    0.00007182
     atom   13 type  1   force =     0.00002641   -0.00002616   -0.00003342
     atom   14 type  1   force =    -0.00003703    0.00005537    0.00056204
     atom   15 type  1   force =     0.00001058    0.00006583    0.00000688
     atom   16 type  1   force =    -0.00003441    0.00002808    0.00004477
     atom   17 type  1   force =    -0.00008380   -0.00006702   -0.00004566
     atom   18 type  1   force =    -0.00002536    0.00002018   -0.00008864
     atom   19 type  1   force =     0.00003275   -0.00003069   -0.00006839
     atom   20 type  1   force =     0.00006095    0.00003227   -0.00011334
     atom   21 type  1   force =    -0.00000936   -0.00002252   -0.00011827
     atom   22 type  1   force =    -0.00002398    0.00002264    0.00001982
     atom   23 type  1   force =     0.00005474   -0.00000896    0.00024517
     atom   24 type  1   force =    -0.00000829   -0.00002417    0.00007238
     atom   25 type  2   force =     0.00000000    0.00000000    0.00000000
     atom   26 type  2   force =     0.00000000    0.00000000    0.00000000
     atom   27 type  2   force =     0.00000000    0.00000000    0.00000000
     atom   28 type  2   force =     0.00000000    0.00000000    0.00000000
     atom   29 type  2   force =     0.00000000    0.00000000    0.00000000
     atom   30 type  2   force =     0.00000000    0.00000000    0.00000000
     atom   31 type  2   force =     0.00000000    0.00000000    0.00000000
     atom   32 type  2   force =     0.00000000    0.00000000    0.00000000
     atom   33 type  2   force =     0.00000000    0.00000000    0.00000000
     atom   34 type  2   force =     0.00000000    0.00000000    0.00000000
     The Hubbard contrib.    to forces
     atom    1 type  1   force =     0.00000000    0.00000000    0.00000000
     atom    2 type  1   force =     0.00000000    0.00000000    0.00000000
     atom    3 type  1   force =     0.00000000    0.00000000    0.00000000
     atom    4 type  1   force =     0.00000000    0.00000000    0.00000000
     atom    5 type  1   force =     0.00000000    0.00000000    0.00000000
     atom    6 type  1   force =     0.00000000    0.00000000    0.00000000
     atom    7 type  1   force =     0.00000000    0.00000000    0.00000000
     atom    8 type  1   force =     0.00000000    0.00000000    0.00000000
     atom    9 type  1   force =     0.00000000    0.00000000    0.00000000
     atom   10 type  1   force =     0.00000000    0.00000000    0.00000000
     atom   11 type  1   force =     0.00000000    0.00000000    0.00000000
     atom   12 type  1   force =     0.00000000    0.00000000    0.00000000
     atom   13 type  1   force =     0.00000000    0.00000000    0.00000000
     atom   14 type  1   force =     0.00000000    0.00000000    0.00000000
     atom   15 type  1   force =     0.00000000    0.00000000    0.00000000
     atom   16 type  1   force =     0.00000000    0.00000000    0.00000000
     atom   17 type  1   force =     0.00000000    0.00000000    0.00000000
     atom   18 type  1   force =     0.00000000    0.00000000    0.00000000
     atom   19 type  1   force =     0.00000000    0.00000000    0.00000000
     atom   20 type  1   force =     0.00000000    0.00000000    0.00000000
     atom   21 type  1   force =     0.00000000    0.00000000    0.00000000
     atom   22 type  1   force =     0.00000000    0.00000000    0.00000000
     atom   23 type  1   force =     0.00000000    0.00000000    0.00000000
     atom   24 type  1   force =     0.00000000    0.00000000    0.00000000
     atom   25 type  2   force =     0.00000000    0.00000000    0.00000000
     atom   26 type  2   force =     0.00000000    0.00000000    0.00000000
     atom   27 type  2   force =     0.00000000    0.00000000    0.00000000
     atom   28 type  2   force =     0.00000000    0.00000000    0.00000000
     atom   29 type  2   force =     0.00000000    0.00000000    0.00000000
     atom   30 type  2   force =     0.00000000    0.00000000    0.00000000
     atom   31 type  2   force =     0.00000000    0.00000000    0.00000000
     atom   32 type  2   force =     0.00000000    0.00000000    0.00000000
     atom   33 type  2   force =     0.00000000    0.00000000    0.00000000
     atom   34 type  2   force =     0.00000000    0.00000000    0.00000000
     The SCF correction term to forces
     atom    1 type  1   force =    -0.00000430   -0.00006815   -0.00056518
     atom    2 type  1   force =     0.00002036    0.00003045    0.00018888
     atom    3 type  1   force =    -0.00003641    0.00002680    0.00002587
     atom    4 type  1   force =    -0.00000212   -0.00006618   -0.00056571
     atom    5 type  1   force =    -0.00000384    0.00002185    0.00019750
     atom    6 type  1   force =    -0.00002913   -0.00001291    0.00002384
     atom    7 type  1   force =    -0.00000401   -0.00006808   -0.00056453
     atom    8 type  1   force =    -0.00001570    0.00002090    0.00018681
     atom    9 type  1   force =     0.00003388    0.00001639    0.00002290
     atom   10 type  1   force =     0.00000093   -0.00006932   -0.00056633
     atom   11 type  1   force =     0.00000188    0.00001369    0.00017956
     atom   12 type  1   force =     0.00003298   -0.00001794    0.00003252
     atom   13 type  1   force =    -0.00000444   -0.00006738   -0.00056940
     atom   14 type  1   force =     0.00001010    0.00002464    0.00016091
     atom   15 type  1   force =     0.00000624   -0.00003422    0.00003091
     atom   16 type  1   force =     0.00000120   -0.00007034   -0.00056596
     atom   17 type  1   force =     0.00000467    0.00002779    0.00018537
     atom   18 type  1   force =     0.00000856    0.00000437    0.00004488
     atom   19 type  1   force =    -0.00000520   -0.00006673   -0.00056477
     atom   20 type  1   force =    -0.00000576    0.00000740    0.00018990
     atom   21 type  1   force =    -0.00000876    0.00000910    0.00004064
     atom   22 type  1   force =    -0.00000339   -0.00006830   -0.00056405
     atom   23 type  1   force =    -0.00000621    0.00002971    0.00017391
     atom   24 type  1   force =    -0.00000480    0.00003619    0.00002018
     atom   25 type  2   force =    -0.00000025    0.00000788    0.00006949
     atom   26 type  2   force =    -0.00000184    0.00000516    0.00007021
     atom   27 type  2   force =     0.00000407    0.00001335    0.00008267
     atom   28 type  2   force =     0.00000348    0.00000520    0.00009410
     atom   29 type  2   force =    -0.00001350    0.00002548    0.00009508
     atom   30 type  2   force =     0.00001003   -0.00000430    0.00010413
     atom   31 type  2   force =    -0.00001495    0.00001214    0.00009064
     atom   32 type  2   force =     0.00001888    0.00001618    0.00009786
     atom   33 type  2   force =    -0.00000739    0.00000113    0.00007041
     atom   34 type  2   force =     0.00000747    0.00001753    0.00006915

     Total force =     0.004612     Total SCF correction =     0.001721
     SCF correction compared to forces is large: reduce conv_thr to get better values


     Computing stress (Cartesian axis) and pressure

          total   stress  (Ry/bohr**3)                   (kbar)     P=        5.75
   0.00001348  -0.00000016  -0.00000397            1.98       -0.02       -0.58
  -0.00000016   0.00001476   0.00000768           -0.02        2.17        1.13
  -0.00000397   0.00000768   0.00008910           -0.58        1.13       13.11


     BFGS Geometry Optimization
     Energy error            =      0.0E+00 Ry
     Gradient error          =      1.3E-03 Ry/Bohr
     Cell gradient error     =      1.3E+01 kbar

     number of scf cycles    =   1
     number of bfgs steps    =   0

     enthalpy           new  =    -298.6031125947 Ry

     new trust radius        =       0.0193932733 bohr
     new conv_thr            =       0.0000010000 Ry

     new unit-cell volume =   1882.99269 a.u.^3 (   279.03073 Ang^3 )
     density =      1.77546 g/cm^3

CELL_PARAMETERS (alat=  8.00000437)
   1.155454221   0.003008595  -0.005826075
  -0.580765213   0.992116967  -0.116601313
   0.001103486  -0.262227178   3.234863795

ATOMIC_POSITIONS (crystal)
C            -0.0606101567       -0.1023279678        0.1542863387
C             0.0250273145        0.0578322583        0.3936330101
C             0.0431563842        0.0635696092        0.9176355261
C             0.1059773935        0.2309230048        0.1541491961
C             0.3586757103        0.2247976991        0.3941003564
C             0.2096585477        0.3968198364        0.9174800463
C             0.4393829716       -0.1023408324        0.1542721796
C             0.5252360287        0.0578404213        0.3937033139
C             0.5430113701        0.0635190832        0.9175177022
C             0.6059710858        0.2309139043        0.1541327379
C             0.8583258488        0.2242926704        0.3930993418
C             0.7095900168        0.3968703542        0.9174838390
C            -0.0606295583        0.3976222070        0.1542111433
C             0.0245064024        0.5569502392        0.3922298885
C             0.0430975202        0.5636506956        0.9175792255
C             0.1059638078        0.7309155566        0.1541331955
C             0.3581202438        0.7241883935        0.3933721636
C             0.2098666800        0.8970551372        0.9177405795
C             0.4393917851        0.3976635582        0.1542871916
C             0.5251514598        0.5578572093        0.3936058229
C             0.5430118220        0.5636711424        0.9177449526
C             0.6059895076        0.7309555602        0.1541965444
C             0.8581080353        0.7240567566        0.3928410464
C             0.7096991086        0.8968266341        0.9175055596
H             0.6941068522        0.9863712844        0.6318197726
H             0.8572821182        1.1387721803        0.6316827385
H             0.2822848574        0.6549461954        0.7046168507
H             0.3307162544        0.5365587747        0.7179871989
H             0.7817705263        0.6707809948        0.7316711406
H             0.8419637811        0.5543945796        0.7367630878
H             0.2227950028        0.0662291097        0.7189510889
H             0.4051259879        0.1508779217        0.7288916863
H            -0.0598069782        0.6212780119        0.5887861859
H             0.1029300974        0.7480881228        0.5762544114



     Writing config-only to output data dir ../../results/server/5h2_abs/5H2abs_C.save/
     NEW-OLD atomic charge density approx. for the potential

     Check: negative core charge=   -0.000002
     extrapolated charge  106.31019, renormalised to  106.00000

     total cpu time spent up to now is       54.8 secs

     Self-consistent Calculation

     iteration #  1     ecut=    40.00 Ry     beta= 0.05
     Davidson diagonalization with overlap
     c_bands:  1 eigenvalues not converged
     c_bands:  1 eigenvalues not converged
     c_bands:  1 eigenvalues not converged
     c_bands:  1 eigenvalues not converged
     c_bands:  1 eigenvalues not converged
     c_bands:  1 eigenvalues not converged
     c_bands:  1 eigenvalues not converged
     c_bands:  1 eigenvalues not converged
     c_bands:  1 eigenvalues not converged
     c_bands:  2 eigenvalues not converged
     c_bands:  1 eigenvalues not converged
     c_bands:  3 eigenvalues not converged
     ethr =  1.00E-06,  avg # of iterations = 19.2

     total cpu time spent up to now is       59.0 secs

     total energy              =    -298.60058588 Ry
     estimated scf accuracy    <       0.00586282 Ry

     iteration #  2     ecut=    40.00 Ry     beta= 0.05
     Davidson diagonalization with overlap
     c_bands:  1 eigenvalues not converged
     c_bands:  1 eigenvalues not converged
     c_bands:  1 eigenvalues not converged
     c_bands:  2 eigenvalues not converged
     ethr =  5.53E-06,  avg # of iterations = 14.9

     total cpu time spent up to now is       61.6 secs

     total energy              =    -298.60339486 Ry
     estimated scf accuracy    <       0.00004312 Ry

     iteration #  3     ecut=    40.00 Ry     beta= 0.05
     Davidson diagonalization with overlap
     c_bands:  1 eigenvalues not converged
     ethr =  4.07E-08,  avg # of iterations =  9.9

     total cpu time spent up to now is       64.6 secs

     total energy              =    -298.60350614 Ry
     estimated scf accuracy    <       0.00002129 Ry

     iteration #  4     ecut=    40.00 Ry     beta= 0.05
     Davidson diagonalization with overlap
     ethr =  2.01E-08,  avg # of iterations =  2.6

     total cpu time spent up to now is       65.6 secs

     total energy              =    -298.60349835 Ry
     estimated scf accuracy    <       0.00002157 Ry

     iteration #  5     ecut=    40.00 Ry     beta= 0.05
     Davidson diagonalization with overlap
     ethr =  2.01E-08,  avg # of iterations =  2.0

     total cpu time spent up to now is       66.5 secs

     total energy              =    -298.60349721 Ry
     estimated scf accuracy    <       0.00000352 Ry

     iteration #  6     ecut=    40.00 Ry     beta= 0.05
     Davidson diagonalization with overlap
     ethr =  3.32E-09,  avg # of iterations =  3.6

     total cpu time spent up to now is       67.8 secs

     End of self-consistent calculation

          k = 0.0722 0.1366 0.0883 (  8032 PWs)   bands (ev):

   -14.8273 -14.6617 -14.5077 -10.4665 -10.4656 -10.3419 -10.3397 -10.2310
   -10.2291  -9.3846  -9.2984  -9.2351  -8.5467  -8.4697  -8.4309  -7.5658
    -7.5644  -7.4658  -7.4640  -7.3792  -7.3777  -4.2912  -3.6111  -2.9786
    -2.3276  -2.2801  -2.2398  -1.9590  -1.8393  -1.8383  -1.7986  -1.7979
    -1.7603  -1.7596  -0.7587  -0.5043  -0.0547   0.1288   1.1891   1.2035
     1.2166   1.2308   1.2596   1.3974   1.4103   1.4477   1.7941   1.8037
     1.9901   2.3185   2.3242   2.3712   2.7741   5.9718   6.3936   6.5967
     6.6268   6.6655   6.9673   7.0257   7.4372   7.4623   8.9515   9.1046

          k = 0.0715 0.1179-0.0678 (  8027 PWs)   bands (ev):

   -14.8273 -14.6616 -14.5078 -10.4665 -10.4656 -10.3420 -10.3397 -10.2309
   -10.2291  -9.3846  -9.2984  -9.2351  -8.5467  -8.4697  -8.4310  -7.5658
    -7.5644  -7.4659  -7.4640  -7.3792  -7.3777  -4.2555  -3.7396  -2.7764
    -2.3276  -2.2801  -2.2398  -2.1044  -1.8394  -1.8383  -1.7986  -1.7979
    -1.7603  -1.7596  -0.7206  -0.5062  -0.0542   0.1292   1.1892   1.2069
     1.2185   1.2265   1.2615   1.3975   1.4103   1.4477   1.7901   1.8030
     1.9904   2.3151   2.3288   2.3708   2.7756   5.9662   6.4071   6.5905
     6.6300   6.6559   6.9736   7.0292   7.4361   7.4576   8.9743   9.1600

          k = 0.0718 0.3060 0.1021 (  8026 PWs)   bands (ev):

   -14.4111 -14.2493 -14.0993 -11.9587 -11.8183 -11.6919 -11.0087 -10.8771
   -10.7598  -9.6510  -9.5340  -9.4337  -7.6591  -7.5637  -7.4832  -6.3838
    -6.2936  -6.2172  -5.4868  -5.4004  -5.3282  -3.8469  -3.5895  -3.5281
    -3.4769  -3.0609  -2.6444  -2.6227  -2.5903  -2.5455  -1.4479  -1.4301
    -1.3919  -1.3657  -1.3530  -0.7222  -0.4967  -0.1912  -0.1534  -0.1310
    -0.1044   0.0441   0.5309   0.6269   0.6527   0.6838   0.7793   1.1856
     1.4498   2.0614   2.0861   2.5759   3.0806   6.1679   6.4565   6.7757
     7.4269   7.7859   8.2012   8.5572   8.7955   9.0066   9.4483   9.5503

          k = 0.0711 0.2873-0.0540 (  8041 PWs)   bands (ev):

   -14.4112 -14.2491 -14.0994 -11.9586 -11.8184 -11.6918 -11.0087 -10.8772
   -10.7598  -9.6509  -9.5340  -9.4337  -7.6591  -7.5637  -7.4831  -6.3838
    -6.2936  -6.2172  -5.4868  -5.4005  -5.3282  -3.7871  -3.5894  -3.5275
    -3.4770  -3.3038  -2.6442  -2.5910  -2.5460  -2.2102  -1.7909  -1.4302
    -1.3910  -1.3536  -1.3194  -0.6862  -0.4741  -0.1913  -0.1535  -0.1338
    -0.1103   0.0553   0.5471   0.6269   0.6527   0.6838   0.7769   1.1782
     1.4458   2.0692   2.0845   2.5781   3.0784   6.1645   6.4663   6.7700
     7.4318   7.7810   8.2064   8.6078   8.7894   9.0432   9.4482   9.5380

          k = 0.0715 0.4754 0.1158 (  8023 PWs)   bands (ev):

   -13.6668 -13.5117 -13.3688 -13.1744 -13.0233 -12.8853 -11.2462 -11.1122
   -10.9924  -9.8630  -9.7422  -9.6366  -6.4529  -6.3894  -6.3358  -5.2277
    -5.1717  -5.1235  -4.8722  -4.8213  -4.7754  -3.6930  -3.6485  -3.6064
    -3.2808  -3.2125  -3.1591  -3.1341  -2.4289  -2.1988  -2.1801  -2.1255
    -2.0799  -1.8763  -1.6728  -0.8938  -0.7798  -0.7338  -0.6976  -0.6614
    -0.6240  -0.3856  -0.3035  -0.2694  -0.2341   0.0413   0.2772   0.5585
     1.2655   1.9337   2.0274   2.6162   3.2305   6.4385   6.6889   6.9693
     8.0850   8.3292   8.5637   8.6584   9.5510  10.2085  10.9632  11.0931

          k = 0.0707 0.4566-0.0403 (  8015 PWs)   bands (ev):

   -13.6669 -13.5115 -13.3689 -13.1743 -13.0234 -12.8853 -11.2462 -11.1122
   -10.9924  -9.8629  -9.7422  -9.6366  -6.4529  -6.3894  -6.3358  -5.2277
    -5.1716  -5.1235  -4.8722  -4.8213  -4.7754  -3.6931  -3.6484  -3.6065
    -3.2804  -3.2135  -3.1569  -3.1035  -2.5374  -2.2748  -2.1854  -2.1268
    -2.0797  -1.6791  -1.3929  -1.2092  -1.0110  -0.7339  -0.6976  -0.6614
    -0.5810  -0.3035  -0.2695  -0.2342  -0.1142   0.0102   0.2209   0.5670
     1.2538   1.9412   2.0226   2.6224   3.2273   6.4385   6.6908   6.9675
     8.0875   8.3247   8.5811   8.6693   9.5349  10.2031  10.9190  11.0408

          k = 0.0733-0.3715 0.0471 (  8028 PWs)   bands (ev):

   -14.0795 -13.9204 -13.7739 -12.6042 -12.4583 -12.3256 -11.1666 -11.0332
   -10.9141  -9.7900  -9.6713  -9.5674  -7.0205  -6.9333  -6.8590  -5.7556
    -5.6747  -5.6080  -4.3886  -4.3109  -4.2981  -4.2468  -4.2323  -4.1778
    -3.4572  -3.2133  -3.1569  -3.1102  -2.9296  -1.9409  -1.7824  -1.3889
    -1.1410  -1.1145  -1.0956  -1.0793  -1.0725  -1.0443  -1.0390  -0.7895
    -0.4620  -0.0694   0.1608   0.1914   0.2250   0.2389   0.5800   0.6334
     1.3166   1.9881   2.0677   2.6106   3.1614   6.3476   6.5676   6.8935
     7.8258   8.1397   8.4658   8.7896   9.4177   9.8103  10.0048  10.2222

          k = 0.0726-0.3903-0.1089 (  8021 PWs)   bands (ev):

   -14.0795 -13.9206 -13.7737 -12.6042 -12.4582 -12.3256 -11.1667 -11.0331
   -10.9142  -9.7901  -9.6713  -9.5674  -7.0205  -6.9333  -6.8590  -5.7557
    -5.6747  -5.6081  -4.3887  -4.3108  -4.2980  -4.2468  -4.2324  -4.1777
    -3.5109  -3.2134  -3.1574  -3.1101  -2.6783  -2.3161  -1.7971  -1.1813
    -1.1408  -1.1144  -1.0946  -1.0771  -1.0745  -1.0447  -1.0394  -0.7269
    -0.4245  -0.1088   0.1094   0.1608   0.1914   0.2253   0.5688   0.7026
     1.3095   1.9892   2.0606   2.6206   3.1573   6.3418   6.5757   6.8905
     7.8259   8.1313   8.4732   8.7341   9.4152   9.8336  10.1132  10.2092

          k = 0.0730-0.2021 0.0609 (  8031 PWs)   bands (ev):

   -14.6606 -14.4964 -14.3441 -11.2427 -11.1091 -10.9896 -10.7736 -10.6437
   -10.5287  -9.4656  -9.3652  -9.2789  -8.2235  -8.1396  -8.0629  -6.9974
    -6.9004  -6.8184  -6.5532  -6.4585  -6.3783  -4.0656  -3.5732  -2.9042
    -2.8491  -2.8030  -2.5358  -2.1593  -2.1125  -2.0726  -1.9704  -1.6736
    -1.6336  -1.5958  -0.8681  -0.6653  -0.2244   0.0935   0.5026   0.6090
     0.6330   0.6690   0.9428   1.0591   1.0801   1.1100   1.1778   1.5823
     1.8095   2.1425   2.2132   2.4895   2.8721   6.0857   6.3940   6.5996
     6.9676   7.4169   7.4998   7.8533   7.9069   8.4054   8.9316   9.4060

          k = 0.0722-0.2209-0.0952 (  8025 PWs)   bands (ev):

   -14.6605 -14.4965 -14.3440 -11.2427 -11.1091 -10.9896 -10.7737 -10.6436
   -10.5287  -9.4656  -9.3652  -9.2789  -8.2235  -8.1396  -8.0629  -6.9974
    -6.9004  -6.8184  -6.5533  -6.4585  -6.3783  -4.1168  -3.3812  -2.9043
    -2.8512  -2.8429  -2.8021  -2.1592  -2.1125  -2.0726  -1.7449  -1.6736
    -1.6337  -1.5958  -0.9024  -0.6757  -0.2272   0.0833   0.4949   0.6090
     0.6330   0.6692   0.9444   1.0591   1.0801   1.1101   1.1815   1.5843
     1.8096   2.1403   2.2106   2.4921   2.8718   6.1066   6.3584   6.6135
     6.9722   7.3969   7.4884   7.8672   7.9244   8.4024   8.8742   9.3954

[...]
     atom   18 type  1   force =    -0.00055392    0.00026305   -0.00004310
     atom   19 type  1   force =     0.00038396    0.00045419    0.00008783
     atom   20 type  1   force =    -0.00046102    0.00053321   -0.00027994
     atom   21 type  1   force =     0.00032557   -0.00021999   -0.00002020
     atom   22 type  1   force =    -0.00022361   -0.00044410    0.00021546
     atom   23 type  1   force =     0.00047702   -0.00039104   -0.00023005
     atom   24 type  1   force =    -0.00061444    0.00027503    0.00003972
     atom   25 type  2   force =    -0.00022113    0.00000192   -0.00054065
     atom   26 type  2   force =    -0.00049689   -0.00021629   -0.00069587
     atom   27 type  2   force =     0.00044883    0.00060303    0.00084800
     atom   28 type  2   force =    -0.00083618   -0.00032666    0.00034617
     atom   29 type  2   force =    -0.00010402   -0.00036426    0.00052811
     atom   30 type  2   force =     0.00041172    0.00087223    0.00021426
     atom   31 type  2   force =     0.00021966   -0.00040891    0.00082713
     atom   32 type  2   force =    -0.00053744    0.00027172    0.00052095
     atom   33 type  2   force =     0.00053601   -0.00020170   -0.00007939
     atom   34 type  2   force =     0.00010453   -0.00071739   -0.00058539
     The non-local contrib.  to forces
     atom    1 type  1   force =     0.00028651    0.00065541    0.00005205
     atom    2 type  1   force =     0.00144780    0.00218810   -0.00004716
     atom    3 type  1   force =    -0.00172863    0.00121288    0.00159035
     atom    4 type  1   force =    -0.00014159   -0.00061518   -0.00003821
     atom    5 type  1   force =     0.00073299   -0.00029766    0.00429029
     atom    6 type  1   force =    -0.00222470    0.00050929    0.00036266
     atom    7 type  1   force =     0.00027886    0.00059764   -0.00001156
     atom    8 type  1   force =    -0.00287621    0.00037470    0.00288094
     atom    9 type  1   force =     0.00284927    0.00142426    0.00049561
     atom   10 type  1   force =    -0.00021234   -0.00077269   -0.00015871
     atom   11 type  1   force =     0.00049034   -0.00406027   -0.00365688
     atom   12 type  1   force =     0.00133565   -0.00037717   -0.00058871
     atom   13 type  1   force =     0.00031334    0.00054164   -0.00054331
     atom   14 type  1   force =     0.00160101    0.00024008   -0.00956891
     atom   15 type  1   force =     0.00011115   -0.00285815   -0.00022418
     atom   16 type  1   force =    -0.00004856   -0.00057917   -0.00010929
     atom   17 type  1   force =     0.00288532    0.00130694   -0.00080459
     atom   18 type  1   force =    -0.00030986   -0.00025660    0.00347854
     atom   19 type  1   force =     0.00021581    0.00065803    0.00002408
     atom   20 type  1   force =    -0.00273950   -0.00110959    0.00099259
     atom   21 type  1   force =     0.00078016   -0.00012603    0.00170362
     atom   22 type  1   force =    -0.00028998   -0.00062430    0.00018253
     atom   23 type  1   force =    -0.00130966    0.00037623   -0.00618216
     atom   24 type  1   force =    -0.00126676    0.00156641   -0.00000725
     atom   25 type  2   force =     0.03405956    0.05218418   -0.00663645
     atom   26 type  2   force =    -0.03445753   -0.05206479    0.00723726
     atom   27 type  2   force =     0.04174503   -0.04280549    0.01937633
     atom   28 type  2   force =    -0.04153839    0.04281576   -0.01956686
     atom   29 type  2   force =     0.04808777   -0.03928242    0.00992455
     atom   30 type  2   force =    -0.04825570    0.03903390   -0.01016982
     atom   31 type  2   force =     0.05535072    0.02944557    0.00724606
     atom   32 type  2   force =    -0.05535232   -0.02919374   -0.00722681
     atom   33 type  2   force =     0.03999143    0.04479350   -0.02065472
     atom   34 type  2   force =    -0.03946938   -0.04501447    0.02085379
     The ionic contribution  to forces
     atom    1 type  1   force =     0.00403490    0.04834541    0.37431355
     atom    2 type  1   force =     0.08328418    1.18271002    9.48847724
     atom    3 type  1   force =    -0.12017740   -1.02163256   -8.90822631
     atom    4 type  1   force =     0.00384765    0.04175371    0.36409772
     atom    5 type  1   force =     0.04816443    1.15413688    9.56529461
     atom    6 type  1   force =    -0.12566166   -1.10099276   -8.95645197
     atom    7 type  1   force =     0.00252748    0.04696127    0.37372857
     atom    8 type  1   force =     0.04144632    1.14498659    9.49709896
     atom    9 type  1   force =     0.00498476   -1.07019457   -8.95331055
     atom   10 type  1   force =     0.00017952    0.03975286    0.36213266
     atom   11 type  1   force =     0.08616304    1.07468230    9.38789738
     atom   12 type  1   force =     0.00018085   -1.13023019   -8.89257310
     atom   13 type  1   force =     0.00434731    0.04523411    0.36154207
     atom   14 type  1   force =     0.09382936    1.10489073    9.17310544
     atom   15 type  1   force =    -0.02169252   -1.15009198   -8.91362633
     atom   16 type  1   force =     0.00343452    0.04445461    0.36266480
     atom   17 type  1   force =     0.11935763    1.15631777    9.42195752
     atom   18 type  1   force =    -0.02863477   -1.06595120   -8.84012970
     atom   19 type  1   force =     0.00215295    0.04602625    0.37408111
     atom   20 type  1   force =     0.02910424    1.12228039    9.49112134
     atom   21 type  1   force =    -0.09402519   -1.06721118   -8.83415530
     atom   22 type  1   force =     0.00052780    0.04276754    0.36795193
     atom   23 type  1   force =     0.01133238    1.16613888    9.30539296
     atom   24 type  1   force =    -0.09690914   -1.00610066   -8.94085253
     atom   25 type  2   force =    -0.45328379   -0.65835338    0.39406865
     atom   26 type  2   force =     0.45958696    0.70617392    0.22054238
     atom   27 type  2   force =    -0.44882061    0.35931849   -1.61079348
     atom   28 type  2   force =     0.51910431   -0.75946299   -1.42357845
     atom   29 type  2   force =    -0.69077058    0.30592002   -2.08837389
     atom   30 type  2   force =     0.59954664   -0.81593905   -1.90408466
     atom   31 type  2   force =    -0.76343753   -0.51108390   -1.77436381
     atom   32 type  2   force =     0.73847382    0.15295604   -1.81460296
     atom   33 type  2   force =    -0.57927983   -0.47831977    1.58548042
     atom   34 type  2   force =     0.56708195    0.84975641    1.38417373
     The local contribution  to forces
     atom    1 type  1   force =    -0.00390982   -0.04851352   -0.37422804
     atom    2 type  1   force =    -0.08528672   -1.18453982   -9.48893422
     atom    3 type  1   force =     0.12227086    1.02040265    8.90696133
     atom    4 type  1   force =    -0.00393027   -0.04159913   -0.36385859
     atom    5 type  1   force =    -0.04843365   -1.15417787   -9.56995693
     atom    6 type  1   force =     0.12743880    1.10076523    8.95615598
     atom    7 type  1   force =    -0.00241015   -0.04708320   -0.37358937
     atom    8 type  1   force =    -0.03908364   -1.14488511   -9.50021541
     atom    9 type  1   force =    -0.00737417    1.06859244    8.95295341
     atom   10 type  1   force =    -0.00018372   -0.03945973   -0.36177613
     atom   11 type  1   force =    -0.08613658   -1.07113589   -9.38448282
     atom   12 type  1   force =    -0.00191154    1.13082480    8.89340805
     atom   13 type  1   force =    -0.00425201   -0.04531086   -0.36087456
     atom   14 type  1   force =    -0.09583816   -1.10494288   -9.16457668
     atom   15 type  1   force =     0.02191809    1.15269790    8.91397532
     atom   16 type  1   force =    -0.00358362   -0.04432791   -0.36235505
     atom   17 type  1   force =    -0.12136951   -1.15788247   -9.42165363
     atom   18 type  1   force =     0.02837820    1.06647090    8.83671915
     atom   19 type  1   force =    -0.00198349   -0.04619652   -0.37396997
     atom   20 type  1   force =    -0.02691056   -1.12063161   -9.49231250
     atom   21 type  1   force =     0.09359377    1.06712478    8.83255484
     atom   22 type  1   force =    -0.00046646   -0.04261441   -0.36792532
     atom   23 type  1   force =    -0.00955969   -1.16691483   -9.29963601
     atom   24 type  1   force =     0.09752826    1.00485238    8.94090525
     atom   25 type  2   force =     0.41900604    0.60617343   -0.38798136
     atom   26 type  2   force =    -0.42562767   -0.65432842   -0.22848343
     atom   27 type  2   force =     0.40752186   -0.31591185    1.59225258
     atom   28 type  2   force =    -0.47840453    0.71632053    1.44347951
     atom   29 type  2   force =     0.64258139   -0.26700421    2.07896372
     atom   30 type  2   force =    -0.55087870    0.77777754    1.91445387
     atom   31 type  2   force =     0.70830769    0.48122592    1.76793133
     atom   32 type  2   force =    -0.68366072   -0.12349369    1.82233801
     atom   33 type  2   force =     0.53982905    0.43332930   -1.56491054
     atom   34 type  2   force =    -0.52751356   -0.80546538   -1.40561302
     The core correction contribution to forces
     atom    1 type  1   force =    -0.00000227   -0.00003175   -0.00003882
     atom    2 type  1   force =    -0.00001303   -0.00006949   -0.00007008
     atom    3 type  1   force =     0.00003046   -0.00002345   -0.00004124
     atom    4 type  1   force =     0.00000214    0.00002851    0.00002711
     atom    5 type  1   force =    -0.00001527    0.00000031   -0.00021495
     atom    6 type  1   force =     0.00006184    0.00000113    0.00005617
     atom    7 type  1   force =    -0.00000273   -0.00002970   -0.00003519
     atom    8 type  1   force =     0.00005512   -0.00000563   -0.00013606
     atom    9 type  1   force =    -0.00007966   -0.00002301    0.00001934
     atom   10 type  1   force =     0.00000212    0.00003288    0.00003094
     atom   11 type  1   force =    -0.00003035    0.00009638    0.00007043
     atom   12 type  1   force =    -0.00002923    0.00000681    0.00002034
     atom   13 type  1   force =    -0.00000394   -0.00002795   -0.00001898
     atom   14 type  1   force =     0.00000136    0.00002774    0.00045816
     atom   15 type  1   force =    -0.00001012    0.00006744   -0.00000011
     atom   16 type  1   force =    -0.00000081    0.00002855    0.00002880
     atom   17 type  1   force =    -0.00009903   -0.00002957   -0.00001454
     atom   18 type  1   force =     0.00001389    0.00000533   -0.00006555
     atom   19 type  1   force =    -0.00000060   -0.00003237   -0.00003693
     atom   20 type  1   force =     0.00008551   -0.00000237   -0.00008494
     atom   21 type  1   force =    -0.00002403   -0.00000204   -0.00007873
     atom   22 type  1   force =     0.00000515    0.00002895    0.00001630
     atom   23 type  1   force =     0.00001439    0.00000810    0.00019914
     atom   24 type  1   force =     0.00003264   -0.00003785    0.00004175
     atom   25 type  2   force =     0.00000000    0.00000000    0.00000000
     atom   26 type  2   force =     0.00000000    0.00000000    0.00000000
     atom   27 type  2   force =     0.00000000    0.00000000    0.00000000
     atom   28 type  2   force =     0.00000000    0.00000000    0.00000000
     atom   29 type  2   force =     0.00000000    0.00000000    0.00000000
     atom   30 type  2   force =     0.00000000    0.00000000    0.00000000
     atom   31 type  2   force =     0.00000000    0.00000000    0.00000000
     atom   32 type  2   force =     0.00000000    0.00000000    0.00000000
     atom   33 type  2   force =     0.00000000    0.00000000    0.00000000
     atom   34 type  2   force =     0.00000000    0.00000000    0.00000000
     The Hubbard contrib.    to forces
     atom    1 type  1   force =     0.00000000    0.00000000    0.00000000
     atom    2 type  1   force =     0.00000000    0.00000000    0.00000000
     atom    3 type  1   force =     0.00000000    0.00000000    0.00000000
     atom    4 type  1   force =     0.00000000    0.00000000    0.00000000
     atom    5 type  1   force =     0.00000000    0.00000000    0.00000000
     atom    6 type  1   force =     0.00000000    0.00000000    0.00000000
     atom    7 type  1   force =     0.00000000    0.00000000    0.00000000
     atom    8 type  1   force =     0.00000000    0.00000000    0.00000000
     atom    9 type  1   force =     0.00000000    0.00000000    0.00000000
     atom   10 type  1   force =     0.00000000    0.00000000    0.00000000
     atom   11 type  1   force =     0.00000000    0.00000000    0.00000000
     atom   12 type  1   force =     0.00000000    0.00000000    0.00000000
     atom   13 type  1   force =     0.00000000    0.00000000    0.00000000
     atom   14 type  1   force =     0.00000000    0.00000000    0.00000000
     atom   15 type  1   force =     0.00000000    0.00000000    0.00000000
     atom   16 type  1   force =     0.00000000    0.00000000    0.00000000
     atom   17 type  1   force =     0.00000000    0.00000000    0.00000000
     atom   18 type  1   force =     0.00000000    0.00000000    0.00000000
     atom   19 type  1   force =     0.00000000    0.00000000    0.00000000
     atom   20 type  1   force =     0.00000000    0.00000000    0.00000000
     atom   21 type  1   force =     0.00000000    0.00000000    0.00000000
     atom   22 type  1   force =     0.00000000    0.00000000    0.00000000
     atom   23 type  1   force =     0.00000000    0.00000000    0.00000000
     atom   24 type  1   force =     0.00000000    0.00000000    0.00000000
     atom   25 type  2   force =     0.00000000    0.00000000    0.00000000
     atom   26 type  2   force =     0.00000000    0.00000000    0.00000000
     atom   27 type  2   force =     0.00000000    0.00000000    0.00000000
     atom   28 type  2   force =     0.00000000    0.00000000    0.00000000
     atom   29 type  2   force =     0.00000000    0.00000000    0.00000000
     atom   30 type  2   force =     0.00000000    0.00000000    0.00000000
     atom   31 type  2   force =     0.00000000    0.00000000    0.00000000
     atom   32 type  2   force =     0.00000000    0.00000000    0.00000000
     atom   33 type  2   force =     0.00000000    0.00000000    0.00000000
     atom   34 type  2   force =     0.00000000    0.00000000    0.00000000
     The SCF correction term to forces
     atom    1 type  1   force =     0.00000021   -0.00000079   -0.00000981
     atom    2 type  1   force =     0.00000268    0.00000303    0.00000298
     atom    3 type  1   force =     0.00000040   -0.00000616   -0.00004676
     atom    4 type  1   force =     0.00000132   -0.00000141   -0.00000930
     atom    5 type  1   force =     0.00000004    0.00000065    0.00000765
     atom    6 type  1   force =    -0.00000077   -0.00000687   -0.00004585
     atom    7 type  1   force =    -0.00000046   -0.00000165   -0.00000978
     atom    8 type  1   force =    -0.00000328    0.00000262    0.00000332
     atom    9 type  1   force =    -0.00000072   -0.00000503   -0.00004635
     atom   10 type  1   force =    -0.00000082   -0.00000139   -0.00000970
     atom   11 type  1   force =     0.00000109   -0.00000091   -0.00000149
     atom   12 type  1   force =    -0.00000003   -0.00000560   -0.00004659
     atom   13 type  1   force =     0.00000014   -0.00000093   -0.00001004
     atom   14 type  1   force =     0.00000087   -0.00000115   -0.00000464
     atom   15 type  1   force =    -0.00000131   -0.00000513   -0.00004662
     atom   16 type  1   force =     0.00000025   -0.00000040   -0.00000972
     atom   17 type  1   force =     0.00000041    0.00000004    0.00000195
     atom   18 type  1   force =    -0.00000138   -0.00000530   -0.00004502
     atom   19 type  1   force =    -0.00000071   -0.00000111   -0.00000993
     atom   20 type  1   force =    -0.00000072   -0.00000351    0.00000409
     atom   21 type  1   force =     0.00000087   -0.00000544   -0.00004411
     atom   22 type  1   force =    -0.00000013   -0.00000179   -0.00000946
     atom   23 type  1   force =    -0.00000040    0.00000067   -0.00000345
     atom   24 type  1   force =     0.00000057   -0.00000516   -0.00004698
     atom   25 type  2   force =    -0.00000294   -0.00000222    0.00000903
     atom   26 type  2   force =     0.00000135    0.00000309    0.00000844
     atom   27 type  2   force =     0.00000255    0.00000197    0.00001309
     atom   28 type  2   force =     0.00000243    0.00000014    0.00001250
     atom   29 type  2   force =    -0.00000260    0.00000244    0.00001425
     atom   30 type  2   force =    -0.00000051   -0.00000006    0.00001539
     atom   31 type  2   force =    -0.00000122    0.00000361    0.00001407
     atom   32 type  2   force =     0.00000179    0.00000320    0.00001323
     atom   33 type  2   force =    -0.00000464   -0.00000463    0.00000598
     atom   34 type  2   force =     0.00000552    0.00000613    0.00000064

     Total force =     0.004127     Total SCF correction =     0.000140


     Computing stress (Cartesian axis) and pressure

          total   stress  (Ry/bohr**3)                   (kbar)     P=        0.65
  -0.00000003   0.00000166  -0.00000231           -0.01        0.24       -0.34
   0.00000166   0.00000054   0.00000110            0.24        0.08        0.16
  -0.00000231   0.00000110   0.00001281           -0.34        0.16        1.88


     Writing all to output data dir ../../results/server/5h2_abs/5H2abs_C.save/
 
     init_run     :      1.41s CPU      1.61s WALL (       2 calls)
     electrons    :    329.95s CPU    358.78s WALL (      11 calls)
     update_pot   :      1.98s CPU      2.07s WALL (       9 calls)
     forces       :      2.86s CPU      3.43s WALL (      11 calls)
     stress       :     28.45s CPU     29.26s WALL (      11 calls)

     Called by init_run:
     wfcinit      :      0.92s CPU      1.01s WALL (       2 calls)
     potinit      :      0.15s CPU      0.16s WALL (       2 calls)
     hinit0       :      0.23s CPU      0.27s WALL (       2 calls)

     Called by electrons:
     c_bands      :    291.00s CPU    311.24s WALL (     268 calls)
     sum_band     :     30.33s CPU     33.32s WALL (     268 calls)
     v_of_rho     :      0.43s CPU      0.92s WALL (     279 calls)
     newd         :      1.99s CPU      2.83s WALL (     279 calls)
     mix_rho      :      4.11s CPU      6.51s WALL (     268 calls)

     Called by c_bands:
     init_us_2    :      1.85s CPU      2.48s WALL (   10080 calls)
     init_us_2:cp :      1.81s CPU      2.43s WALL (   10080 calls)
     cegterg      :    261.99s CPU    277.84s WALL (    4832 calls)

     Called by *egterg:
     cdiaghg      :    100.65s CPU    106.58s WALL (   23243 calls)
     h_psi        :    125.47s CPU    133.40s WALL (   23448 calls)
     s_psi        :      6.60s CPU      6.84s WALL (   23448 calls)
     g_psi        :      0.47s CPU      0.50s WALL (   18580 calls)

     Called by h_psi:
     h_psi:calbec :     13.58s CPU     15.03s WALL (   23448 calls)
     vloc_psi     :    104.34s CPU    110.30s WALL (   23448 calls)
     add_vuspsi   :      6.77s CPU      7.17s WALL (   23448 calls)

     General routines
     calbec       :     19.60s CPU     21.51s WALL (   29262 calls)
     fft          :      1.15s CPU      1.94s WALL (    1749 calls)
     ffts         :      1.20s CPU      1.62s WALL (    7846 calls)
     fftw         :    104.21s CPU    110.02s WALL ( 1984720 calls)
     interpolate  :      0.14s CPU      0.36s WALL (     279 calls)
 
     Parallel routines
 
     PWSCF        :   6m 5.62s CPU   6m37.06s WALL

 
   This run was terminated on:  21:25:10   2Sep2024            

=------------------------------------------------------------------------------=
   JOB DONE.
=------------------------------------------------------------------------------=
