
     Program PWSCF v.7.2 starts on  2Sep2024 at 20:53:40 

     This program is part of the open-source Quantum ESPRESSO suite
     for quantum simulation of materials; please cite
         "P. Giannozzi et al., J. Phys.:Condens. Matter 21 395502 (2009);
         "P. Giannozzi et al., J. Phys.:Condens. Matter 29 465901 (2017);
         "P. Giannozzi et al., J. Chem. Phys. 152 154105 (2020);
          URL http://www.quantum-espresso.org", 
     in publications or presentations arising from this work. More details at
     http://www.quantum-espresso.org/quote

     Parallel version (MPI & OpenMP), running on      96 processor cores
     Number of MPI processes:                96
     Threads/MPI process:                     1

     MPI processes distributed on     2 nodes
     366857 MiB available memory on the printing compute node when the environment starts
 
     Reading input from hydrogen_absorption5.in

     Current dimensions of program PWSCF are:
     Max number of different atomic species (ntypx) = 10
     Max number of k-points (npk) =  40000
     Max angular momentum in pseudopotentials (lmaxx) =  4

     IMPORTANT: XC functional enforced from input :
     Exchange-correlation= LDA
                           (   1   1   0   0   0   0   0)
     Any further DFT definition will be discarded
     Please, verify this is what you really want

 
     K-points division:     npool     =       2
     R & G space division:  proc/nbgrp/npool/nimage =      48
     Subspace diagonalization in iterative solution of the eigenvalue problem:
     a serial algorithm will be used

 
     Parallelization info
     --------------------
     sticks:   dense  smooth     PW     G-vecs:    dense   smooth      PW
     Min          48      19      5                 4720     1192     188
     Max          49      20      6                 4740     1210     204
     Sum        2347     955    283               227349    57601    9423
 
     Using Slab Decomposition
 

     Title: 
     5H2_absorption_C                                                           


     bravais-lattice index     =            0
     lattice parameter (alat)  =       8.0000  a.u.
     unit-cell volume          =    1682.7934 (a.u.)^3
     number of atoms/cell      =           34
     number of atomic types    =            2
     number of electrons       =       106.00
     number of Kohn-Sham states=           64
     kinetic-energy cutoff     =      40.0000  Ry
     charge density cutoff     =     400.0000  Ry
     scf convergence threshold =      1.0E-06
     mixing beta               =       0.0500
     number of iterations used =            8  local-TF  mixing
     energy convergence thresh.=      1.0E-04
     force convergence thresh. =      1.0E-03
     press convergence thresh. =      5.0E-01
     Exchange-correlation= LDA
                           (   1   1   0   0   0   0   0)
     nstep                     =           50


     celldm(1)=   8.000004  celldm(2)=   0.000000  celldm(3)=   0.000000
     celldm(4)=   0.000000  celldm(5)=   0.000000  celldm(6)=   0.000000

     crystal axes: (cart. coord. in units of alat)
               a(1) = (   1.155917   0.001460  -0.014103 )  
               a(2) = (  -0.580592   0.993377  -0.111900 )  
               a(3) = (  -0.017394  -0.305093   2.896942 )  

     reciprocal axes: (cart. coord. in units 2 pi/alat)
               b(1) = (  0.865189  0.512334  0.059152 )  
               b(2) = (  0.000022  1.018766  0.107292 )  
               b(3) = (  0.004213  0.041846  0.349624 )  


     PseudoPot. # 1 for C  read from file:
     ../../potentials/C.pz-n-rrkjus_psl.0.1.UPF
     MD5 check sum: a3cecbabebb5b3a1aff122f23eb09bb0
     Pseudo is Ultrasoft + core correction, Zval =  4.0
     Generated using "atomic" code by A. Dal Corso  v.5.0.2 svn rev. 9415
     Using radial grid of 1073 points,  4 beta functions with: 
                l(1) =   0
                l(2) =   0
                l(3) =   1
                l(4) =   1
     Q(r) pseudized with 0 coefficients 


     PseudoPot. # 2 for H  read from file:
     ../../potentials/H.pz-rrkjus_psl.0.1.UPF
     MD5 check sum: 1467ebfaa2880178e80d097b970df8c7
     Pseudo is Ultrasoft, Zval =  1.0
     Generated using "atomic" code by A. Dal Corso  v.5.0.2 svn rev. 9415
     Using radial grid of  929 points,  2 beta functions with: 
                l(1) =   0
                l(2) =   0
     Q(r) pseudized with 0 coefficients 


     atomic species   valence    mass     pseudopotential
        C              4.00    12.01100     C ( 1.00)
        H              1.00     1.00784     H ( 1.00)

     No symmetry found



   Cartesian axes

     site n.     atom                  positions (alat units)
         1           C   tau(   1) = (  -0.0181725  -0.1452588   0.4797050  )
         2           C   tau(   2) = (  -0.0147910  -0.0469718   1.2557192  )
         3           C   tau(   3) = (   0.0022966  -0.2336272   2.5681123  )
         4           C   tau(   4) = (  -0.0190825   0.1860713   0.4396571  )
         5           C   tau(   5) = (   0.2737273   0.1191097   1.2325328  )
         6           C   tau(   6) = (   0.0014060   0.0977264   2.5283655  )
         7           C   tau(   7) = (   0.5597774  -0.1445376   0.4726167  )
         8           C   tau(   8) = (   0.5631132  -0.0462438   1.2486848  )
         9           C   tau(   9) = (   0.5802134  -0.2328875   2.5610419  )
        10           C   tau(  10) = (   0.5588860   0.1868009   0.4325676  )
        11           C   tau(  11) = (   0.8517301   0.1198108   1.2253932  )
        12           C   tau(  12) = (   0.5793189   0.0984758   2.5213144  )
        13           C   tau(  13) = (  -0.3084770   0.3513904   0.4234998  )
        14           C   tau(  14) = (  -0.3050348   0.4496507   1.1997516  )
        15           C   tau(  15) = (  -0.2880155   0.2630916   2.5122743  )
        16           C   tau(  16) = (  -0.3093751   0.6827789   0.3837823  )
        17           C   tau(  17) = (  -0.0165831   0.6157590   1.1765527  )
        18           C   tau(  18) = (  -0.2888686   0.5944083   2.4724175  )
        19           C   tau(  19) = (   0.2694819   0.3521482   0.4165714  )
        20           C   tau(  20) = (   0.2728821   0.4504474   1.1928151  )
        21           C   tau(  21) = (   0.2899027   0.2638094   2.5051440  )
        22           C   tau(  22) = (   0.2685802   0.6835139   0.3768930  )
        23           C   tau(  23) = (   0.5614279   0.6164941   1.1695942  )
        24           C   tau(  24) = (   0.2890528   0.5951584   2.4653832  )
        25           H   tau(  25) = (   0.2471740   0.7691504   1.8041634  )
        26           H   tau(  26) = (   0.3170035   0.9369362   1.7813991  )
        27           H   tau(  27) = (  -0.0865672   0.4007699   1.8454014  )
        28           H   tau(  28) = (   0.0702995   0.3077308   1.8557078  )
        29           H   tau(  29) = (   0.5585841   0.4464338   1.8403629  )
        30           H   tau(  30) = (   0.5860854   0.2673912   1.8615210  )
        31           H   tau(  31) = (   0.1960785  -0.1566572   1.8975505  )
        32           H   tau(  32) = (   0.3763771  -0.1291608   1.8944699  )
        33           H   tau(  33) = (  -0.4847321   0.5245691   1.8281341  )
        34           H   tau(  34) = (  -0.2791507   0.6433306   1.7576323  )

     number of k points=    36  Gaussian smearing, width (Ry)=  0.0100
                       cart. coord. in units 2pi/alat
        k(    1) = (   0.0731541   0.1380532   0.1012763), wk =   0.0555556
        k(    2) = (   0.0710477   0.1171301  -0.0735357), wk =   0.0555556
        k(    3) = (   0.0731578   0.3078475   0.1191582), wk =   0.0555556
        k(    4) = (   0.0710513   0.2869244  -0.0556537), wk =   0.0555556
        k(    5) = (   0.0731615   0.4776418   0.1370402), wk =   0.0555556
        k(    6) = (   0.0710550   0.4567188  -0.0377717), wk =   0.0555556
        k(    7) = (   0.0731431  -0.3713298   0.0476303), wk =   0.0555556
        k(    8) = (   0.0710366  -0.3922528  -0.1271816), wk =   0.0555556
        k(    9) = (   0.0731468  -0.2015354   0.0655123), wk =   0.0555556
        k(   10) = (   0.0710403  -0.2224585  -0.1092997), wk =   0.0555556
        k(   11) = (   0.0731504  -0.0317411   0.0833943), wk =   0.0555556
        k(   12) = (   0.0710440  -0.0526642  -0.0914177), wk =   0.0555556
        k(   13) = (   0.2173522   0.2234422   0.1111349), wk =   0.0555556
        k(   14) = (   0.2152458   0.2025191  -0.0636771), wk =   0.0555556
        k(   15) = (   0.2173559   0.3932365   0.1290168), wk =   0.0555556
        k(   16) = (   0.2152495   0.3723134  -0.0457951), wk =   0.0555556
        k(   17) = (   0.2173596   0.5630308   0.1468988), wk =   0.0555556
        k(   18) = (   0.2152531   0.5421077  -0.0279132), wk =   0.0555556
        k(   19) = (   0.2173412  -0.2859408   0.0574889), wk =   0.0555556
        k(   20) = (   0.2152347  -0.3068638  -0.1173231), wk =   0.0555556
        k(   21) = (   0.2173449  -0.1161464   0.0753709), wk =   0.0555556
        k(   22) = (   0.2152384  -0.1370695  -0.0994411), wk =   0.0555556
        k(   23) = (   0.2173486   0.0536479   0.0932529), wk =   0.0555556
        k(   24) = (   0.2152421   0.0327248  -0.0815591), wk =   0.0555556
        k(   25) = (   0.3615503   0.3088312   0.1209934), wk =   0.0555556
        k(   26) = (   0.3594439   0.2879081  -0.0538185), wk =   0.0555556
        k(   27) = (   0.3615540   0.4786255   0.1388754), wk =   0.0555556
        k(   28) = (   0.3594476   0.4577024  -0.0359366), wk =   0.0555556
        k(   29) = (   0.3615577   0.6484198   0.1567574), wk =   0.0555556
        k(   30) = (   0.3594512   0.6274967  -0.0180546), wk =   0.0555556
        k(   31) = (   0.3615393  -0.2005518   0.0673475), wk =   0.0555556
        k(   32) = (   0.3594329  -0.2214748  -0.1074645), wk =   0.0555556
        k(   33) = (   0.3615430  -0.0307574   0.0852295), wk =   0.0555556
        k(   34) = (   0.3594365  -0.0516805  -0.0895825), wk =   0.0555556
        k(   35) = (   0.3615467   0.1390369   0.1031115), wk =   0.0555556
        k(   36) = (   0.3594402   0.1181138  -0.0717005), wk =   0.0555556

     Dense  grid:   227349 G-vectors     FFT dimensions: (  60,  60, 150)

     Smooth grid:    57601 G-vectors     FFT dimensions: (  40,  40,  96)

     Estimated max dynamical RAM per process >      12.30 MB

     Estimated total dynamical RAM >       1.10 GB

     Check: negative core charge=   -0.000002

     Initial potential from superposition of free atoms

     starting charge     105.9990, renormalised to     106.0000
     Starting wfcs are  106 randomized atomic wfcs

     total cpu time spent up to now is        0.9 secs

     Self-consistent Calculation

     iteration #  1     ecut=    40.00 Ry     beta= 0.05
     Davidson diagonalization with overlap
     ethr =  1.00E-02,  avg # of iterations =  3.2

     total cpu time spent up to now is        2.5 secs

     total energy              =    -299.01555712 Ry
     estimated scf accuracy    <       2.42676069 Ry

     iteration #  2     ecut=    40.00 Ry     beta= 0.05
     Davidson diagonalization with overlap
     ethr =  2.29E-03,  avg # of iterations =  2.4

     total cpu time spent up to now is        3.5 secs

     total energy              =    -300.10882172 Ry
     estimated scf accuracy    <       2.81964836 Ry

     iteration #  3     ecut=    40.00 Ry     beta= 0.05
     Davidson diagonalization with overlap
     ethr =  2.29E-03,  avg # of iterations =  1.1

     total cpu time spent up to now is        4.6 secs

     total energy              =    -297.73927033 Ry
     estimated scf accuracy    <       4.82369027 Ry

     iteration #  4     ecut=    40.00 Ry     beta= 0.05
     Davidson diagonalization with overlap
     ethr =  2.29E-03,  avg # of iterations =  2.1

     total cpu time spent up to now is        5.5 secs

     total energy              =    -297.99177146 Ry
     estimated scf accuracy    <       0.28412082 Ry

     iteration #  5     ecut=    40.00 Ry     beta= 0.05
     Davidson diagonalization with overlap
     ethr =  2.68E-04,  avg # of iterations =  7.4

     total cpu time spent up to now is        7.5 secs

     total energy              =    -298.07251399 Ry
     estimated scf accuracy    <       0.11128606 Ry

     iteration #  6     ecut=    40.00 Ry     beta= 0.05
     Davidson diagonalization with overlap
     ethr =  1.05E-04,  avg # of iterations =  7.0

     total cpu time spent up to now is        9.5 secs

     total energy              =    -298.05634813 Ry
     estimated scf accuracy    <       0.06072001 Ry

     iteration #  7     ecut=    40.00 Ry     beta= 0.05
     Davidson diagonalization with overlap
     ethr =  5.73E-05,  avg # of iterations =  7.7

     total cpu time spent up to now is       11.5 secs

     total energy              =    -298.09085401 Ry
     estimated scf accuracy    <       0.03218621 Ry

     iteration #  8     ecut=    40.00 Ry     beta= 0.05
     Davidson diagonalization with overlap
     ethr =  3.04E-05,  avg # of iterations =  4.1

     total cpu time spent up to now is       12.5 secs

     total energy              =    -298.11036451 Ry
     estimated scf accuracy    <       0.03789880 Ry

     iteration #  9     ecut=    40.00 Ry     beta= 0.05
     Davidson diagonalization with overlap
     ethr =  3.04E-05,  avg # of iterations =  2.6

     total cpu time spent up to now is       13.4 secs

     total energy              =    -298.06669258 Ry
     estimated scf accuracy    <       0.08018685 Ry

     iteration # 10     ecut=    40.00 Ry     beta= 0.05
     Davidson diagonalization with overlap
     ethr =  3.04E-05,  avg # of iterations =  4.2

     total cpu time spent up to now is       14.7 secs

     total energy              =    -298.07345144 Ry
     estimated scf accuracy    <       0.00311879 Ry

     iteration # 11     ecut=    40.00 Ry     beta= 0.05
     Davidson diagonalization with overlap
     ethr =  2.94E-06,  avg # of iterations =  9.7

     total cpu time spent up to now is       17.1 secs

     total energy              =    -298.07504655 Ry
     estimated scf accuracy    <       0.00149709 Ry

     iteration # 12     ecut=    40.00 Ry     beta= 0.05
     Davidson diagonalization with overlap
     ethr =  1.41E-06,  avg # of iterations =  2.0

     total cpu time spent up to now is       17.9 secs

     total energy              =    -298.07530257 Ry
     estimated scf accuracy    <       0.00118481 Ry

     iteration # 13     ecut=    40.00 Ry     beta= 0.05
     Davidson diagonalization with overlap
     ethr =  1.12E-06,  avg # of iterations =  4.6

     total cpu time spent up to now is       19.4 secs

     total energy              =    -298.07568857 Ry
     estimated scf accuracy    <       0.00113587 Ry

     iteration # 14     ecut=    40.00 Ry     beta= 0.05
     Davidson diagonalization with overlap
     ethr =  1.07E-06,  avg # of iterations =  1.1

     total cpu time spent up to now is       20.2 secs

     total energy              =    -298.07545104 Ry
     estimated scf accuracy    <       0.00145235 Ry

     iteration # 15     ecut=    40.00 Ry     beta= 0.05
     Davidson diagonalization with overlap
     ethr =  1.07E-06,  avg # of iterations =  1.0

     total cpu time spent up to now is       20.9 secs

     total energy              =    -298.07482917 Ry
     estimated scf accuracy    <       0.00098577 Ry

     iteration # 16     ecut=    40.00 Ry     beta= 0.05
     Davidson diagonalization with overlap
     ethr =  9.30E-07,  avg # of iterations =  4.6

     total cpu time spent up to now is       22.4 secs

     total energy              =    -298.07503953 Ry
     estimated scf accuracy    <       0.00007288 Ry

     iteration # 17     ecut=    40.00 Ry     beta= 0.05
     Davidson diagonalization with overlap
     ethr =  6.88E-08,  avg # of iterations =  4.0

     total cpu time spent up to now is       23.5 secs

     total energy              =    -298.07506061 Ry
     estimated scf accuracy    <       0.00006613 Ry

     iteration # 18     ecut=    40.00 Ry     beta= 0.05
     Davidson diagonalization with overlap
     ethr =  6.24E-08,  avg # of iterations =  1.0

     total cpu time spent up to now is       24.1 secs

     total energy              =    -298.07502311 Ry
     estimated scf accuracy    <       0.00006666 Ry

     iteration # 19     ecut=    40.00 Ry     beta= 0.05
     Davidson diagonalization with overlap
     ethr =  6.24E-08,  avg # of iterations =  3.3

     total cpu time spent up to now is       25.0 secs

     total energy              =    -298.07502942 Ry
     estimated scf accuracy    <       0.00001460 Ry

     iteration # 20     ecut=    40.00 Ry     beta= 0.05
     Davidson diagonalization with overlap
     ethr =  1.38E-08,  avg # of iterations =  5.1

     total cpu time spent up to now is       26.4 secs

     total energy              =    -298.07503472 Ry
     estimated scf accuracy    <       0.00002100 Ry

     iteration # 21     ecut=    40.00 Ry     beta= 0.05
     Davidson diagonalization with overlap
     ethr =  1.38E-08,  avg # of iterations =  1.0

     total cpu time spent up to now is       27.0 secs

     total energy              =    -298.07503340 Ry
     estimated scf accuracy    <       0.00001038 Ry

     iteration # 22     ecut=    40.00 Ry     beta= 0.05
     Davidson diagonalization with overlap
     ethr =  9.79E-09,  avg # of iterations =  1.0

     total cpu time spent up to now is       27.7 secs

     total energy              =    -298.07503308 Ry
     estimated scf accuracy    <       0.00000698 Ry

     iteration # 23     ecut=    40.00 Ry     beta= 0.05
     Davidson diagonalization with overlap
     ethr =  6.58E-09,  avg # of iterations =  1.8

     total cpu time spent up to now is       28.4 secs

     total energy              =    -298.07503568 Ry
     estimated scf accuracy    <       0.00000503 Ry

     iteration # 24     ecut=    40.00 Ry     beta= 0.05
     Davidson diagonalization with overlap
     ethr =  4.75E-09,  avg # of iterations =  1.0

     total cpu time spent up to now is       29.0 secs

     total energy              =    -298.07503134 Ry
     estimated scf accuracy    <       0.00000932 Ry

     iteration # 25     ecut=    40.00 Ry     beta= 0.05
     Davidson diagonalization with overlap
     ethr =  4.75E-09,  avg # of iterations =  4.0

     total cpu time spent up to now is       30.1 secs

     total energy              =    -298.07503165 Ry
     estimated scf accuracy    <       0.00000174 Ry

     iteration # 26     ecut=    40.00 Ry     beta= 0.05
     Davidson diagonalization with overlap
     ethr =  1.65E-09,  avg # of iterations =  2.0

     total cpu time spent up to now is       30.8 secs

     total energy              =    -298.07503183 Ry
     estimated scf accuracy    <       0.00000113 Ry

     iteration # 27     ecut=    40.00 Ry     beta= 0.05
     Davidson diagonalization with overlap
     ethr =  1.06E-09,  avg # of iterations =  1.1

     total cpu time spent up to now is       31.5 secs

     End of self-consistent calculation

          k = 0.0732 0.1381 0.1013 (  7200 PWs)   bands (ev):

   -13.3984 -13.3442 -13.0576  -9.0943  -9.0479  -9.0181  -9.0080  -8.7745
    -8.7643  -8.6686  -7.9962  -7.9686  -7.7439  -7.1658  -7.1392  -6.9259
    -6.1803  -6.1587  -6.1351  -6.1269  -5.9013  -5.9002  -4.3378  -2.3490
    -1.8686  -1.2728  -0.9594  -0.9305  -0.7316  -0.5056  -0.4750  -0.4749
    -0.4475  -0.4470  -0.2925  -0.2523  -0.2522   2.5375   2.5666   2.6255
     2.6694   2.7441   2.7599   2.7736   2.9327   2.9591   3.0315   3.3373
     3.5831   3.6200   3.6393   4.1541   5.0059   7.2322   7.3664   7.5826
     7.9994   8.0660   8.1140   8.2224   8.3466   8.7714   8.7936   9.3606

          k = 0.0710 0.1171-0.0735 (  7195 PWs)   bands (ev):

   -13.4037 -13.3374 -13.0592  -9.0914  -9.0462  -9.0240  -9.0085  -8.7707
    -8.7640  -8.6705  -7.9966  -7.9682  -7.7441  -7.1648  -7.1402  -6.9259
    -6.1794  -6.1574  -6.1371  -6.1276  -5.9011  -5.9000  -4.3370  -2.3595
    -1.9298  -1.0794  -0.9584  -0.9301  -0.7316  -0.6306  -0.4754  -0.4751
    -0.4475  -0.4471  -0.2982  -0.2523  -0.2522   2.5375   2.5666   2.6139
     2.6831   2.7441   2.7599   2.7737   2.9591   2.9634   3.0079   3.3813
     3.5307   3.5895   3.6383   4.1867   5.0081   7.1691   7.3687   7.6676
     8.0072   8.0758   8.1048   8.2216   8.3087   8.7099   8.8396   9.3929

          k = 0.0732 0.3078 0.1192 (  7184 PWs)   bands (ev):

   -12.9813 -12.9342 -12.6473 -10.5450 -10.4925 -10.2333  -9.6014  -9.5481
    -9.2986  -8.5347  -8.2300  -8.2017  -7.9630  -6.2599  -6.2288  -6.0031
    -5.0082  -4.9612  -4.7598  -4.7264  -4.0926  -4.0622  -3.8434  -2.2160
    -2.1863  -1.9767  -1.9027  -1.3574  -1.2734  -1.2457  -1.1582  -1.0437
    -0.8446  -0.0679  -0.0398  -0.0198   0.1545   1.1214   1.1679   1.1963
     1.3927   1.6978   1.9816   2.0087   2.1670   2.1982   2.4275   2.6954
     3.3423   3.4943   3.7922   4.4377   6.0921   7.4046   7.6632   7.9745
     8.2969   8.8648   9.0990   9.5672   9.8067  10.0065  10.0801  10.5510

          k = 0.0711 0.2869-0.0557 (  7208 PWs)   bands (ev):

   -12.9907 -12.9221 -12.6500 -10.5425 -10.4958 -10.2326  -9.5949  -9.5562
    -9.2968  -8.5342  -8.2371  -8.1944  -7.9636  -6.2599  -6.2288  -6.0032
    -5.0051  -4.9654  -4.7537  -4.7308  -4.0932  -4.0617  -3.8434  -2.2165
    -2.1848  -1.9769  -1.8541  -1.6307  -1.2737  -1.2452  -1.0439  -0.9988
    -0.5311  -0.2838  -0.0679  -0.0396   0.1545   1.1533   1.1690   1.1963
     1.3927   1.6437   1.9816   2.0087   2.1982   2.2288   2.4559   2.5921
     3.3755   3.5007   3.7867   4.4358   6.0974   7.5065   7.5290   8.0014
     8.3091   8.9049   9.0654   9.5475   9.9876  10.1536  10.2547  10.3552

          k = 0.0732 0.4776 0.1370 (  7198 PWs)   bands (ev):

   -12.2403 -12.1957 -11.9146 -11.7567 -11.6956 -11.4314  -9.8360  -9.7858
    -9.5316  -8.5012  -8.4240  -8.3283  -8.1669  -5.0785  -5.0484  -4.9902
    -4.8411  -3.8575  -3.8277  -3.6243  -3.5056  -3.4754  -3.2689  -2.3314
    -2.3022  -2.0986  -1.9007  -1.8711  -1.7542  -1.6621  -1.1526  -0.8137
    -0.7845  -0.5803  -0.5444  -0.3920  -0.3070   0.5070   0.6256   0.6539
     0.7597   0.8473   1.0561   1.0836   1.1157   1.2754   1.9520   2.4978
     3.2074   3.4814   3.8527   4.5477   7.0467   7.8676   7.8964   8.3604
     9.1403   9.5342   9.6364   9.9327  10.0523  10.6959  11.5394  12.1035

          k = 0.0711 0.4567-0.0378 (  7187 PWs)   bands (ev):

   -12.2494 -12.1842 -11.9172 -11.7495 -11.7047 -11.4295  -9.8333  -9.7891
    -9.5309  -8.5002  -8.4266  -8.3259  -8.1675  -5.0787  -5.0480  -4.9902
    -4.8410  -3.8575  -3.8278  -3.6243  -3.5058  -3.4752  -3.2689  -2.3319
    -2.3016  -2.0987  -1.9004  -1.8714  -1.7558  -1.6621  -1.0626  -0.9224
    -0.8132  -0.7840  -0.5798  -0.1566   0.1023   0.2187   0.5515   0.6255
     0.6538   0.8473   1.0561   1.0836   1.2512   1.2754   1.9946   2.4268
     3.2383   3.4791   3.8545   4.5486   7.0451   7.8259   7.9828   8.3071
     9.1505   9.5351   9.6421   9.9263  10.0721  10.8252  11.7117  11.9354

          k = 0.0731-0.3713 0.0476 (  7201 PWs)   bands (ev):

   -12.6605 -12.5929 -12.3235 -11.1834 -11.1374 -10.8682  -9.7551  -9.7107
    -9.4525  -8.4965  -8.3663  -8.3161  -8.0987  -5.6326  -5.6000  -5.3751
    -4.7672  -4.3674  -4.3374  -4.1221  -3.0026  -2.9722  -2.9183  -2.8896
    -2.7575  -2.6811  -2.0459  -1.8358  -1.8080  -1.6069  -1.4335  -0.7482
    -0.3815   0.0692   0.2252   0.2471   0.2533   0.2751   0.4518   0.4685
     0.4733   0.9246   1.5164   1.5446   1.7361   1.8389   2.0478   2.5051
     3.2842   3.5100   3.8396   4.4527   6.3545   7.7914   7.8569   8.2856
     8.7890   9.3129   9.5000   9.8780  10.3574  10.6382  11.2931  11.4357

          k = 0.0710-0.3923-0.1272 (  7185 PWs)   bands (ev):

   -12.6507 -12.6055 -12.3207 -11.1881 -11.1315 -10.8694  -9.7578  -9.7073
    -9.4533  -8.4982  -8.3573  -8.3238  -8.0983  -5.6349  -5.5973  -5.3756
    -4.7674  -4.3675  -4.3373  -4.1221  -3.0028  -2.9719  -2.9181  -2.8898
    -2.7576  -2.6810  -2.0863  -1.8382  -1.8080  -1.6070  -1.1402  -0.8983
    -0.6808   0.2240   0.2471   0.2525   0.2750   0.2903   0.3687   0.4525
     0.4688   1.0950   1.5164   1.5446   1.7361   1.7606   2.0321   2.5311
     3.2750   3.5094   3.8248   4.4748   6.3430   7.7513   7.9153   8.2801
     8.7681   9.2802   9.5520   9.8621  10.1584  10.5018  11.2052  11.5095

          k = 0.0731-0.2015 0.0655 (  7204 PWs)   bands (ev):

   -13.2386 -13.1706 -12.8954  -9.8327  -9.7844  -9.5283  -9.3639  -9.3265
    -9.0651  -8.6372  -8.0621  -8.0280  -7.8032  -6.8406  -6.8037  -6.5784
    -5.5987  -5.5659  -5.3402  -5.1581  -5.1275  -4.8976  -4.3099  -2.2511
    -2.0336  -1.5312  -1.5029  -1.3015  -1.0393  -0.7918  -0.7630  -0.5641
    -0.5452  -0.3117  -0.2872  -0.2752  -0.0880   1.9077   1.9618   1.9890
     2.1798   2.3792   2.3958   2.4079   2.4359   2.6259   2.7729   3.0777
     3.4557   3.5342   3.7486   4.1586   5.2980   7.4275   7.6739   7.7819
     8.0083   8.3617   8.8129   8.9833   9.1541   9.2282   9.4755   9.8732

          k = 0.0710-0.2225-0.1093 (  7193 PWs)   bands (ev):

   -13.2310 -13.1804 -12.8932  -9.8325  -9.7846  -9.5283  -9.3724  -9.3153
    -9.0683  -8.6369  -8.0609  -8.0294  -7.8031  -6.8398  -6.8046  -6.5783
    -5.5983  -5.5664  -5.3401  -5.1615  -5.1235  -4.8983  -4.3103  -2.3285
    -1.7666  -1.5310  -1.5031  -1.3939  -1.3015  -0.7921  -0.7631  -0.5641
    -0.3984  -0.3108  -0.2833  -0.2511  -0.0880   1.9217   1.9619   1.9890
     2.1798   2.3488   2.3766   2.4076   2.4359   2.6259   2.8038   3.0861
     3.5010   3.5326   3.6729   4.1915   5.3004   7.5055   7.5796   7.7606
     8.0135   8.5073   8.6571   8.9056   9.0795   9.3366   9.5674   9.7451

          k = 0.0732-0.0317 0.0834 (  7203 PWs)   bands (ev):

   -13.4851 -13.4224 -13.1408  -8.8299  -8.6754  -8.6089  -8.3993  -8.2778
    -8.2696  -8.2452  -8.2412  -8.0160  -8.0154  -7.0551  -7.0409  -7.0206
    -7.0108  -6.7863  -6.7854  -6.6563  -6.6239  -6.3944  -4.1031  -2.4766
    -2.0725  -1.3037  -0.6885  -0.5588  -0.5577  -0.5308  -0.5298  -0.3931
    -0.3643  -0.3354  -0.3352  -0.1681  -0.0084   2.8532   2.8571   2.8800
     2.9247   2.9535   3.0556   3.0670   3.1456   3.2357   3.3005   3.3076
     3.3964   3.8281   3.9051   3.9241   4.8466   7.1365   7.5238   7.5516
     7.6047   7.7075   7.7493   8.0687   8.1502   8.1895   8.4793   8.9406

          k = 0.0710-0.0527-0.0914 (  7207 PWs)   bands (ev):

   -13.4836 -13.4245 -13.1403  -8.8330  -8.6477  -8.6355  -8.3973  -8.2779
    -8.2754  -8.2437  -8.2364  -8.0165  -8.0154  -7.0588  -7.0425  -7.0161
    -7.0090  -6.7871  -6.7857  -6.6563  -6.6240  -6.3943  -4.1030  -2.4848
    -2.0368  -1.3648  -0.6539  -0.5588  -0.5577  -0.5308  -0.5298  -0.3931
    -0.3643  -0.3354  -0.3352  -0.1681  -0.0079   2.8531   2.8797   2.8982
     2.9250   2.9535   2.9845   3.0669   3.1456   3.1724   3.2487   3.4512
     3.4926   3.7752   3.8755   3.8860   4.8775   7.1501   7.4588   7.5029
     7.6878   7.8009   7.8554   7.8929   8.1086   8.1298   8.5797   8.9256

          k = 0.2174 0.2234 0.1111 (  7180 PWs)   bands (ev):

   -12.9821 -12.9330 -12.6475 -10.5466 -10.4893 -10.2337  -9.6004  -9.5525
    -9.2982  -8.5285  -8.2346  -8.1923  -7.9635  -6.2599  -6.2288  -6.0029
    -5.0081  -4.9594  -4.8420  -4.7330  -4.0922  -4.0616  -3.8434  -2.2157
    -2.1858  -1.9768  -1.8519  -1.3476  -1.2740  -1.2454  -1.0438  -0.9677
    -0.8785  -0.0680  -0.0403  -0.0307   0.1545   1.0815   1.1674   1.1963
     1.3926   1.7563   1.9817   2.0084   2.1975   2.2024   2.3867   2.6323
     3.3575   3.4628   3.8216   4.4000   5.9051   7.4841   7.6554   7.7739
     8.1661   8.8642   9.1341   9.5762   9.8241   9.9396  10.1145  10.5909

          k = 0.2152 0.2025-0.0637 (  7190 PWs)   bands (ev):

   -12.9900 -12.9229 -12.6497 -10.5389 -10.4988 -10.2317  -9.6001  -9.5529
    -9.2981  -8.5287  -8.2289  -8.1982  -7.9630  -6.2601  -6.2287  -6.0029
    -5.0018  -4.9689  -4.8370  -4.7343  -4.0924  -4.0614  -3.8435  -2.2162
    -2.1848  -1.9770  -1.8487  -1.5007  -1.2741  -1.2453  -1.0438  -0.9118
    -0.5857  -0.2443  -0.0678  -0.0400   0.1545   1.1671   1.1961   1.2086
     1.3926   1.5480   1.9817   2.0084   2.1877   2.1986   2.4717   2.6567
     3.3488   3.5159   3.7218   4.4561   5.9060   7.5327   7.6015   7.7415
     8.1937   8.9283   9.0601   9.5723   9.9477  10.0836  10.2185  10.5210

          k = 0.2174 0.3932 0.1290 (  7193 PWs)   bands (ev):

   -12.4040 -12.3594 -12.0768 -10.9618 -10.9357 -10.8930 -10.8867 -10.6324
   -10.6294  -8.3808  -7.1633  -7.1355  -6.9151  -6.3976  -6.3723  -6.1665
    -5.0554  -3.8170  -3.7871  -3.5738  -2.9364  -2.9197  -2.9013  -2.8940
    -2.6884  -2.6877  -1.7890  -1.1800  -0.6754  -0.6725  -0.6453  -0.6451
    -0.6013  -0.4542  -0.4468  -0.4465  -0.1299  -0.1008   0.0971   0.6076
     0.6381   0.6525   0.8635   0.8898   1.0811   1.2483   1.4233   2.0140
     2.0295   4.5349   4.8406   5.3178   6.6062   6.9290   7.1891   7.3192
     8.2218  10.1878  10.6681  11.0522  11.0628  11.1491  11.3134  11.6348

          k = 0.2152 0.3723-0.0458 (  7171 PWs)   bands (ev):

   -12.4134 -12.3473 -12.0795 -10.9558 -10.9325 -10.9017 -10.8898 -10.6303
   -10.6288  -8.3806  -7.1640  -7.1347  -6.9152  -6.3972  -6.3726  -6.1665
    -5.0549  -3.8175  -3.7866  -3.5739  -2.9362  -2.9195  -2.9013  -2.8946
    -2.6883  -2.6876  -1.7901  -1.1341  -0.9196  -0.6752  -0.6725  -0.6452
    -0.6448  -0.4468  -0.4465  -0.1301  -0.1009   0.0602   0.0971   0.3526
     0.6966   0.7707   0.8633   0.8897   1.0811   1.1565   1.1906   2.0558
     2.1454   4.6451   4.6754   5.3844   6.6566   6.8634   7.1444   7.3596
     8.2327  10.2411  10.9315  11.0535  11.1430  11.2099  11.2261  11.5857

          k = 0.2174 0.5630 0.1469 (  7167 PWs)   bands (ev):

   -12.0043 -11.9396 -11.6745 -11.5066 -11.4619 -11.1891 -11.0251 -10.9742
   -10.7101  -8.3925  -7.0190  -6.9874  -6.7652  -6.0815  -6.0491  -5.8423
    -4.8492  -4.4241  -4.3980  -4.1959  -2.4692  -2.4406  -2.3702  -2.2412
    -1.9128  -1.8835  -1.6770  -1.0409  -1.0105  -0.9614  -0.9339  -0.8119
    -0.7385  -0.6465  -0.5129  -0.2461  -0.2187  -0.0222   0.1770   0.2317
     0.2702   0.2986   0.4923   0.5240   0.6070   0.8272   1.1829   1.5379
     1.9790   4.9244   5.1523   5.6056   6.2421   6.5404   6.9101   7.1956
     9.2069  10.8595  11.0938  11.3688  11.4733  11.7888  12.0350  12.1363

          k = 0.2153 0.5421-0.0279 (  7164 PWs)   bands (ev):

   -11.9950 -11.9515 -11.6718 -11.5131 -11.4537 -11.1909 -11.0250 -10.9743
   -10.7101  -8.3926  -7.0196  -6.9868  -6.7652  -6.0818  -6.0488  -5.8423
    -4.8490  -4.4254  -4.3966  -4.1960  -2.4693  -2.4406  -2.3778  -2.2413
    -1.9129  -1.8834  -1.6770  -1.0409  -1.0106  -0.9614  -0.9339  -0.8119
    -0.7379  -0.4959  -0.4339  -0.2461  -0.2188  -0.1143  -0.0227  -0.0096
     0.2683   0.2978   0.4923   0.5923   0.8318   0.9755   1.1829   1.4038
     1.9887   4.9346   5.1425   5.6203   6.1401   6.6575   6.9227   7.1577
     9.1998  10.8202  10.9805  11.3645  11.4377  11.8012  11.9547  12.1492

          k = 0.2173-0.2859 0.0575 (  7199 PWs)   bands (ev):

   -12.7427 -12.6755 -12.4048 -10.7817 -10.7377 -10.4699 -10.3046 -10.2583
    -9.9981  -8.5294  -7.6382  -7.6063  -7.3821  -6.4457  -6.4130  -6.1885
    -4.3749  -3.9626  -3.9308  -3.7153  -3.5061  -3.4762  -3.2617  -3.0230
    -2.9947  -2.7856  -2.5839  -1.5251  -1.0155  -0.9876  -0.7881  -0.5923
    -0.3009  -0.2965  -0.2704  -0.0724  -0.0062   0.5772   0.6045   0.7966
     0.9015   1.3405   1.4446   1.4684   1.4974   1.6907   1.9393   2.2449
     2.7223   4.0724   4.2655   4.7953   5.7927   7.2265   7.2817   7.6778
     9.1428   9.8782  10.1099  10.2786  10.4595  10.6918  10.7534  10.9275

          k = 0.2152-0.3069-0.1173 (  7176 PWs)   bands (ev):

   -12.7337 -12.6870 -12.4023 -10.7873 -10.7307 -10.4715 -10.3062 -10.2560
    -9.9986  -8.5294  -7.6388  -7.6056  -7.3822  -6.4476  -6.4106  -6.1889
    -4.3749  -3.9612  -3.9320  -3.7153  -3.5060  -3.4763  -3.2616  -3.0231
    -2.9946  -2.7856  -2.6026  -1.3003  -1.0156  -0.9878  -0.9611  -0.7881
    -0.3008  -0.2947  -0.2703  -0.0724   0.1669   0.5772   0.6045   0.7967
     0.8275   1.4125   1.4673   1.4812   1.4975   1.6908   1.9735   2.1874
     2.7081   4.0431   4.3363   4.7337   5.8178   7.2304   7.2696   7.6871
     9.1185   9.8943   9.9511  10.2081  10.4989  10.6434  10.6471  10.9172

          k = 0.2173-0.1161 0.0754 (  7204 PWs)   bands (ev):

   -13.1542 -13.0899 -12.8129 -10.2213 -10.1832  -9.9159  -8.8721  -8.8281
    -8.7933  -8.7854  -8.6093  -8.5421  -8.5303  -5.9786  -5.9708  -5.9461
    -5.9389  -5.7107  -5.7101  -4.6493  -4.6171  -4.3957  -4.1553  -2.4527
    -1.9588  -1.4461  -1.4433  -1.4175  -1.4158  -1.2159  -1.2155  -1.1009
    -0.4209  -0.1269  -0.0659  -0.0371   0.1588   1.5183   1.6527   1.6796
     1.8709   1.8879   2.2961   2.3249   2.5181   2.7626   2.9413   2.9637
     3.2065   3.2940   3.8985   3.9260   5.0775   7.9112   8.0086   8.0977
     8.1355   8.3240   8.6549   8.7526   9.4090   9.5854   9.8690  10.0369

          k = 0.2152-0.1371-0.0994 (  7185 PWs)   bands (ev):

   -13.1498 -13.0955 -12.8116 -10.2303 -10.1717  -9.9184  -8.8665  -8.8261
    -8.8033  -8.7876  -8.5985  -8.5416  -8.5366  -5.9830  -5.9721  -5.9408
    -5.9373  -5.7115  -5.7104  -4.6485  -4.6181  -4.3955  -4.1552  -2.4848
    -1.8241  -1.4460  -1.4434  -1.4178  -1.4156  -1.2870  -1.2159  -1.2155
    -0.3366  -0.1220  -0.0659  -0.0371   0.1588   1.4307   1.6528   1.6796
     1.8709   2.0289   2.2961   2.3249   2.5181   2.7105   2.9256   2.9613
     3.2624   3.3034   3.8336   3.9174   5.1016   7.9088   7.9496   8.0378
     8.2033   8.4103   8.6875   8.6975   9.4810   9.5743   9.6895   9.8841

          k = 0.2173 0.0536 0.0933 (  7188 PWs)   bands (ev):

   -13.2338 -13.1767 -12.8939  -9.8348  -9.7797  -9.5292  -9.3639  -9.3275
    -9.0651  -8.6351  -8.0614  -8.0264  -7.8038  -6.8382  -6.8017  -6.5779
    -5.5990  -5.5657  -5.3401  -5.1621  -5.1278  -4.8979  -4.4252  -2.2207
    -1.8235  -1.5312  -1.5027  -1.3014  -1.2267  -0.7922  -0.7631  -0.5642
    -0.4112  -0.3107  -0.2832  -0.1927  -0.0881   1.8800   1.9608   1.9889
     2.1794   2.3658   2.4079   2.4268   2.4361   2.6264   2.7690   3.0664
     3.3586   3.5355   3.7700   4.1074   5.1895   7.4112   7.5562   7.8188
     7.9933   8.3671   8.8262   8.8896   9.1171   9.2196   9.5082   9.6862

          k = 0.2152 0.0327-0.0816 (  7197 PWs)   bands (ev):

   -13.2362 -13.1738 -12.8946  -9.8275  -9.7889  -9.5270  -9.3736  -9.3150
    -9.0687  -8.6345  -8.0583  -8.0298  -7.8034  -6.8357  -6.8047  -6.5774
    -5.5982  -5.5667  -5.3399  -5.1644  -5.1249  -4.8985  -4.4246  -2.2160
    -1.8781  -1.5312  -1.5028  -1.3014  -1.1212  -0.7921  -0.7631  -0.5642
    -0.4693  -0.3108  -0.2832  -0.1957  -0.0882   1.9517   1.9611   1.9890
     2.1794   2.2981   2.3742   2.4083   2.4359   2.6264   2.7695   3.0916
     3.4728   3.5239   3.6103   4.2167   5.1666   7.4285   7.5471   7.7580
     8.0330   8.4835   8.6343   8.9108   9.0536   9.3024   9.6227   9.7570

          k = 0.3616 0.3088 0.1210 (  7193 PWs)   bands (ev):

   -12.2401 -12.1954 -11.9145 -11.7565 -11.6955 -11.4313  -9.8375  -9.7860
    -9.5321  -8.5052  -8.4264  -8.2998  -8.1665  -5.1567  -5.0740  -5.0453
    -4.8405  -3.8563  -3.8269  -3.6238  -3.5070  -3.4760  -3.2694  -2.3328
    -2.3022  -2.0992  -1.9006  -1.8707  -1.6622  -1.4377  -1.1316  -0.8135
    -0.7842  -0.5801  -0.5221  -0.3819  -0.3211   0.5000   0.6260   0.6536
     0.7576   0.8474   1.0559   1.0831   1.1070   1.2754   1.9557   2.4816
     3.2103   3.4623   3.8385   4.5276   6.9201   7.5260   7.8756   8.0355
     8.3567   9.5178   9.6176   9.9938  10.5866  11.0437  11.7616  12.2387

          k = 0.3594 0.2879-0.0538 (  7185 PWs)   bands (ev):

   -12.2491 -12.1841 -11.9170 -11.7494 -11.7045 -11.4294  -9.8342  -9.7901
    -9.5311  -8.5064  -8.4238  -8.3019  -8.1658  -5.1564  -5.0741  -5.0452
    -4.8405  -3.8562  -3.8271  -3.6237  -3.5073  -3.4756  -3.2695  -2.3332
    -2.3017  -2.0992  -1.9004  -1.8708  -1.6622  -1.4462  -1.0233  -0.9156
    -0.8133  -0.7838  -0.5798  -0.1572   0.1109   0.2042   0.5468   0.6259
     0.6536   0.8474   1.0560   1.0832   1.2452   1.2754   1.9869   2.4346
     3.2263   3.4727   3.8183   4.5406   6.9203   7.5174   7.9307   7.9905
     8.3560   9.5069   9.6344   9.9862  10.6912  11.2061  11.6673  12.1493

          k = 0.3616 0.4786 0.1389 (  7172 PWs)   bands (ev):

   -12.0011 -11.9432 -11.6734 -11.5060 -11.4629 -11.1889 -11.0286 -10.9701
   -10.7112  -8.3833  -7.0193  -6.9878  -6.7659  -6.0781  -6.0473  -5.8414
    -4.9477  -4.4256  -4.3985  -4.1963  -2.4678  -2.4397  -2.2429  -2.2388
    -1.9129  -1.8832  -1.6769  -1.0423  -1.0110  -0.9626  -0.9343  -0.8126
    -0.7387  -0.5988  -0.4595  -0.2461  -0.2191  -0.0224   0.1099   0.2477
     0.2704   0.2983   0.4760   0.4929   0.5540   0.8766   1.2947   1.5483
     1.9240   4.8853   5.0489   5.6482   6.3228   6.5525   6.8112   7.0653
     8.6566  10.8830  11.3066  11.4370  11.5813  11.7996  11.8554  12.1914

          k = 0.3594 0.4577-0.0359 (  7176 PWs)   bands (ev):

   -11.9984 -11.9466 -11.6726 -11.5138 -11.4531 -11.1911 -11.0213 -10.9793
   -10.7092  -8.3833  -7.0197  -6.9874  -6.7659  -6.0781  -6.0472  -5.8414
    -4.9475  -4.4259  -4.3981  -4.1963  -2.4679  -2.4397  -2.2464  -2.2397
    -1.9129  -1.8832  -1.6769  -1.0424  -1.0110  -0.9626  -0.9344  -0.8127
    -0.7385  -0.5330  -0.4095  -0.2462  -0.2190  -0.0520  -0.0222   0.0217
     0.2694   0.2981   0.4929   0.6600   0.8646   0.9511   1.0577   1.3834
     2.0352   4.8220   5.1902   5.5458   6.2786   6.6760   6.7803   7.0428
     8.6587  10.8313  11.3219  11.4136  11.6140  11.8021  12.0181  12.2000

          k = 0.3616 0.6484 0.1568 (  7183 PWs)   bands (ev):

   -11.9337 -11.9072 -11.8650 -11.8548 -11.5938 -11.5905 -10.4636 -10.4192
   -10.1563  -8.4669  -7.7277  -7.6935  -7.4578  -5.5115  -5.4825  -5.2679
    -4.4898  -4.1153  -4.0850  -3.8915  -3.0972  -3.0682  -2.8621  -2.7233
    -1.7715  -1.7453  -1.5456  -1.3654  -1.3594  -1.3359  -1.3328  -1.1325
    -1.1322  -0.5501  -0.4692  -0.2677   0.0887   0.3449   0.4714   0.4910
     0.5082   0.5124   0.7065   0.7073   0.9146   1.0413   1.2985   1.7526
     2.6056   4.1992   4.5440   5.0957   6.0657   6.9730   7.2199   7.7128
     9.5536  10.3659  10.5549  10.9691  11.0358  11.2707  11.8961  12.4562

          k = 0.3595 0.6275-0.0181 (  7185 PWs)   bands (ev):

   -11.9303 -11.9054 -11.8698 -11.8568 -11.5926 -11.5901 -10.4674 -10.4145
   -10.1573  -8.4670  -7.7288  -7.6922  -7.4580  -5.5117  -5.4823  -5.2679
    -4.4898  -4.1138  -4.0865  -3.8914  -3.0973  -3.0681  -2.8622  -2.7267
    -1.7715  -1.7453  -1.5456  -1.3654  -1.3595  -1.3359  -1.3327  -1.1326
    -1.1321  -0.5116  -0.3876  -0.2723  -0.0050   0.2282   0.4713   0.4909
     0.5081   0.5123   0.7065   0.7073   0.9622   1.1016   1.2309   1.8660
     2.5546   4.2402   4.4583   5.1596   6.0500   7.0023   7.1607   7.7421
     9.5475  10.3878  10.5122  10.9608  11.0052  11.2552  11.7443  12.3339

          k = 0.3615-0.2006 0.0673 (  7202 PWs)   bands (ev):

   -12.4945 -12.4306 -12.1600 -11.5056 -11.4622 -11.1877  -9.1490  -9.1323
    -9.0953  -9.0893  -8.8442  -8.8415  -8.5103  -4.7375  -4.7278  -4.7054
    -4.6981  -4.4807  -4.4800  -4.2185  -2.7812  -2.6994  -2.6857  -2.6708
    -2.6630  -2.4630  -2.4623  -2.4563  -2.4275  -2.2184  -1.2096  -0.4846
    -0.2694  -0.2511  -0.2392  -0.0404   0.1094   0.3109   0.4898   0.5581
     0.5870   0.7824   1.4017   1.4304   1.5021   1.6249   2.7366   2.7449
     3.1562   3.1853   3.8611   3.8749   5.5943   8.4159   8.4767   8.6552
     8.6877   9.1337   9.1737   9.7085  10.5048  10.8620  11.7622  11.9440

          k = 0.3594-0.2215-0.1075 (  7179 PWs)   bands (ev):

   -12.4879 -12.4390 -12.1581 -11.5134 -11.4524 -11.1898  -9.1474  -9.1315
    -9.0975  -9.0901  -8.8435  -8.8413  -8.5104  -4.7409  -4.7285  -4.7013
    -4.6972  -4.4815  -4.4802  -4.2182  -2.7851  -2.6988  -2.6895  -2.6715
    -2.6598  -2.4630  -2.4624  -2.4563  -2.4274  -2.2184  -1.0828  -0.6379
    -0.3149  -0.2674  -0.2395  -0.0410  -0.0393   0.4030   0.5580   0.5870
     0.7621   0.7824   1.3812   1.4017   1.4304   1.6249   2.7428   2.7573
     3.1475   3.1674   3.8618   3.8803   5.5982   8.4498   8.4979   8.5889
     8.6440   9.1825   9.1985   9.6672  10.4770  10.6734  11.7821  12.0185

          k = 0.3615-0.0308 0.0852 (  7200 PWs)   bands (ev):

   -12.7389 -12.6804 -12.4036 -10.7801 -10.7405 -10.4696 -10.3074 -10.2536
    -9.9990  -8.5231  -7.6385  -7.6066  -7.3825  -6.4421  -6.4118  -6.1879
    -4.5132  -3.9617  -3.9300  -3.7152  -3.5060  -3.4755  -3.2615  -3.0231
    -2.9947  -2.7855  -2.4189  -1.4412  -1.0156  -0.9880  -0.7883  -0.7687
    -0.3003  -0.2709  -0.2078  -0.0726   0.0898   0.5762   0.6041   0.7962
     0.9390   1.2820   1.3940   1.4690   1.4977   1.6913   2.0270   2.2612
     2.6774   4.0413   4.2014   4.8088   5.6700   7.1932   7.2664   7.6829
     8.8360   9.8395  10.0590  10.2390  10.4882  10.6116  10.8108  10.8898

          k = 0.3594-0.0517-0.0896 (  7197 PWs)   bands (ev):

   -12.7382 -12.6812 -12.4034 -10.7891 -10.7291 -10.4721 -10.3020 -10.2603
    -9.9975  -8.5231  -7.6388  -7.6063  -7.3826  -6.4438  -6.4098  -6.1882
    -4.5131  -3.9600  -3.9317  -3.7151  -3.5054  -3.4763  -3.2614  -3.0231
    -2.9946  -2.7855  -2.4201  -1.4325  -1.0156  -0.9880  -0.7883  -0.7753
    -0.3002  -0.2710  -0.2179  -0.0726   0.0986   0.5762   0.6040   0.7961
     0.8050   1.4682   1.4753   1.4976   1.5236   1.6913   1.8710   2.1617
     2.7435   3.9688   4.3643   4.6915   5.6962   7.2123   7.2482   7.6848
     8.8294   9.8723   9.9874  10.2424  10.5483  10.6433  10.7748  10.8123

          k = 0.3615 0.1390 0.1031 (  7186 PWs)   bands (ev):

   -12.6530 -12.6023 -12.3212 -11.1893 -11.1294 -10.8697  -9.7540  -9.7135
    -9.4523  -8.4978  -8.3620  -8.3004  -8.0985  -5.6324  -5.5962  -5.3751
    -4.9505  -4.3667  -4.3364  -4.1217  -3.0027  -2.9717  -2.9189  -2.8898
    -2.7575  -2.6812  -1.8721  -1.8270  -1.7804  -1.6073  -1.2008  -0.7625
    -0.5777   0.2227   0.2470   0.2495   0.2562   0.2746   0.3356   0.4521
     0.4687   1.1548   1.5169   1.5445   1.7156   1.7364   2.0636   2.4679
     3.2808   3.4866   3.8142   4.4345   6.0628   7.6552   7.7889   8.2201
     8.3387   9.2435   9.3899   9.8549  10.2744  10.7324  11.2475  11.5693

          k = 0.3594 0.1181-0.0717 (  7187 PWs)   bands (ev):

   -12.6586 -12.5952 -12.3228 -11.1812 -11.1397 -10.8676  -9.7602  -9.7056
    -9.4540  -8.4988  -8.3561  -8.3056  -8.0980  -5.6298  -5.5993  -5.3745
    -4.9504  -4.3663  -4.3368  -4.1216  -3.0026  -2.9718  -2.9189  -2.8898
    -2.7575  -2.6812  -1.8633  -1.8207  -1.7583  -1.6072  -1.3776  -0.6185
    -0.4800   0.1246   0.2250   0.2472   0.2535   0.2747   0.4519   0.4686
     0.5386   0.8309   1.5169   1.5444   1.7364   1.8599   2.0130   2.5452
     3.2588   3.4938   3.7854   4.4581   6.0565   7.6232   7.8479   8.1362
     8.3905   9.2352   9.4131   9.8383  10.4446  10.7907  11.2601  11.5655

     the Fermi energy is     6.7373 ev

!    total energy              =    -298.07503228 Ry
     estimated scf accuracy    <       0.00000067 Ry
     smearing contrib. (-TS)   =      -0.00092376 Ry
     internal energy E=F+TS    =    -298.07410851 Ry

     The total energy is F=E-TS. E is the sum of the following terms:
     one-electron contribution =    -144.73805871 Ry
     hartree contribution      =     121.70318684 Ry
     xc contribution           =    -106.63690091 Ry
     ewald contribution        =    -168.40233573 Ry

     convergence has been achieved in  27 iterations

     Forces acting on atoms (cartesian axes, Ry/au):

     atom    1 type  1   force =    -0.00047641    0.00067721    0.00006676
     atom    2 type  1   force =    -0.00026120    0.00099591    0.00213740
     atom    3 type  1   force =    -0.00063003    0.00021016   -0.00201430
     atom    4 type  1   force =     0.00066223   -0.00080153    0.00034037
     atom    5 type  1   force =     0.00162450   -0.00004173   -0.00340661
     atom    6 type  1   force =     0.00090041    0.00132462   -0.00202880
     atom    7 type  1   force =    -0.00029907    0.00072917    0.00027532
     atom    8 type  1   force =    -0.00225715    0.00146492    0.00049882
     atom    9 type  1   force =     0.00099192    0.00255651   -0.00173360
     atom   10 type  1   force =     0.00041536   -0.00076555    0.00047792
     atom   11 type  1   force =     0.00037632   -0.00245082    0.00281256
     atom   12 type  1   force =    -0.00022393   -0.00031207   -0.00007847
     atom   13 type  1   force =    -0.00034060    0.00085466    0.00056636
     atom   14 type  1   force =    -0.00312987    0.00004340    0.00475182
     atom   15 type  1   force =    -0.00131805   -0.00128844   -0.00200717
     atom   16 type  1   force =     0.00055304   -0.00082794    0.00025496
     atom   17 type  1   force =     0.00469117    0.00225729    0.00202780
     atom   18 type  1   force =    -0.00035328   -0.00114182   -0.00253043
     atom   19 type  1   force =    -0.00033833    0.00061180    0.00024017
     atom   20 type  1   force =    -0.00147908   -0.00195474    0.00175058
     atom   21 type  1   force =    -0.00033037    0.00130559    0.00181923
     atom   22 type  1   force =     0.00063609   -0.00071141   -0.00015534
     atom   23 type  1   force =    -0.00039225    0.00054830   -0.00001409
     atom   24 type  1   force =    -0.00074449   -0.00300943   -0.00184711
     atom   25 type  2   force =     0.00533487   -0.00688913    0.00067777
     atom   26 type  2   force =     0.00373980    0.00149895   -0.00017056
     atom   27 type  2   force =    -0.01974334    0.00797421   -0.00317696
     atom   28 type  2   force =     0.02885895   -0.01880699    0.00384507
     atom   29 type  2   force =    -0.43873818   -0.21539483    0.08840971
     atom   30 type  2   force =    -0.05803452   -0.19969204    0.03858637
     atom   31 type  2   force =    -0.04411689    0.06780780   -0.00302617
     atom   32 type  2   force =     0.11378187    0.16271110   -0.00045675
     atom   33 type  2   force =     0.45385343    0.29937563   -0.12150299
     atom   34 type  2   force =    -0.04321293   -0.09885879   -0.00538964
     The non-local contrib.  to forces
     atom    1 type  1   force =    -0.00017313    0.00028700    0.00048281
     atom    2 type  1   force =     0.00040138   -0.00146331    0.02214755
     atom    3 type  1   force =     0.00298894   -0.00470543   -0.02474941
     atom    4 type  1   force =     0.00022209   -0.00017407    0.00027586
     atom    5 type  1   force =    -0.00030701    0.00067875    0.00962346
     atom    6 type  1   force =    -0.00081117   -0.00540609   -0.01782604
     atom    7 type  1   force =    -0.00008528    0.00041928    0.00074919
     atom    8 type  1   force =     0.00146167   -0.00071944    0.01849664
     atom    9 type  1   force =    -0.00269028   -0.00296642   -0.01805659
     atom   10 type  1   force =     0.00015036   -0.00025992    0.00051023
     atom   11 type  1   force =    -0.00112700    0.00579814    0.01976179
     atom   12 type  1   force =     0.00144510   -0.00340376   -0.01271456
     atom   13 type  1   force =    -0.00004627    0.00051906    0.00094511
     atom   14 type  1   force =    -0.00145136    0.00725912    0.03414222
     atom   15 type  1   force =    -0.00032597    0.00081088   -0.01805089
     atom   16 type  1   force =     0.00026352   -0.00049038    0.00048121
     atom   17 type  1   force =    -0.00394750    0.00294927    0.02502702
     atom   18 type  1   force =    -0.00377416   -0.00085132   -0.02629478
     atom   19 type  1   force =    -0.00007657    0.00008251    0.00044244
     atom   20 type  1   force =     0.00116187    0.00426661    0.01787042
     atom   21 type  1   force =    -0.00156773    0.00003412   -0.00863230
     atom   22 type  1   force =     0.00027773   -0.00011950    0.00025842
     atom   23 type  1   force =     0.00509096    0.00178448    0.02417551
     atom   24 type  1   force =     0.00203287   -0.00017903   -0.01847932
     atom   25 type  2   force =     0.02502463    0.05517057   -0.00776456
     atom   26 type  2   force =    -0.02173570   -0.05718205    0.00754522
     atom   27 type  2   force =     0.04733203   -0.02566446    0.00149340
     atom   28 type  2   force =    -0.05160739    0.03032168   -0.00333355
     atom   29 type  2   force =     0.08246011   -0.00379310   -0.01045431
     atom   30 type  2   force =    -0.01074343    0.04729512   -0.00487315
     atom   31 type  2   force =     0.07043045   -0.01303196   -0.00440774
     atom   32 type  2   force =    -0.06136870   -0.01901259   -0.00133315
     atom   33 type  2   force =    -0.05066537   -0.04052807    0.00933766
     atom   34 type  2   force =    -0.02411078    0.02102721    0.01251047
     The ionic contribution  to forces
     atom    1 type  1   force =    -0.00019785    0.00906964    0.07360805
     atom    2 type  1   force =     0.02093490    0.50702622    3.87497729
     atom    3 type  1   force =    -0.08825569   -0.43468023   -3.94815445
     atom    4 type  1   force =     0.00157534    0.00702335    0.06278814
     atom    5 type  1   force =     0.03160069    0.48890696    3.90044369
     atom    6 type  1   force =    -0.05375580   -0.45399910   -4.04989358
     atom    7 type  1   force =     0.00152254    0.00919495    0.07196646
     atom    8 type  1   force =     0.07515080    0.47727897    3.87421363
     atom    9 type  1   force =    -0.00870422   -0.46921113   -4.01439841
     atom   10 type  1   force =     0.00048990    0.00638307    0.06095102
     atom   11 type  1   force =     0.06013545    0.38857156    3.87169797
     atom   12 type  1   force =    -0.04545322   -0.48970681   -4.03656298
     atom   13 type  1   force =     0.00094769    0.00834077    0.06325894
     atom   14 type  1   force =     0.07536674    0.38730470    3.68321261
     atom   15 type  1   force =    -0.02821781   -0.52479182   -4.00496642
     atom   16 type  1   force =     0.00130795    0.00685235    0.06417132
     atom   17 type  1   force =     0.13749475    0.47350478    3.81122465
     atom   18 type  1   force =    -0.01054749   -0.48557788   -3.92250340
     atom   19 type  1   force =     0.00079197    0.00852523    0.06908992
     atom   20 type  1   force =     0.01637678    0.45312746    3.88369183
     atom   21 type  1   force =    -0.06742544   -0.48564534   -4.05153712
     atom   22 type  1   force =     0.00138024    0.00846603    0.07037454
     atom   23 type  1   force =    -0.04529332    0.48888312    3.75499665
     atom   24 type  1   force =    -0.08394680   -0.49083075   -4.02182160
     atom   25 type  2   force =    -0.33468097   -0.66659076    0.08720351
     atom   26 type  2   force =     0.27154233    0.73916347   -0.09683490
     atom   27 type  2   force =    -0.39461565    0.16614210    0.06427787
     atom   28 type  2   force =     0.74344530   -0.45296242    0.08766900
     atom   29 type  2   force =    -1.51131619   -0.21888508    0.21809995
     atom   30 type  2   force =    -0.04573991   -1.15892468    0.14579305
     atom   31 type  2   force =    -0.98142233    0.66425145    0.16790180
     atom   32 type  2   force =     1.00442237    0.71192066    0.12985564
     atom   33 type  2   force =     0.79014882    0.71317891   -0.08985663
     atom   34 type  2   force =     0.46493814   -0.39130973    0.14506197
     The local contribution  to forces
     atom    1 type  1   force =    -0.00012142   -0.00868849   -0.07410543
     atom    2 type  1   force =    -0.02151134   -0.50469461   -3.89515874
     atom    3 type  1   force =     0.08474309    0.43959108    3.97117468
     atom    4 type  1   force =    -0.00113770   -0.00766937   -0.06288546
     atom    5 type  1   force =    -0.02966164   -0.48972559   -3.91377541
     atom    6 type  1   force =     0.05550749    0.46066109    4.06595886
     atom    7 type  1   force =    -0.00173031   -0.00888606   -0.07251516
     atom    8 type  1   force =    -0.07890535   -0.47516359   -3.89240731
     atom    9 type  1   force =     0.01231798    0.47478726    4.03104062
     atom   10 type  1   force =    -0.00021903   -0.00691187   -0.06114268
     atom   11 type  1   force =    -0.05870120   -0.39676434   -3.88886108
     atom   12 type  1   force =     0.04374388    0.49282985    4.04949556
     atom   13 type  1   force =    -0.00124575   -0.00800712   -0.06373543
     atom   14 type  1   force =    -0.07709640   -0.39443349   -3.71273944
     atom   15 type  1   force =     0.02719675    0.52277955    4.02134075
     atom   16 type  1   force =    -0.00101567   -0.00722892   -0.06454098
     atom   17 type  1   force =    -0.12899529   -0.47419179   -3.83437067
     atom   18 type  1   force =     0.01386169    0.48541263    3.94652359
     atom   19 type  1   force =    -0.00105655   -0.00800404   -0.06939158
     atom   20 type  1   force =    -0.01898119   -0.45936572   -3.90005819
     atom   21 type  1   force =     0.06870787    0.48693505    4.06238467
     atom   22 type  1   force =    -0.00101700   -0.00907406   -0.07093672
     atom   23 type  1   force =     0.03995880   -0.49015280   -3.77938686
     atom   24 type  1   force =     0.08125550    0.48805599    4.03872373
     atom   25 type  2   force =     0.31500478    0.60454544   -0.07873519
     atom   26 type  2   force =    -0.24606177   -0.68051643    0.08915149
     atom   27 type  2   force =     0.32760980   -0.13252687   -0.06891822
     atom   28 type  2   force =    -0.66295302    0.40382400   -0.08046031
     atom   29 type  2   force =     0.99003877    0.00729257   -0.11920270
     atom   30 type  2   force =    -0.00159855    0.91189261   -0.10229456
     atom   31 type  2   force =     0.86686369   -0.58335179   -0.16650622
     atom   32 type  2   force =    -0.82925696   -0.53014945   -0.12896262
     atom   33 type  2   force =    -0.28566495   -0.37323756   -0.04096343
     atom   34 type  2   force =    -0.48401688    0.27146330   -0.16295323
     The core correction contribution to forces
     atom    1 type  1   force =     0.00001207   -0.00001126   -0.00004977
     atom    2 type  1   force =     0.00000875    0.00005253   -0.00019155
     atom    3 type  1   force =    -0.00003333    0.00004276    0.00017521
     atom    4 type  1   force =    -0.00001018    0.00000797    0.00002804
     atom    5 type  1   force =     0.00003356   -0.00001943   -0.00005342
     atom    6 type  1   force =     0.00003388    0.00008399    0.00018268
     atom    7 type  1   force =     0.00000728   -0.00001647   -0.00005195
     atom    8 type  1   force =    -0.00008333    0.00003569   -0.00018022
     atom    9 type  1   force =     0.00003000    0.00004935    0.00013782
     atom   10 type  1   force =    -0.00000448    0.00001141    0.00002772
     atom   11 type  1   force =     0.00003708   -0.00007529   -0.00019802
     atom   12 type  1   force =    -0.00004832    0.00004908    0.00016296
     atom   13 type  1   force =     0.00000670   -0.00001759   -0.00003247
     atom   14 type  1   force =     0.00000534   -0.00006125   -0.00028770
     atom   15 type  1   force =    -0.00000554   -0.00002551    0.00014907
     atom   16 type  1   force =    -0.00000906    0.00001720    0.00001901
     atom   17 type  1   force =     0.00005211   -0.00001564   -0.00023434
     atom   18 type  1   force =     0.00004423   -0.00000310    0.00022399
     atom   19 type  1   force =     0.00000700   -0.00000398   -0.00003708
     atom   20 type  1   force =    -0.00001714   -0.00007693   -0.00012652
     atom   21 type  1   force =     0.00002898   -0.00001917    0.00005377
     atom   22 type  1   force =    -0.00001193    0.00000245    0.00001043
     atom   23 type  1   force =    -0.00005124   -0.00001271   -0.00018722
     atom   24 type  1   force =    -0.00003332   -0.00003620    0.00018564
     atom   25 type  2   force =     0.00000000    0.00000000    0.00000000
     atom   26 type  2   force =     0.00000000    0.00000000    0.00000000
     atom   27 type  2   force =     0.00000000    0.00000000    0.00000000
     atom   28 type  2   force =     0.00000000    0.00000000    0.00000000
     atom   29 type  2   force =     0.00000000    0.00000000    0.00000000
     atom   30 type  2   force =     0.00000000    0.00000000    0.00000000
     atom   31 type  2   force =     0.00000000    0.00000000    0.00000000
     atom   32 type  2   force =     0.00000000    0.00000000    0.00000000
     atom   33 type  2   force =     0.00000000    0.00000000    0.00000000
     atom   34 type  2   force =     0.00000000    0.00000000    0.00000000
     The Hubbard contrib.    to forces
     atom    1 type  1   force =     0.00000000    0.00000000    0.00000000
     atom    2 type  1   force =     0.00000000    0.00000000    0.00000000
     atom    3 type  1   force =     0.00000000    0.00000000    0.00000000
     atom    4 type  1   force =     0.00000000    0.00000000    0.00000000
     atom    5 type  1   force =     0.00000000    0.00000000    0.00000000
     atom    6 type  1   force =     0.00000000    0.00000000    0.00000000
     atom    7 type  1   force =     0.00000000    0.00000000    0.00000000
     atom    8 type  1   force =     0.00000000    0.00000000    0.00000000
     atom    9 type  1   force =     0.00000000    0.00000000    0.00000000
     atom   10 type  1   force =     0.00000000    0.00000000    0.00000000
     atom   11 type  1   force =     0.00000000    0.00000000    0.00000000
     atom   12 type  1   force =     0.00000000    0.00000000    0.00000000
     atom   13 type  1   force =     0.00000000    0.00000000    0.00000000
     atom   14 type  1   force =     0.00000000    0.00000000    0.00000000
     atom   15 type  1   force =     0.00000000    0.00000000    0.00000000
     atom   16 type  1   force =     0.00000000    0.00000000    0.00000000
     atom   17 type  1   force =     0.00000000    0.00000000    0.00000000
     atom   18 type  1   force =     0.00000000    0.00000000    0.00000000
     atom   19 type  1   force =     0.00000000    0.00000000    0.00000000
     atom   20 type  1   force =     0.00000000    0.00000000    0.00000000
     atom   21 type  1   force =     0.00000000    0.00000000    0.00000000
     atom   22 type  1   force =     0.00000000    0.00000000    0.00000000
     atom   23 type  1   force =     0.00000000    0.00000000    0.00000000
     atom   24 type  1   force =     0.00000000    0.00000000    0.00000000
     atom   25 type  2   force =     0.00000000    0.00000000    0.00000000
     atom   26 type  2   force =     0.00000000    0.00000000    0.00000000
     atom   27 type  2   force =     0.00000000    0.00000000    0.00000000
     atom   28 type  2   force =     0.00000000    0.00000000    0.00000000
     atom   29 type  2   force =     0.00000000    0.00000000    0.00000000
     atom   30 type  2   force =     0.00000000    0.00000000    0.00000000
     atom   31 type  2   force =     0.00000000    0.00000000    0.00000000
     atom   32 type  2   force =     0.00000000    0.00000000    0.00000000
     atom   33 type  2   force =     0.00000000    0.00000000    0.00000000
     atom   34 type  2   force =     0.00000000    0.00000000    0.00000000
     The SCF correction term to forces
     atom    1 type  1   force =     0.00000440    0.00002027    0.00013225
     atom    2 type  1   force =    -0.00009442    0.00007502    0.00036400
     atom    3 type  1   force =    -0.00007257   -0.00003808   -0.00045920
     atom    4 type  1   force =     0.00001316    0.00001054    0.00013492
     atom    5 type  1   force =    -0.00004063    0.00011753    0.00035621
     atom    6 type  1   force =    -0.00007353   -0.00001532   -0.00044958
     atom    7 type  1   force =    -0.00001283    0.00001743    0.00012791
     atom    8 type  1   force =     0.00011954    0.00003324    0.00037721
     atom    9 type  1   force =     0.00003891   -0.00010260   -0.00045590
     atom   10 type  1   force =    -0.00000092    0.00001172    0.00013277
     atom   11 type  1   force =     0.00003246    0.00001906    0.00041304
     atom   12 type  1   force =     0.00008911   -0.00008048   -0.00045831
     atom   13 type  1   force =    -0.00000249    0.00001948    0.00013133
     atom   14 type  1   force =     0.00004629   -0.00002573    0.00042526
     atom   15 type  1   force =     0.00003500   -0.00006159   -0.00047854
     atom   16 type  1   force =     0.00000679    0.00002176    0.00012554
     atom   17 type  1   force =     0.00008757    0.00001062    0.00038227
     atom   18 type  1   force =     0.00006291   -0.00012220   -0.00047868
     atom   19 type  1   force =    -0.00000370    0.00001203    0.00013761
     atom   20 type  1   force =    -0.00001892    0.00009379    0.00037417
     atom   21 type  1   force =    -0.00007359    0.00000088   -0.00044865
     atom   22 type  1   force =     0.00000752    0.00001362    0.00013913
     atom   23 type  1   force =    -0.00009697    0.00004618    0.00038897
     atom   24 type  1   force =    -0.00005227   -0.00001948   -0.00045443
     atom   25 type  2   force =    -0.00001310   -0.00001443   -0.00002486
     atom   26 type  2   force =    -0.00000458    0.00003391   -0.00003122
     atom   27 type  2   force =    -0.00006905    0.00002339   -0.00002888
     atom   28 type  2   force =    -0.00002547    0.00000970   -0.00002892
     atom   29 type  2   force =     0.00007961   -0.00000927   -0.00003209
     atom   30 type  2   force =     0.00004785    0.00004485   -0.00003783
     atom   31 type  2   force =     0.00001178   -0.00005995   -0.00001288
     atom   32 type  2   force =    -0.00001438   -0.00004757   -0.00001549
     atom   33 type  2   force =     0.00003540   -0.00003770   -0.00001945
     atom   34 type  2   force =    -0.00002292   -0.00003962   -0.00000771

     Total force =     0.813257     Total SCF correction =     0.001793


     Computing stress (Cartesian axis) and pressure

          total   stress  (Ry/bohr**3)                   (kbar)     P=       50.40
   0.00040573   0.00028556  -0.00005140           59.69       42.01       -7.56
   0.00028556   0.00068119  -0.00010662           42.01      100.21      -15.68
  -0.00005140  -0.00010662  -0.00005906           -7.56      -15.68       -8.69


     BFGS Geometry Optimization
     Energy error            =      0.0E+00 Ry
     Gradient error          =      4.5E-01 Ry/Bohr
     Cell gradient error     =      1.0E+02 kbar

     number of scf cycles    =   1
     number of bfgs steps    =   0

     enthalpy           new  =    -298.0750322766 Ry

     new trust radius        =       0.5000000000 bohr
     new conv_thr            =       0.0000010000 Ry

     new unit-cell volume =   1721.70129 a.u.^3 (   255.12981 Ang^3 )
     density =      1.94179 g/cm^3

CELL_PARAMETERS (alat=  8.00000437)
   1.166465329   0.008922507  -0.015421258
  -0.579383904   1.005107793  -0.113458810
  -0.022848034  -0.316797395   2.893852806

ATOMIC_POSITIONS (crystal)
C            -0.0617752750       -0.0964384140        0.1615668437
C             0.0374614976        0.0870144443        0.4370900101
C             0.0341370664        0.0375259547        0.8880285457
C             0.1048475318        0.2366468152        0.1614305214
C             0.3708885535        0.2535459599        0.4369274276
C             0.2009916797        0.3709603527        0.8879996046
C             0.4382322510       -0.0964430372        0.1615621760
C             0.5372369161        0.0870479363        0.4370327066
C             0.5343990784        0.0378052993        0.8880450101
C             0.6048327546        0.2366479651        0.1614227921
C             0.8706885226        0.2533064095        0.4371276756
C             0.7007719689        0.3708164749        0.8880687169
C            -0.0617910702        0.4035202778        0.1614964815
C             0.0371560229        0.5868678395        0.4371780419
C             0.0339924649        0.5373975611        0.8880618301
C             0.1048520579        0.7366701550        0.1614541390
C             0.3713201630        0.7538308891        0.4371406309
C             0.2007401919        0.8706658338        0.8879682954
C             0.4382149593        0.4035300974        0.1615268018
C             0.5371865476        0.5866834825        0.4370946353
C             0.5342171536        0.5377191738        0.8881964290
C             0.6048735962        0.7367009583        0.1614955865
C             0.8707685421        0.7536259519        0.4370831074
C             0.7005787718        0.8704828770        0.8879929085
H             0.7147593798        0.9763825393        0.6640027818
H             0.8601125934        1.1458245374        0.6633645782
H             0.2381102595        0.6071584954        0.6615059746
H             0.3299968799        0.5105064332        0.6620495755
H             0.7664857090        0.6287251205        0.6667188967
H             0.7373252455        0.4497892827        0.6650393184
H             0.2012222524        0.0517124063        0.6578784654
H             0.3919174406        0.0902761220        0.6593325264
H             0.0179595625        0.7633010025        0.6559227617
H             0.1821365601        0.8326131085        0.6395592668



     Writing config-only to output data dir ../../results/server/5h2_abs/5H2abs_C.save/
     NEW-OLD atomic charge density approx. for the potential

     Check: negative core charge=   -0.000002
     extrapolated charge  108.39542, renormalised to  106.00000

     total cpu time spent up to now is       34.6 secs

     Self-consistent Calculation

     iteration #  1     ecut=    40.00 Ry     beta= 0.05
     Davidson diagonalization with overlap
     c_bands:  2 eigenvalues not converged
     c_bands:  1 eigenvalues not converged
     c_bands:  2 eigenvalues not converged
     c_bands:  3 eigenvalues not converged
     c_bands:  3 eigenvalues not converged
     c_bands:  3 eigenvalues not converged
     c_bands:  3 eigenvalues not converged
     c_bands:  2 eigenvalues not converged
     c_bands:  1 eigenvalues not converged
     c_bands:  1 eigenvalues not converged
     c_bands:  2 eigenvalues not converged
     c_bands:  2 eigenvalues not converged
     c_bands:  5 eigenvalues not converged
     c_bands:  5 eigenvalues not converged
     c_bands:  4 eigenvalues not converged
     c_bands:  4 eigenvalues not converged
     ethr =  1.00E-06,  avg # of iterations = 20.0

     total cpu time spent up to now is       39.9 secs

     total energy              =    -298.19155507 Ry
     estimated scf accuracy    <       0.80377359 Ry

     iteration #  2     ecut=    40.00 Ry     beta= 0.05
     Davidson diagonalization with overlap
     ethr =  7.58E-04,  avg # of iterations =  2.9

     total cpu time spent up to now is       40.8 secs

     total energy              =    -298.31750381 Ry
     estimated scf accuracy    <       0.14573967 Ry

     iteration #  3     ecut=    40.00 Ry     beta= 0.05
     Davidson diagonalization with overlap
     c_bands:  2 eigenvalues not converged
     ethr =  1.37E-04,  avg # of iterations =  6.9

     total cpu time spent up to now is       42.3 secs

     total energy              =    -298.29362031 Ry
     estimated scf accuracy    <       0.12443351 Ry

     iteration #  4     ecut=    40.00 Ry     beta= 0.05
     Davidson diagonalization with overlap
     ethr =  1.17E-04,  avg # of iterations =  2.4

     total cpu time spent up to now is       43.2 secs

     total energy              =    -298.28934972 Ry
     estimated scf accuracy    <       0.04309475 Ry

     iteration #  5     ecut=    40.00 Ry     beta= 0.05
     Davidson diagonalization with overlap
     c_bands:  2 eigenvalues not converged
     ethr =  4.07E-05,  avg # of iterations = 10.4

     total cpu time spent up to now is       45.1 secs

     total energy              =    -298.29203643 Ry
     estimated scf accuracy    <       0.01682413 Ry

     iteration #  6     ecut=    40.00 Ry     beta= 0.05
     Davidson diagonalization with overlap
     ethr =  1.59E-05,  avg # of iterations =  6.6

     total cpu time spent up to now is       46.7 secs

     total energy              =    -298.29198980 Ry
     estimated scf accuracy    <       0.01331457 Ry

     iteration #  7     ecut=    40.00 Ry     beta= 0.05
     Davidson diagonalization with overlap
     ethr =  1.26E-05,  avg # of iterations =  1.1

     total cpu time spent up to now is       47.4 secs

     total energy              =    -298.28998503 Ry
     estimated scf accuracy    <       0.01028575 Ry

     iteration #  8     ecut=    40.00 Ry     beta= 0.05
     Davidson diagonalization with overlap
     ethr =  9.70E-06,  avg # of iterations =  5.4

     total cpu time spent up to now is       48.7 secs

     total energy              =    -298.29073482 Ry
     estimated scf accuracy    <       0.00307322 Ry

     iteration #  9     ecut=    40.00 Ry     beta= 0.05
     Davidson diagonalization with overlap
     ethr =  2.90E-06,  avg # of iterations =  7.4

     total cpu time spent up to now is       50.3 secs

     total energy              =    -298.29070224 Ry
     estimated scf accuracy    <       0.00304203 Ry

     iteration # 10     ecut=    40.00 Ry     beta= 0.05
     Davidson diagonalization with overlap
     ethr =  2.87E-06,  avg # of iterations =  1.5

     total cpu time spent up to now is       51.1 secs

     total energy              =    -298.28997068 Ry
     estimated scf accuracy    <       0.00247925 Ry

     iteration # 11     ecut=    40.00 Ry     beta= 0.05
     Davidson diagonalization with overlap
     ethr =  2.34E-06,  avg # of iterations =  9.2

     total cpu time spent up to now is       52.9 secs

     total energy              =    -298.29022097 Ry
     estimated scf accuracy    <       0.00052540 Ry

     iteration # 12     ecut=    40.00 Ry     beta= 0.05
     Davidson diagonalization with overlap
     ethr =  4.96E-07,  avg # of iterations =  2.0

     total cpu time spent up to now is       53.6 secs

     total energy              =    -298.29010701 Ry
     estimated scf accuracy    <       0.00060492 Ry

     iteration # 13     ecut=    40.00 Ry     beta= 0.05
     Davidson diagonalization with overlap
     ethr =  4.96E-07,  avg # of iterations =  2.1

     total cpu time spent up to now is       54.5 secs

     total energy              =    -298.29013257 Ry
     estimated scf accuracy    <       0.00016616 Ry

     iteration # 14     ecut=    40.00 Ry     beta= 0.05
     Davidson diagonalization with overlap
     ethr =  1.57E-07,  avg # of iterations =  4.8

     total cpu time spent up to now is       55.8 secs

     total energy              =    -298.29014620 Ry
     estimated scf accuracy    <       0.00011673 Ry

     iteration # 15     ecut=    40.00 Ry     beta= 0.05
     Davidson diagonalization with overlap
     ethr =  1.10E-07,  avg # of iterations =  2.5

     total cpu time spent up to now is       56.7 secs

     total energy              =    -298.29013554 Ry
     estimated scf accuracy    <       0.00011437 Ry

     iteration # 16     ecut=    40.00 Ry     beta= 0.05
     Davidson diagonalization with overlap
     ethr =  1.08E-07,  avg # of iterations =  2.0

     total cpu time spent up to now is       57.4 secs

     total energy              =    -298.29012280 Ry
     estimated scf accuracy    <       0.00005436 Ry

     iteration # 17     ecut=    40.00 Ry     beta= 0.05
     Davidson diagonalization with overlap
     ethr =  5.13E-08,  avg # of iterations =  2.0

     total cpu time spent up to now is       58.3 secs

     total energy              =    -298.29012986 Ry
     estimated scf accuracy    <       0.00002898 Ry

     iteration # 18     ecut=    40.00 Ry     beta= 0.05
     Davidson diagonalization with overlap
     ethr =  2.73E-08,  avg # of iterations =  1.1

     total cpu time spent up to now is       59.0 secs

     total energy              =    -298.29013162 Ry
     estimated scf accuracy    <       0.00001280 Ry

     iteration # 19     ecut=    40.00 Ry     beta= 0.05
     Davidson diagonalization with overlap
     ethr =  1.21E-08,  avg # of iterations =  1.7

     total cpu time spent up to now is       59.7 secs

     total energy              =    -298.29012697 Ry
     estimated scf accuracy    <       0.00000912 Ry

     iteration # 20     ecut=    40.00 Ry     beta= 0.05
     Davidson diagonalization with overlap
     ethr =  8.60E-09,  avg # of iterations =  2.1

     total cpu time spent up to now is       60.5 secs

     total energy              =    -298.29012927 Ry
     estimated scf accuracy    <       0.00000119 Ry

     iteration # 21     ecut=    40.00 Ry     beta= 0.05
     Davidson diagonalization with overlap
     ethr =  1.12E-09,  avg # of iterations =  4.2

     total cpu time spent up to now is       61.8 secs

     End of self-consistent calculation

          k = 0.0717 0.1358 0.1018 (  7200 PWs)   bands (ev):

   -13.5523 -13.4568 -13.2801  -9.3398  -9.3279  -9.2666  -9.2581  -9.1348
    -9.1234  -8.1588  -8.0971  -8.0048  -7.3990  -7.3645  -7.2613  -6.6533
    -6.4635  -6.4608  -6.4029  -6.3942  -6.2950  -6.2929  -2.5458  -1.9480
    -1.5047  -1.4185  -1.3662  -1.3111  -0.7236  -0.7180  -0.7107  -0.6827
    -0.6756  -0.6222  -0.6117   0.0363   0.2505   2.0831   2.1508   2.1732
     2.2582   2.2971   2.3354   2.3551   2.4260   2.6348   2.7165   3.0961
     3.1884   3.2133   3.4316   3.8620   4.3363   6.8890   7.1880   7.5170
     7.5602   7.5967   7.7343   7.8917   7.9978   8.2576   8.3240   9.3673

          k = 0.0696 0.1148-0.0733 (  7195 PWs)   bands (ev):

   -13.5551 -13.4519 -13.2822  -9.3364  -9.3296  -9.2714  -9.2561  -9.1328
    -9.1243  -8.1593  -8.0961  -8.0052  -7.4031  -7.3592  -7.2626  -6.6525
    -6.4632  -6.4605  -6.4037  -6.3947  -6.2946  -6.2927  -2.5551  -2.0426
    -1.4188  -1.3670  -1.3114  -1.2544  -0.8649  -0.7213  -0.7122  -0.6828
    -0.6760  -0.6222  -0.6117   0.0326   0.2472   2.0831   2.1509   2.1732
     2.2656   2.2961   2.3353   2.3551   2.4260   2.6615   2.7024   3.1209
     3.1588   3.2227   3.3695   3.9010   4.3396   6.8362   7.2705   7.5104
     7.5359   7.6006   7.7950   7.8251   7.9865   8.2329   8.3528   9.3883

          k = 0.0707 0.3030 0.1201 (  7184 PWs)   bands (ev):

   -13.1492 -13.0593 -12.8835 -10.7648 -10.6816 -10.5337  -9.8346  -9.7550
    -9.6180  -8.4391  -8.3688  -8.2440  -6.5291  -6.4826  -6.3857  -6.3287
    -5.3566  -5.2990  -5.2009  -4.4617  -4.4069  -4.3104  -2.6183  -2.5692
    -2.4983  -2.4771  -1.7489  -1.4917  -1.4544  -1.4105  -1.3813  -0.5706
    -0.3235  -0.3116  -0.2841  -0.2256   0.2734   0.7400   0.7932   0.8112
     0.8415   1.5095   1.5920   1.6228   1.6845   1.8109   2.1395   2.4749
     2.9729   3.2124   3.6079   4.1389   5.3314   7.0499   7.2549   7.5858
     8.3147   8.4417   8.8318   9.0070   9.4351   9.6964   9.9700  10.2060

          k = 0.0686 0.2820-0.0550 (  7208 PWs)   bands (ev):

   -13.1542 -13.0507 -12.8872 -10.7638 -10.6834 -10.5330  -9.8315  -9.7600
    -9.6160  -8.4377  -8.3710  -8.2432  -6.5298  -6.4807  -6.3864  -6.3282
    -5.3562  -5.2998  -5.2006  -4.4607  -4.4085  -4.3098  -2.6190  -2.5672
    -2.4979  -2.4067  -2.0585  -1.4920  -1.4541  -1.3815  -0.9920  -0.5730
    -0.4766  -0.3235  -0.2843  -0.2256   0.2417   0.7400   0.7944   0.8396
     0.8484   1.4429   1.5920   1.6229   1.6845   1.9011   2.1729   2.3178
     3.0383   3.2223   3.5984   4.1378   5.3361   7.0483   7.2650   7.5740
     8.3044   8.5518   8.6842   9.0623   9.4662   9.7430  10.0661  10.4878

          k = 0.0697 0.4703 0.1384 (  7198 PWs)   bands (ev):

   -12.4294 -12.3437 -12.1746 -11.9449 -11.8506 -11.6959 -10.0403  -9.9609
    -9.8196  -8.6726  -8.6042  -8.4735  -6.2439  -5.4046  -5.3673  -5.2897
    -4.2669  -4.2241  -4.1508  -3.7641  -3.7185  -3.6564  -2.7479  -2.5351
    -2.4942  -2.4283  -2.3157  -2.2687  -2.1882  -1.2108  -1.1628  -1.1244
    -1.0914  -0.8682  -0.6049  -0.5448   0.1080   0.3458   0.3853   0.4232
     0.4438   0.6199   0.7109   0.7468   0.8065   0.8696   1.6412   2.3188
     2.9039   3.1583   3.6201   4.2124   6.0228   7.3403   7.4854   7.7869
     8.9255   9.0643   9.3666   9.7998  10.7513  11.1061  11.6447  11.8262

          k = 0.0675 0.4493-0.0367 (  7187 PWs)   bands (ev):

   -12.4341 -12.3357 -12.1779 -11.9411 -11.8570 -11.6933 -10.0388  -9.9633
    -9.8187  -8.6729  -8.6037  -8.4737  -6.2436  -5.4051  -5.3666  -5.2900
    -4.2666  -4.2246  -4.1507  -3.7646  -3.7176  -3.6568  -2.7415  -2.5353
    -2.4936  -2.4285  -2.3158  -2.2687  -2.1882  -1.2148  -1.2056  -1.1597
    -1.0915  -1.0171  -0.3805  -0.2733   0.0444   0.2716   0.3457   0.3757
     0.3868   0.4421   0.7110   0.7468   0.8066   1.0527   1.6955   2.2183
     2.9538   3.1507   3.6316   4.2087   6.0215   7.3401   7.5046   7.7679
     8.9207   9.0828   9.3520   9.8005  10.9944  11.1563  11.7360  11.8076

          k = 0.0749-0.3661 0.0469 (  7201 PWs)   bands (ev):

   -12.8252 -12.7236 -12.5630 -11.4027 -11.3199 -11.1627  -9.9408  -9.8649
    -9.7213  -8.6371  -8.5739  -8.4440  -6.3311  -5.9852  -5.9285  -5.8365
    -4.6337  -4.5912  -4.4957  -3.3599  -3.3093  -3.2192  -3.1160  -3.0740
    -2.9917  -2.5048  -2.2317  -2.1793  -2.1164  -1.6724  -1.0871  -0.3871
    -0.2265  -0.1833  -0.1602  -0.1171  -0.0549  -0.0171   0.0428   0.0556
     0.3143   0.7281   1.1950   1.2368   1.2878   1.5824   1.7746   2.3385
     3.0287   3.1459   3.5268   4.0303   5.5615   7.3032   7.4029   7.7443
     8.6660   8.9046   9.1756   9.7098  10.5852  10.8410  10.8847  11.0563

          k = 0.0727-0.3871-0.1282 (  7185 PWs)   bands (ev):

   -12.8200 -12.7325 -12.5593 -11.4050 -11.3160 -11.1643  -9.9417  -9.8633
    -9.7219  -8.6390  -8.5708  -8.4452  -6.3318  -5.9849  -5.9287  -5.8366
    -4.6336  -4.5913  -4.4957  -3.3607  -3.3080  -3.2197  -3.1147  -3.0759
    -2.9910  -2.5305  -2.2310  -2.1805  -2.1159  -1.4962  -1.0444  -0.8562
    -0.2264  -0.1827  -0.1192  -0.0550  -0.0175   0.0329   0.0438   0.1130
     0.2470   0.9353   1.1950   1.2368   1.2877   1.4795   1.7531   2.3773
     3.0105   3.1294   3.5320   4.0500   5.5500   7.2685   7.4618   7.7246
     8.6942   8.8193   9.2476   9.6818  10.3689  10.5903  10.7293  11.2517

          k = 0.0738-0.1988 0.0652 (  7204 PWs)   bands (ev):

   -13.3902 -13.2865 -13.1196 -10.0907 -10.0130  -9.8707  -9.5386  -9.4673
    -9.3249  -8.3949  -8.3499  -8.2410  -7.0715  -7.0236  -6.9322  -6.5624
    -5.8225  -5.7700  -5.6599  -5.4626  -5.4064  -5.3005  -2.3720  -2.0229
    -1.7588  -1.7211  -1.6464  -1.2520  -1.1997  -1.1452  -1.1067  -0.7806
    -0.5807  -0.5421  -0.4815  -0.4532   0.3212   1.5065   1.5390   1.5499
     1.6012   2.0229   2.0708   2.1112   2.1418   2.1519   2.6043   2.7206
     3.0582   3.2748   3.3408   3.6618   4.6292   7.0337   7.3448   7.4721
     7.8915   8.0085   8.4171   8.5992   8.7066   8.8833   9.1685   9.9160

          k = 0.0717-0.2198-0.1099 (  7193 PWs)   bands (ev):

   -13.3862 -13.2934 -13.1167 -10.0903 -10.0137  -9.8704  -9.5414  -9.4627
    -9.3268  -8.3972  -8.3466  -8.2421  -7.0699  -7.0261  -6.9313  -6.5634
    -5.8226  -5.7699  -5.6598  -5.4638  -5.4045  -5.3012  -2.3966  -1.8064
    -1.7585  -1.7210  -1.6463  -1.4896  -1.2517  -1.1993  -1.1446  -0.6744
    -0.5799  -0.5414  -0.4813  -0.3612   0.3227   1.5067   1.5457   1.5666
     1.6012   2.0228   2.0705   2.0877   2.1093   2.1114   2.6799   2.7450
     3.0982   3.2411   3.2754   3.6957   4.6318   7.1336   7.2031   7.5162
     7.8119   8.1623   8.3814   8.4408   8.6913   8.9975   9.2100   9.7287

          k = 0.0728-0.0315 0.0835 (  7203 PWs)   bands (ev):

[...]
     atom   29 type  2   force =     0.04690322   -0.04079188    0.01013316
     atom   30 type  2   force =    -0.04707610    0.04053782   -0.01034027
     atom   31 type  2   force =     0.05613143    0.02776012    0.00769083
     atom   32 type  2   force =    -0.05611342   -0.02748559   -0.00763057
     atom   33 type  2   force =     0.04036967    0.04539098   -0.01924572
     atom   34 type  2   force =    -0.03984765   -0.04563891    0.01943988
     The ionic contribution  to forces
     atom    1 type  1   force =     0.00091804    0.05139652    0.41328195
     atom    2 type  1   force =     0.08244927    1.17527408    9.47164697
     atom    3 type  1   force =    -0.11711709   -1.00436541   -8.89739480
     atom    4 type  1   force =     0.00682320    0.04464254    0.39099963
     atom    5 type  1   force =     0.03085835    1.14096149    9.55986002
     atom    6 type  1   force =    -0.11884084   -1.09349193   -8.95038248
     atom    7 type  1   force =    -0.00069836    0.05047008    0.41168104
     atom    8 type  1   force =     0.02463880    1.12511235    9.43460015
     atom    9 type  1   force =     0.02275917   -1.05724935   -8.94685674
     atom   10 type  1   force =     0.00182808    0.04368700    0.38909250
     atom   11 type  1   force =     0.07299952    1.05250312    9.30956272
     atom   12 type  1   force =     0.02111301   -1.12602035   -8.90113332
     atom   13 type  1   force =     0.00094853    0.04642147    0.38228629
     atom   14 type  1   force =     0.08826740    1.08068114    9.08011068
     atom   15 type  1   force =    -0.01050620   -1.14220391   -8.88567055
     atom   16 type  1   force =     0.00514830    0.04844461    0.38655252
     atom   17 type  1   force =     0.10940020    1.14260421    9.36925971
     atom   18 type  1   force =    -0.01281531   -1.05152940   -8.78766007
     atom   19 type  1   force =    -0.00006731    0.05031506    0.41657889
     atom   20 type  1   force =     0.01342275    1.09812780    9.45124176
     atom   21 type  1   force =    -0.08811296   -1.05371327   -8.82239985
     atom   22 type  1   force =     0.00428845    0.04729843    0.40852246
     atom   23 type  1   force =    -0.00747092    1.15530491    9.24550288
     atom   24 type  1   force =    -0.08714831   -0.98974469   -8.94649961
     atom   25 type  2   force =    -0.45257307   -0.65567366    0.36348401
     atom   26 type  2   force =     0.45762081    0.69804303    0.19673350
     atom   27 type  2   force =    -0.45957906    0.33727758   -1.57903488
     atom   28 type  2   force =     0.54070294   -0.73402246   -1.41187295
     atom   29 type  2   force =    -0.67487009    0.32238122   -2.07528196
     atom   30 type  2   force =     0.58248289   -0.82996416   -1.89318005
     atom   31 type  2   force =    -0.76587035   -0.47631812   -1.75248539
     atom   32 type  2   force =     0.74542362    0.13827859   -1.79829398
     atom   33 type  2   force =    -0.58403272   -0.48692374    1.57446868
     atom   34 type  2   force =     0.56760926    0.85199521    1.39268027
     The local contribution  to forces
     atom    1 type  1   force =    -0.00041723   -0.05163637   -0.41335166
     atom    2 type  1   force =    -0.08544665   -1.17747621   -9.47286308
     atom    3 type  1   force =     0.11990706    1.00282579    8.89566779
     atom    4 type  1   force =    -0.00725030   -0.04443142   -0.39069100
     atom    5 type  1   force =    -0.03076744   -1.14115927   -9.56585027
     atom    6 type  1   force =     0.12056430    1.09339702    8.94983797
     atom    7 type  1   force =     0.00118558   -0.05068510   -0.41168905
     atom    8 type  1   force =    -0.02195679   -1.12499069   -9.43793005
     atom    9 type  1   force =    -0.02533747    1.05521359    8.94645404
     atom   10 type  1   force =    -0.00216048   -0.04331266   -0.38864371
     atom   11 type  1   force =    -0.07253651   -1.04854104   -9.30498573
     atom   12 type  1   force =    -0.02352764    1.12685408    8.90240749
     atom   13 type  1   force =    -0.00050330   -0.04647907   -0.38112628
     atom   14 type  1   force =    -0.09100493   -1.08029863   -9.06912863
     atom   15 type  1   force =     0.01126697    1.14510672    8.88539623
     atom   16 type  1   force =    -0.00569191   -0.04825761   -0.38602672
     atom   17 type  1   force =    -0.11148312   -1.14459862   -9.36813426
     atom   18 type  1   force =     0.01246448    1.05214815    8.78273776
     atom   19 type  1   force =     0.00057529   -0.05062533   -0.41674516
     atom   20 type  1   force =    -0.01114197   -1.09595763   -9.45327667
     atom   21 type  1   force =     0.08770703    1.05349725    8.82108574
     atom   22 type  1   force =    -0.00456457   -0.04711754   -0.40895890
     atom   23 type  1   force =     0.00974309   -1.15625842   -9.23877346
     atom   24 type  1   force =     0.08757111    0.98838991    8.94692628
     atom   25 type  2   force =     0.41819011    0.60334058   -0.35805214
     atom   26 type  2   force =    -0.42326939   -0.64613949   -0.20436411
     atom   27 type  2   force =     0.41661448   -0.29549037    1.55978387
     atom   28 type  2   force =    -0.49828251    0.69234493    1.43212263
     atom   29 type  2   force =     0.62790305   -0.28225006    2.06532757
     atom   30 type  2   force =    -0.53538327    0.79016175    1.90330451
     atom   31 type  2   force =     0.71077614    0.44878005    1.74553790
     atom   32 type  2   force =    -0.69072471   -0.11068537    1.80598047
     atom   33 type  2   force =     0.54440879    0.44154303   -1.55498093
     atom   34 type  2   force =    -0.52783649   -0.80730175   -1.41200084
     The core correction contribution to forces
     atom    1 type  1   force =     0.00003417   -0.00002495   -0.00006943
     atom    2 type  1   force =    -0.00010212   -0.00007383   -0.00015877
     atom    3 type  1   force =     0.00006579   -0.00003249   -0.00003255
     atom    4 type  1   force =    -0.00003057    0.00002288    0.00004136
     atom    5 type  1   force =     0.00002714   -0.00000530   -0.00033215
     atom    6 type  1   force =     0.00003831    0.00002401    0.00008214
     atom    7 type  1   force =     0.00003581   -0.00002608   -0.00006385
     atom    8 type  1   force =     0.00006394    0.00001947   -0.00013539
     atom    9 type  1   force =    -0.00007394   -0.00003835    0.00003844
     atom   10 type  1   force =    -0.00003321    0.00002485    0.00004480
     atom   11 type  1   force =     0.00000624    0.00006567    0.00012998
     atom   12 type  1   force =    -0.00007456    0.00001484    0.00008605
     atom   13 type  1   force =     0.00003169   -0.00001795   -0.00001332
     atom   14 type  1   force =    -0.00002903    0.00005705    0.00057197
     atom   15 type  1   force =     0.00004116    0.00005690   -0.00002582
     atom   16 type  1   force =    -0.00003718    0.00002202    0.00005084
     atom   17 type  1   force =    -0.00006638   -0.00005938   -0.00001722
     atom   18 type  1   force =     0.00000250    0.00002388   -0.00013944
     atom   19 type  1   force =     0.00002977   -0.00003347   -0.00007439
     atom   20 type  1   force =     0.00007431    0.00003229   -0.00012698
     atom   21 type  1   force =    -0.00000681   -0.00002309   -0.00006284
     atom   22 type  1   force =    -0.00003583    0.00002275   -0.00000390
     atom   23 type  1   force =     0.00002078   -0.00001485    0.00022094
     atom   24 type  1   force =     0.00000742   -0.00002161    0.00009357
     atom   25 type  2   force =     0.00000000    0.00000000    0.00000000
     atom   26 type  2   force =     0.00000000    0.00000000    0.00000000
     atom   27 type  2   force =     0.00000000    0.00000000    0.00000000
     atom   28 type  2   force =     0.00000000    0.00000000    0.00000000
     atom   29 type  2   force =     0.00000000    0.00000000    0.00000000
     atom   30 type  2   force =     0.00000000    0.00000000    0.00000000
     atom   31 type  2   force =     0.00000000    0.00000000    0.00000000
     atom   32 type  2   force =     0.00000000    0.00000000    0.00000000
     atom   33 type  2   force =     0.00000000    0.00000000    0.00000000
     atom   34 type  2   force =     0.00000000    0.00000000    0.00000000
     The Hubbard contrib.    to forces
     atom    1 type  1   force =     0.00000000    0.00000000    0.00000000
     atom    2 type  1   force =     0.00000000    0.00000000    0.00000000
     atom    3 type  1   force =     0.00000000    0.00000000    0.00000000
     atom    4 type  1   force =     0.00000000    0.00000000    0.00000000
     atom    5 type  1   force =     0.00000000    0.00000000    0.00000000
     atom    6 type  1   force =     0.00000000    0.00000000    0.00000000
     atom    7 type  1   force =     0.00000000    0.00000000    0.00000000
     atom    8 type  1   force =     0.00000000    0.00000000    0.00000000
     atom    9 type  1   force =     0.00000000    0.00000000    0.00000000
     atom   10 type  1   force =     0.00000000    0.00000000    0.00000000
     atom   11 type  1   force =     0.00000000    0.00000000    0.00000000
     atom   12 type  1   force =     0.00000000    0.00000000    0.00000000
     atom   13 type  1   force =     0.00000000    0.00000000    0.00000000
     atom   14 type  1   force =     0.00000000    0.00000000    0.00000000
     atom   15 type  1   force =     0.00000000    0.00000000    0.00000000
     atom   16 type  1   force =     0.00000000    0.00000000    0.00000000
     atom   17 type  1   force =     0.00000000    0.00000000    0.00000000
     atom   18 type  1   force =     0.00000000    0.00000000    0.00000000
     atom   19 type  1   force =     0.00000000    0.00000000    0.00000000
     atom   20 type  1   force =     0.00000000    0.00000000    0.00000000
     atom   21 type  1   force =     0.00000000    0.00000000    0.00000000
     atom   22 type  1   force =     0.00000000    0.00000000    0.00000000
     atom   23 type  1   force =     0.00000000    0.00000000    0.00000000
     atom   24 type  1   force =     0.00000000    0.00000000    0.00000000
     atom   25 type  2   force =     0.00000000    0.00000000    0.00000000
     atom   26 type  2   force =     0.00000000    0.00000000    0.00000000
     atom   27 type  2   force =     0.00000000    0.00000000    0.00000000
     atom   28 type  2   force =     0.00000000    0.00000000    0.00000000
     atom   29 type  2   force =     0.00000000    0.00000000    0.00000000
     atom   30 type  2   force =     0.00000000    0.00000000    0.00000000
     atom   31 type  2   force =     0.00000000    0.00000000    0.00000000
     atom   32 type  2   force =     0.00000000    0.00000000    0.00000000
     atom   33 type  2   force =     0.00000000    0.00000000    0.00000000
     atom   34 type  2   force =     0.00000000    0.00000000    0.00000000
     The SCF correction term to forces
     atom    1 type  1   force =    -0.00000043   -0.00000245   -0.00001575
     atom    2 type  1   force =     0.00000759    0.00000596    0.00007150
     atom    3 type  1   force =     0.00000496   -0.00000909   -0.00004033
     atom    4 type  1   force =    -0.00000064   -0.00000129   -0.00001689
     atom    5 type  1   force =    -0.00000077    0.00000480    0.00006857
     atom    6 type  1   force =     0.00000516    0.00000036   -0.00004644
     atom    7 type  1   force =     0.00000030   -0.00000220   -0.00001533
     atom    8 type  1   force =    -0.00000747    0.00000463    0.00007033
     atom    9 type  1   force =    -0.00000559   -0.00000850   -0.00004577
     atom   10 type  1   force =     0.00000005   -0.00000178   -0.00001618
     atom   11 type  1   force =     0.00000045    0.00001202    0.00007183
     atom   12 type  1   force =    -0.00000598   -0.00000207   -0.00004684
     atom   13 type  1   force =    -0.00000020   -0.00000193   -0.00001769
     atom   14 type  1   force =     0.00000073    0.00001606    0.00007280
     atom   15 type  1   force =    -0.00000050    0.00000112   -0.00004343
     atom   16 type  1   force =     0.00000029   -0.00000233   -0.00001721
     atom   17 type  1   force =    -0.00000637    0.00000748    0.00007219
     atom   18 type  1   force =     0.00000100   -0.00000638   -0.00004124
     atom   19 type  1   force =     0.00000022   -0.00000120   -0.00001519
     atom   20 type  1   force =    -0.00000082    0.00000686    0.00007321
     atom   21 type  1   force =     0.00000030   -0.00000538   -0.00004976
     atom   22 type  1   force =    -0.00000075   -0.00000153   -0.00001383
     atom   23 type  1   force =     0.00000699    0.00000797    0.00007577
     atom   24 type  1   force =    -0.00000141   -0.00001363   -0.00004501
     atom   25 type  2   force =    -0.00000129    0.00000248    0.00000243
     atom   26 type  2   force =    -0.00000319   -0.00000068    0.00000211
     atom   27 type  2   force =     0.00000192    0.00000004   -0.00000837
     atom   28 type  2   force =    -0.00000016    0.00000031   -0.00000875
     atom   29 type  2   force =    -0.00000083   -0.00000321   -0.00000888
     atom   30 type  2   force =     0.00000180   -0.00000630   -0.00000849
     atom   31 type  2   force =     0.00000740    0.00000189   -0.00000729
     atom   32 type  2   force =     0.00000976    0.00000113   -0.00000686
     atom   33 type  2   force =     0.00000087    0.00000246    0.00000148
     atom   34 type  2   force =    -0.00000044    0.00000098    0.00000307

     Total force =     0.005280     Total SCF correction =     0.000249


     Computing stress (Cartesian axis) and pressure

          total   stress  (Ry/bohr**3)                   (kbar)     P=       -0.29
  -0.00000094  -0.00000020  -0.00000798           -0.14       -0.03       -1.17
  -0.00000020   0.00000107  -0.00000296           -0.03        0.16       -0.44
  -0.00000798  -0.00000296  -0.00000612           -1.17       -0.44       -0.90

     Energy error            =      9.5E-05 Ry
     Gradient error          =      1.8E-03 Ry/Bohr
     Cell gradient error     =      1.2E+00 kbar

     number of scf cycles    =  50
     number of bfgs steps    =  49

     enthalpy           old  =    -298.5916879088 Ry
     enthalpy           new  =    -298.5917826879 Ry

     CASE: enthalpy          _new < enthalpy          _old

     new trust radius        =       0.0198356548 bohr

     The maximum number of steps has been reached.

     End of BFGS Geometry Optimization
     new unit-cell volume =   1877.48249 a.u.^3 (   278.21420 Ang^3 )
     density =      1.78068 g/cm^3

CELL_PARAMETERS (alat=  8.00000437)
   1.155064537   0.003013083  -0.005699232
  -0.580577335   0.991771175  -0.116589798
   0.001422578  -0.262750242   3.227725011

ATOMIC_POSITIONS (crystal)
C            -0.0606365976       -0.1023475461        0.1542728078
C             0.0251106147        0.0578770880        0.3936657982
C             0.0431672575        0.0635250214        0.9176252923
C             0.1059677770        0.2309257424        0.1541331984
C             0.3586943796        0.2247639696        0.3941365622
C             0.2096540191        0.3967868563        0.9174925464
C             0.4393544333       -0.1023556931        0.1542584177
C             0.5252241378        0.0577604419        0.3936723778
C             0.5430503978        0.0635257464        0.9175256989
C             0.6059644401        0.2309205644        0.1541158747
C             0.8583454167        0.2243360443        0.3930660364
C             0.7096190459        0.3968891049        0.9174639039
C            -0.0606576782        0.3976042380        0.1541944673
C             0.0244742543        0.5569901665        0.3922684795
C             0.0430882207        0.5636730105        0.9175989615
C             0.1059482850        0.7309212140        0.1541138937
C             0.3580327965        0.7241452620        0.3933984061
C             0.2098981260        0.8970690525        0.9177790474
C             0.4393747819        0.3976505436        0.1542752530
C             0.5251151224        0.5578081395        0.3935760767
C             0.5429952896        0.5636957370        0.9177778152
C             0.6059803933        0.7309568588        0.1541826915
C             0.8581050432        0.7240893134        0.3928373468
C             0.7097224719        0.8968252745        0.9175172997
H             0.6940929084        0.9863526854        0.6318449532
H             0.8573761038        1.1388428064        0.6317162238
H             0.2821905872        0.6548816489        0.7045879351
H             0.3308233586        0.5365922275        0.7179851671
H             0.7818052162        0.6708688721        0.7316675411
H             0.8419154838        0.5542851765        0.7367707294
H             0.2226798990        0.0662076503        0.7189241638
H             0.4052623328        0.1508752825        0.7288884990
H            -0.0598968223        0.6212668110        0.5887780259
H             0.1030063332        0.7482109950        0.5762535715



     Writing config-only to output data dir ../../results/server/5h2_abs/5H2abs_C.save/
     NEW-OLD atomic charge density approx. for the potential

     Check: negative core charge=   -0.000002
     extrapolated charge  106.03776, renormalised to  106.00000

     Writing all to output data dir ../../results/server/5h2_abs/5H2abs_C.save/
 
     init_run     :      0.61s CPU      0.73s WALL (       1 calls)
     electrons    :   1055.11s CPU   1153.85s WALL (      50 calls)
     update_pot   :      9.57s CPU     10.32s WALL (      50 calls)
     forces       :     12.08s CPU     14.33s WALL (      50 calls)
     stress       :    117.04s CPU    120.76s WALL (      50 calls)

     Called by init_run:
     wfcinit      :      0.41s CPU      0.46s WALL (       1 calls)
     potinit      :      0.06s CPU      0.07s WALL (       1 calls)
     hinit0       :      0.11s CPU      0.14s WALL (       1 calls)

     Called by electrons:
     c_bands      :    912.67s CPU    972.88s WALL (    1057 calls)
     sum_band     :    109.18s CPU    125.22s WALL (    1057 calls)
     v_of_rho     :      1.53s CPU      3.68s WALL (    1108 calls)
     newd         :     10.70s CPU     13.71s WALL (    1108 calls)
     mix_rho      :     10.77s CPU     20.41s WALL (    1057 calls)

     Called by c_bands:
     init_us_2    :      6.21s CPU      8.40s WALL (   39870 calls)
     init_us_2:cp :      6.09s CPU      8.20s WALL (   39870 calls)
     cegterg      :    812.39s CPU    861.28s WALL (   19035 calls)

     Called by *egterg:
     cdiaghg      :    319.07s CPU    337.50s WALL (   76718 calls)
     h_psi        :    379.96s CPU    404.41s WALL (   77627 calls)
     s_psi        :     20.21s CPU     20.86s WALL (   77627 calls)
     g_psi        :      1.35s CPU      1.45s WALL (   58574 calls)

     Called by h_psi:
     h_psi:calbec :     46.61s CPU     50.88s WALL (   77627 calls)
     vloc_psi     :    309.01s CPU    327.64s WALL (   77627 calls)
     add_vuspsi   :     22.01s CPU     23.15s WALL (   77627 calls)

     General routines
     calbec       :     73.28s CPU     79.71s WALL (  101153 calls)
     fft          :      5.53s CPU      8.50s WALL (    6998 calls)
     ffts         :      3.34s CPU      7.58s WALL (   26010 calls)
     fftw         :    310.47s CPU    329.28s WALL ( 7365448 calls)
     interpolate  :      0.55s CPU      1.32s WALL (    1108 calls)
     davcio       :      0.00s CPU      0.02s WALL (      18 calls)
 
     Parallel routines
 
     PWSCF        :  19m57.15s CPU  21m46.79s WALL

 
   This run was terminated on:  21:15:27   2Sep2024            

=------------------------------------------------------------------------------=
   JOB DONE.
=------------------------------------------------------------------------------=
