
     Program PWSCF v.7.3.1 starts on  7Aug2024 at 13:26: 3 

     This program is part of the open-source Quantum ESPRESSO suite
     for quantum simulation of materials; please cite
         "P. Giannozzi et al., J. Phys.:Condens. Matter 21 395502 (2009);
         "P. Giannozzi et al., J. Phys.:Condens. Matter 29 465901 (2017);
         "P. Giannozzi et al., J. Chem. Phys. 152 154105 (2020);
          URL http://www.quantum-espresso.org", 
     in publications or presentations arising from this work. More details at
     http://www.quantum-espresso.org/quote

     Parallel version (MPI & OpenMP), running on       4 processor cores
     Number of MPI processes:                 2
     Threads/MPI process:                     2

     MPI processes distributed on     1 nodes
     4100 MiB available memory on the printing compute node when the environment starts

     Reading input from hydrogen_absorption6.in

     Current dimensions of program PWSCF are:
     Max number of different atomic species (ntypx) = 10
     Max number of k-points (npk) =  40000
     Max angular momentum in pseudopotentials (lmaxx) =  4

     File ../results/6h2_abs/6H2abs_C.update deleted, as requested

     File ../results/6h2_abs/6H2abs_C.bfgs deleted, as requested

     IMPORTANT: XC functional enforced from input :
     Exchange-correlation= LDA
                           (   1   1   0   0   0   0   0)
     Any further DFT definition will be discarded
     Please, verify this is what you really want


     R & G space division:  proc/nbgrp/npool/nimage =       2
     Subspace diagonalization in iterative solution of the eigenvalue problem:
     a serial algorithm will be used


     Parallelization info
     --------------------
     sticks:   dense  smooth     PW     G-vecs:    dense   smooth      PW
     Min         882     351     84                59496    14997    1857
     Max         883     352     85                59501    15000    1858
     Sum        1765     703    169               118997    29997    3715

     Using Slab Decomposition


     Title: 
     6H2_absorption_C                                                           


     bravais-lattice index     =            4
     lattice parameter (alat)  =       8.0000  a.u.
     unit-cell volume          =     880.6989 (a.u.)^3
     number of atoms/cell      =           36
     number of atomic types    =            2
     number of electrons       =       108.00
     number of Kohn-Sham states=           65
     kinetic-energy cutoff     =      40.0000  Ry
     charge density cutoff     =     400.0000  Ry
     scf convergence threshold =      1.0E-06
     mixing beta               =       0.0500
     number of iterations used =            8  local-TF  mixing
     energy convergence thresh.=      1.0E-04
     force convergence thresh. =      1.0E-03
     press convergence thresh. =      5.0E-01
     Exchange-correlation= LDA
                           (   1   1   0   0   0   0   0)
     nstep                     =           50


     celldm(1)=   8.000004  celldm(2)=   0.000000  celldm(3)=   1.986214
     celldm(4)=   0.000000  celldm(5)=   0.000000  celldm(6)=   0.000000

     crystal axes: (cart. coord. in units of alat)
               a(1) = (   1.000000   0.000000   0.000000 )  
               a(2) = (  -0.500000   0.866025   0.000000 )  
               a(3) = (   0.000000   0.000000   1.986214 )  

     reciprocal axes: (cart. coord. in units 2 pi/alat)
               b(1) = (  1.000000  0.577350 -0.000000 )  
               b(2) = (  0.000000  1.154701  0.000000 )  
               b(3) = (  0.000000 -0.000000  0.503470 )  


     PseudoPot. # 1 for C  read from file:
     /home/edoardocabiati/.burai/.pseudopot/C.pz-n-rrkjus_psl.0.1.UPF
     MD5 check sum: a3cecbabebb5b3a1aff122f23eb09bb0
     Pseudo is Ultrasoft + core correction, Zval =  4.0
     Generated using "atomic" code by A. Dal Corso  v.5.0.2 svn rev. 9415
     Using radial grid of 1073 points,  4 beta functions with: 
                l(1) =   0
                l(2) =   0
                l(3) =   1
                l(4) =   1
     Q(r) pseudized with 0 coefficients 


     PseudoPot. # 2 for H  read from file:
     /home/edoardocabiati/.burai/.pseudopot/H.pz-rrkjus_psl.0.1.UPF
     MD5 check sum: 1467ebfaa2880178e80d097b970df8c7
     Pseudo is Ultrasoft, Zval =  1.0
     Generated using "atomic" code by A. Dal Corso  v.5.0.2 svn rev. 9415
     Using radial grid of  929 points,  2 beta functions with: 
                l(1) =   0
                l(2) =   0
     Q(r) pseudized with 0 coefficients 


     atomic species   valence    mass     pseudopotential
     C                 4.00    12.01100     C ( 1.00)
     H                 1.00     1.00784     H ( 1.00)

     No symmetry found



   Cartesian axes

     site n.     atom                  positions (alat units)
         1        C      tau(   1) = (  -0.0000468  -0.0000936   0.3631706  )
         2        C      tau(   2) = (   0.0000687   0.0001354   0.8018823  )
         3        C      tau(   3) = (  -0.0002040  -0.0004202   1.7516853  )
         4        C      tau(   4) = (  -0.0000592   0.2886695   0.3533332  )
         5        C      tau(   5) = (   0.2501009   0.1444193   0.8137936  )
         6        C      tau(   6) = (  -0.0001596   0.2887541   1.7450554  )
         7        C      tau(   7) = (   0.5000242   0.0000880   0.3577416  )
         8        C      tau(   8) = (   0.5001156   0.0000186   0.8111983  )
         9        C      tau(   9) = (   0.4999062  -0.0001986   1.7425545  )
        10        C      tau(  10) = (   0.5000051   0.2886636   0.3543503  )
        11        C      tau(  11) = (   0.7501167   0.1443876   0.8148291  )
        12        C      tau(  12) = (   0.4998618   0.2886184   1.7549178  )
        13        C      tau(  13) = (  -0.2499507   0.4329420   0.3615635  )
        14        C      tau(  14) = (  -0.2498427   0.4330593   0.8082586  )
        15        C      tau(  15) = (  -0.2500517   0.4331714   1.7579861  )
        16        C      tau(  16) = (  -0.2499705   0.7215723   0.3546479  )
        17        C      tau(  17) = (   0.0002145   0.5774404   0.8152635  )
        18        C      tau(  18) = (  -0.2500027   0.7215963   1.7577358  )
        19        C      tau(  19) = (   0.2499558   0.4329563   0.3640676  )
        20        C      tau(  20) = (   0.2501632   0.4332089   0.8017998  )
        21        C      tau(  21) = (   0.2498090   0.4331125   1.7529281  )
        22        C      tau(  22) = (   0.2499401   0.7217973   0.3523152  )
        23        C      tau(  23) = (   0.5001159   0.5773996   0.8117361  )
        24        C      tau(  24) = (   0.2497901   0.7213999   1.7531141  )
        25        H      tau(  25) = (   0.1581160   1.1586402   1.2832090  )
        26        H      tau(  26) = (   0.2519687   1.0139792   1.3306920  )
        27        H      tau(  27) = (   0.0736349   0.5787934   1.3134380  )
        28        H      tau(  28) = (   0.3016177   0.6136791   1.2719577  )
        29        H      tau(  29) = (   0.5248918   0.4657706   1.2863390  )
        30        H      tau(  30) = (   0.3281567   0.3915431   1.2792365  )
        31        H      tau(  31) = (   0.1512998   0.0549974   1.2934603  )
        32        H      tau(  32) = (   0.2277546   0.2139971   1.3177399  )
        33        H      tau(  33) = (  -0.3104924   0.6121149   1.2821077  )
        34        H      tau(  34) = (  -0.1012540   0.5920174   1.3140142  )
        35        H      tau(  35) = (   0.5204097   0.7400469   1.2763815  )
        36        H      tau(  36) = (   0.3146064   0.8249785   1.2729714  )

     number of k points=     1  Gaussian smearing, width (Ry)=  0.0100
                       cart. coord. in units 2pi/alat
        k(    1) = (   0.0000000   0.0000000   0.0000000), wk =   2.0000000

     Dense  grid:   118997 G-vectors     FFT dimensions: (  54,  54, 108)

     Smooth grid:    29997 G-vectors     FFT dimensions: (  36,  36,  64)

     Estimated max dynamical RAM per process >     149.99 MB

     Estimated total dynamical RAM >     299.97 MB

     Check: negative core charge=   -0.000002

     Initial potential from superposition of free atoms

     starting charge     107.9990, renormalised to     108.0000
     Starting wfcs are  108 randomized atomic wfcs

     total cpu time spent up to now is        2.5 secs

     Self-consistent Calculation

     iteration #  1     ecut=    40.00 Ry     beta= 0.05
     Davidson diagonalization with overlap
     ethr =  1.00E-02,  avg # of iterations =  5.0

     total cpu time spent up to now is        7.6 secs

     total energy              =    -297.43585328 Ry
     estimated scf accuracy    <       5.60098803 Ry

     iteration #  2     ecut=    40.00 Ry     beta= 0.05
     Davidson diagonalization with overlap
     ethr =  5.19E-03,  avg # of iterations =  1.0

     total cpu time spent up to now is       10.8 secs

     total energy              =    -294.85255619 Ry
     estimated scf accuracy    <       5.50360882 Ry

     iteration #  3     ecut=    40.00 Ry     beta= 0.05
     Davidson diagonalization with overlap
     ethr =  5.10E-03,  avg # of iterations =  1.0

     total cpu time spent up to now is       12.5 secs

     total energy              =    -294.43031984 Ry
     estimated scf accuracy    <       1.06458309 Ry

     iteration #  4     ecut=    40.00 Ry     beta= 0.05
     Davidson diagonalization with overlap
     ethr =  9.86E-04,  avg # of iterations =  4.0

     total cpu time spent up to now is       14.8 secs

     total energy              =    -294.81336618 Ry
     estimated scf accuracy    <       0.10050394 Ry

     iteration #  5     ecut=    40.00 Ry     beta= 0.05
     Davidson diagonalization with overlap
     ethr =  9.31E-05,  avg # of iterations =  4.0

     total cpu time spent up to now is       17.0 secs

     total energy              =    -294.82970428 Ry
     estimated scf accuracy    <       0.22951791 Ry

     iteration #  6     ecut=    40.00 Ry     beta= 0.05
     Davidson diagonalization with overlap
     ethr =  9.31E-05,  avg # of iterations =  1.0

     total cpu time spent up to now is       18.6 secs

     total energy              =    -294.71573802 Ry
     estimated scf accuracy    <       0.20862066 Ry

     iteration #  7     ecut=    40.00 Ry     beta= 0.05
     Davidson diagonalization with overlap
     c_bands:  1 eigenvalues not converged
     ethr =  9.31E-05,  avg # of iterations = 20.0

     total cpu time spent up to now is       21.2 secs

     total energy              =    -294.74623495 Ry
     estimated scf accuracy    <       0.01369536 Ry

     iteration #  8     ecut=    40.00 Ry     beta= 0.05
     Davidson diagonalization with overlap
     ethr =  1.27E-05,  avg # of iterations =  6.0

     total cpu time spent up to now is       23.1 secs

     total energy              =    -294.74565823 Ry
     estimated scf accuracy    <       0.02363303 Ry

     iteration #  9     ecut=    40.00 Ry     beta= 0.05
     Davidson diagonalization with overlap
     ethr =  1.27E-05,  avg # of iterations =  1.0

     total cpu time spent up to now is       24.7 secs

     total energy              =    -294.73454919 Ry
     estimated scf accuracy    <       0.01903853 Ry

     iteration # 10     ecut=    40.00 Ry     beta= 0.05
     Davidson diagonalization with overlap
     ethr =  1.27E-05,  avg # of iterations =  3.0

     total cpu time spent up to now is       26.9 secs

     total energy              =    -294.73939275 Ry
     estimated scf accuracy    <       0.00091454 Ry

     iteration # 11     ecut=    40.00 Ry     beta= 0.05
     Davidson diagonalization with overlap
     ethr =  8.47E-07,  avg # of iterations =  5.0

     total cpu time spent up to now is       29.4 secs

     total energy              =    -294.74008338 Ry
     estimated scf accuracy    <       0.00109777 Ry

     iteration # 12     ecut=    40.00 Ry     beta= 0.05
     Davidson diagonalization with overlap
     ethr =  8.47E-07,  avg # of iterations =  2.0

     total cpu time spent up to now is       31.1 secs

     total energy              =    -294.73940653 Ry
     estimated scf accuracy    <       0.00169552 Ry

     iteration # 13     ecut=    40.00 Ry     beta= 0.05
     Davidson diagonalization with overlap
     ethr =  8.47E-07,  avg # of iterations =  2.0

     total cpu time spent up to now is       32.8 secs

     total energy              =    -294.73927136 Ry
     estimated scf accuracy    <       0.00041978 Ry

     iteration # 14     ecut=    40.00 Ry     beta= 0.05
     Davidson diagonalization with overlap
     ethr =  3.89E-07,  avg # of iterations =  4.0

     total cpu time spent up to now is       34.9 secs

     total energy              =    -294.73939058 Ry
     estimated scf accuracy    <       0.00008894 Ry

     iteration # 15     ecut=    40.00 Ry     beta= 0.05
     Davidson diagonalization with overlap
     ethr =  8.24E-08,  avg # of iterations =  2.0

     total cpu time spent up to now is       36.7 secs

     total energy              =    -294.73940003 Ry
     estimated scf accuracy    <       0.00008013 Ry

     iteration # 16     ecut=    40.00 Ry     beta= 0.05
     Davidson diagonalization with overlap
     ethr =  7.42E-08,  avg # of iterations =  1.0

     total cpu time spent up to now is       38.3 secs

     total energy              =    -294.73939611 Ry
     estimated scf accuracy    <       0.00008071 Ry

     iteration # 17     ecut=    40.00 Ry     beta= 0.05
     Davidson diagonalization with overlap
     ethr =  7.42E-08,  avg # of iterations =  2.0

     total cpu time spent up to now is       40.2 secs

     total energy              =    -294.73937950 Ry
     estimated scf accuracy    <       0.00007299 Ry

     iteration # 18     ecut=    40.00 Ry     beta= 0.05
     Davidson diagonalization with overlap
     ethr =  6.76E-08,  avg # of iterations =  2.0

     total cpu time spent up to now is       42.1 secs

     total energy              =    -294.73938864 Ry
     estimated scf accuracy    <       0.00003800 Ry

     iteration # 19     ecut=    40.00 Ry     beta= 0.05
     Davidson diagonalization with overlap
     ethr =  3.52E-08,  avg # of iterations =  1.0

     total cpu time spent up to now is       44.0 secs

     total energy              =    -294.73937908 Ry
     estimated scf accuracy    <       0.00004230 Ry

     iteration # 20     ecut=    40.00 Ry     beta= 0.05
     Davidson diagonalization with overlap
     ethr =  3.52E-08,  avg # of iterations =  1.0

     total cpu time spent up to now is       45.8 secs

     total energy              =    -294.73937285 Ry
     estimated scf accuracy    <       0.00002096 Ry

     iteration # 21     ecut=    40.00 Ry     beta= 0.05
     Davidson diagonalization with overlap
     ethr =  1.94E-08,  avg # of iterations =  2.0

     total cpu time spent up to now is       48.1 secs

     total energy              =    -294.73937686 Ry
     estimated scf accuracy    <       0.00000594 Ry

     iteration # 22     ecut=    40.00 Ry     beta= 0.05
     Davidson diagonalization with overlap
     ethr =  5.50E-09,  avg # of iterations =  3.0

     total cpu time spent up to now is       50.7 secs

     total energy              =    -294.73937873 Ry
     estimated scf accuracy    <       0.00000784 Ry

     iteration # 23     ecut=    40.00 Ry     beta= 0.05
     Davidson diagonalization with overlap
     ethr =  5.50E-09,  avg # of iterations =  1.0

     total cpu time spent up to now is       52.5 secs

     total energy              =    -294.73937855 Ry
     estimated scf accuracy    <       0.00000784 Ry

     iteration # 24     ecut=    40.00 Ry     beta= 0.05
     Davidson diagonalization with overlap
     ethr =  5.50E-09,  avg # of iterations =  1.0

     total cpu time spent up to now is       54.1 secs

     total energy              =    -294.73937855 Ry
     estimated scf accuracy    <       0.00000803 Ry

     iteration # 25     ecut=    40.00 Ry     beta= 0.05
     Davidson diagonalization with overlap
     ethr =  5.50E-09,  avg # of iterations =  1.0

     total cpu time spent up to now is       55.8 secs

     total energy              =    -294.73937617 Ry
     estimated scf accuracy    <       0.00000702 Ry

     iteration # 26     ecut=    40.00 Ry     beta= 0.05
     Davidson diagonalization with overlap
     ethr =  5.50E-09,  avg # of iterations =  2.0

     total cpu time spent up to now is       57.6 secs

     total energy              =    -294.73937586 Ry
     estimated scf accuracy    <       0.00000220 Ry

     iteration # 27     ecut=    40.00 Ry     beta= 0.05
     Davidson diagonalization with overlap
     ethr =  2.04E-09,  avg # of iterations =  2.0

     total cpu time spent up to now is       59.4 secs

     End of self-consistent calculation

          k = 0.0000 0.0000 0.0000 (  3715 PWs)   bands (ev):

   -11.0560  -8.0043  -7.5239  -3.5079  -3.3816  -3.3681  -3.2705  -3.2309
    -3.1960  -3.1228  -0.9978  -0.9795  -0.9503  -0.6742  -0.6504  -0.5963
    -0.2269  -0.2057  -0.1986   0.3098   0.3301   0.3930   0.5080   5.0691
     6.1536   6.2014   6.2069   6.2380   6.3945   6.6404   6.8430   7.4057
     7.4162   7.4446   7.8888   8.1660   8.2061   8.2244   8.2818   8.8087
     8.8897   9.1735  11.0505  11.3622  11.4313  11.6871  11.7655  12.2815
    12.2898  12.5839  13.3922  13.4069  13.5701  13.5926  16.5844  16.8471
    16.9261  17.7755  18.0910  18.1665  18.8930  19.1453  19.1763  21.7178
    22.4581

     the Fermi energy is    14.7599 ev

!    total energy              =    -294.73937649 Ry
     estimated scf accuracy    <       0.00000067 Ry
     smearing contrib. (-TS)   =      -0.00000000 Ry
     internal energy E=F+TS    =    -294.73937649 Ry

     The total energy is F=E-TS. E is the sum of the following terms:
     one-electron contribution =     -11.96619974 Ry
     hartree contribution      =      92.46300289 Ry
     xc contribution           =    -119.87368795 Ry
     ewald contribution        =    -255.36249170 Ry

     convergence has been achieved in  27 iterations

     Forces acting on atoms (cartesian axes, Ry/au):

     atom    1 type  1   force =    -0.00054055   -0.00248919   -0.00472878
     atom    2 type  1   force =     0.00186760    0.00642687   -0.00541894
     atom    3 type  1   force =    -0.00464062   -0.02990845    0.00942774
     atom    4 type  1   force =     0.00195008   -0.00161618   -0.07726136
     atom    5 type  1   force =     0.00492282   -0.00178695    0.07629693
     atom    6 type  1   force =    -0.02736648    0.01126848   -0.06544846
     atom    7 type  1   force =     0.00285202   -0.00524657   -0.03177231
     atom    8 type  1   force =    -0.00381244    0.00238612    0.03800622
     atom    9 type  1   force =    -0.02746537    0.02047705   -0.09657218
     atom   10 type  1   force =     0.00446250    0.00828555   -0.06232858
     atom   11 type  1   force =    -0.00098149    0.00186522    0.06866163
     atom   12 type  1   force =    -0.00666934    0.01018017    0.03079267
     atom   13 type  1   force =    -0.00634993    0.00267145   -0.01150464
     atom   14 type  1   force =     0.00912924   -0.00196989    0.01373878
     atom   15 type  1   force =    -0.01301539    0.00136958    0.03034737
     atom   16 type  1   force =    -0.00228871   -0.00448512   -0.06040289
     atom   17 type  1   force =    -0.00430576   -0.00195904    0.07213103
     atom   18 type  1   force =    -0.01437206    0.00395768    0.04043248
     atom   19 type  1   force =     0.00167462    0.00696588   -0.00327404
     atom   20 type  1   force =    -0.00788822   -0.00661706   -0.00476643
     atom   21 type  1   force =     0.02912286    0.01262215    0.01992763
     atom   22 type  1   force =     0.00253751   -0.00618390   -0.06935715
     atom   23 type  1   force =     0.00435829    0.00118064    0.06754242
     atom   24 type  1   force =     0.03054809   -0.00909222    0.02594286
     atom   25 type  2   force =    -0.02735363    0.04684245   -0.02953901
     atom   26 type  2   force =     0.03993588   -0.02875909    0.04795380
     atom   27 type  2   force =     0.07595214   -0.01492705    0.00841051
     atom   28 type  2   force =    -0.02028743   -0.01455578   -0.01349127
     atom   29 type  2   force =     0.00772020   -0.01251769    0.00815371
     atom   30 type  2   force =    -0.02170121   -0.02286519   -0.01775161
     atom   31 type  2   force =    -0.01414230   -0.06332712   -0.00930981
     atom   32 type  2   force =     0.02413047    0.04553594    0.02831269
     atom   33 type  2   force =     0.04495414    0.00605896   -0.01156266
     atom   34 type  2   force =    -0.06706116   -0.00079991    0.00855601
     atom   35 type  2   force =    -0.00100351    0.02211412   -0.00192881
     atom   36 type  2   force =    -0.01487284    0.01889808   -0.01821553

     Total force =     0.304406     Total SCF correction =     0.002467


     Computing stress (Cartesian axis) and pressure

          total   stress  (Ry/bohr**3)                   (kbar)     P=     3383.38
   0.03197343  -0.00000545  -0.00003987         4703.45       -0.80       -5.87
  -0.00000545   0.03202600   0.00003050           -0.80     4711.19        4.49
  -0.00003987   0.00003050   0.00499979           -5.87        4.49      735.49


     BFGS Geometry Optimization
     Energy error            =      0.0E+00 Ry
     Gradient error          =      9.7E-02 Ry/Bohr
     Cell gradient error     =      4.7E+03 kbar

     number of scf cycles    =   1
     number of bfgs steps    =   0

     enthalpy           new  =    -294.7393764941 Ry

     new trust radius        =       0.5000000000 bohr
     new conv_thr            =       0.0000010000 Ry

     new unit-cell volume =   1048.81403 a.u.^3 (   155.41820 Ang^3 )
     density =      3.20912 g/cm^3

CELL_PARAMETERS (alat=  8.00000437)
   1.084103229  -0.000014348  -0.000104879
  -0.542064040   0.938987855   0.000121916
  -0.000208313   0.000159343   2.012336136

ATOMIC_POSITIONS (crystal)
C               -0.0001008451       -0.0001080351        0.1828143258    0   0   1
C                0.0001469010        0.0001563448        0.4036880589    0   0   1
C               -0.0004465964       -0.0004852453        0.8819839773    0   0   1
C                0.1666042513        0.3333268596        0.1773811915    0   0   1
C                0.3334814408        0.1667610008        0.4102261244    0   0   1
C                0.1665526290        0.3334244615        0.8781501992    0   0   1
C                0.5000750124        0.0001015830        0.1799019113    0   0   1
C                0.5001263026        0.0000214590        0.4086659061    0   0   1
C                0.4997915877       -0.0002293090        0.8766849953    0   0   1
C                0.6666651532        0.3333200085        0.1779921304    0   0   1
C                0.8334788753        0.1667244398        0.4106969072    0   0   1
C                0.6664957195        0.3332677890        0.8837528846    0   0   1
C                0.0000085266        0.4999183753        0.1819602929    0   0   1
C                0.0001841961        0.5000537884        0.4070252003    0   0   1
C                0.0000399826        0.5001833028        0.8852947726    0   0   1
C                0.1666294594        0.8331999589        0.1781547444    0   0   1
C                0.3335998475        0.6667707930        0.4109385855    0   0   1
C                0.1666110989        0.8332276002        0.8852355075    0   0   1
C                0.4999232746        0.4999348981        0.1832755486    0   0   1
C                0.5002764653        0.5002265261        0.4036508429    0   0   1
C                0.4998666371        0.5001152770        0.8826791809    0   0   1
C                0.6666699544        0.8334597295        0.1769210041    0   0   1
C                0.8334777702        0.6667236590        0.4091322604    0   0   1
C                0.6662905885        0.8330008833        0.8828126661    0   0   1
H                0.8270531946        1.3385938077        0.6458620078
H                0.8376966955        1.1704056015        0.6702814672
H                0.4086870255        0.6681063065        0.6613327254
H                0.6555481378        0.7083945282        0.6403036184
H                0.7938111184        0.5376354798        0.6476874861
H                0.5537551707        0.4517678117        0.6439400359
H                0.1823857155        0.0625438049        0.6511571818
H                0.3519689966        0.2477940819        0.6636303895
H                0.0435495719        0.7069014223        0.6454265742
H                0.2396592691        0.6835906180        0.6616238088
H                0.9478306956        0.8548683411        0.6426074058
H                0.7908558018        0.9528900949        0.6407826675



     Writing config-only to output data dir ../results/6h2_abs/6H2abs_C.save/ :
     XML data file
     NEW-OLD atomic charge density approx. for the potential

     Check: negative core charge=   -0.000002

     total cpu time spent up to now is       63.6 secs

     Self-consistent Calculation

     iteration #  1     ecut=    40.00 Ry     beta= 0.05
     Davidson diagonalization with overlap
     c_bands:  1 eigenvalues not converged
     ethr =  1.00E-06,  avg # of iterations = 20.0

     total cpu time spent up to now is       70.9 secs

     total energy              =    -298.03034281 Ry
     estimated scf accuracy    <       0.21074047 Ry

     iteration #  2     ecut=    40.00 Ry     beta= 0.05
     Davidson diagonalization with overlap
     ethr =  1.95E-04,  avg # of iterations =  1.0

     total cpu time spent up to now is       72.6 secs

     total energy              =    -297.91647289 Ry
     estimated scf accuracy    <       0.19680699 Ry

     iteration #  3     ecut=    40.00 Ry     beta= 0.05
     Davidson diagonalization with overlap
     ethr =  1.82E-04,  avg # of iterations =  2.0

     total cpu time spent up to now is       74.5 secs

     total energy              =    -297.94446342 Ry
     estimated scf accuracy    <       0.00949982 Ry

     iteration #  4     ecut=    40.00 Ry     beta= 0.05
     Davidson diagonalization with overlap
     c_bands:  1 eigenvalues not converged
     ethr =  8.80E-06,  avg # of iterations = 20.0

     total cpu time spent up to now is       77.1 secs

     total energy              =    -297.95005640 Ry
     estimated scf accuracy    <       0.00698012 Ry

     iteration #  5     ecut=    40.00 Ry     beta= 0.05
     Davidson diagonalization with overlap
     ethr =  6.46E-06,  avg # of iterations =  2.0

     total cpu time spent up to now is       79.1 secs

     total energy              =    -297.94583346 Ry
     estimated scf accuracy    <       0.01160204 Ry

     iteration #  6     ecut=    40.00 Ry     beta= 0.05
     Davidson diagonalization with overlap
     ethr =  6.46E-06,  avg # of iterations =  8.0

     total cpu time spent up to now is       81.2 secs

     total energy              =    -297.94674585 Ry
     estimated scf accuracy    <       0.00192784 Ry

     iteration #  7     ecut=    40.00 Ry     beta= 0.05
     Davidson diagonalization with overlap
     ethr =  1.79E-06,  avg # of iterations =  2.0

     total cpu time spent up to now is       83.2 secs

     total energy              =    -297.94651857 Ry
     estimated scf accuracy    <       0.00169536 Ry

     iteration #  8     ecut=    40.00 Ry     beta= 0.05
     Davidson diagonalization with overlap
     ethr =  1.57E-06,  avg # of iterations =  2.0

     total cpu time spent up to now is       84.9 secs

     total energy              =    -297.94646678 Ry
     estimated scf accuracy    <       0.00067873 Ry

     iteration #  9     ecut=    40.00 Ry     beta= 0.05
     Davidson diagonalization with overlap
     ethr =  6.28E-07,  avg # of iterations =  6.0

     total cpu time spent up to now is       86.8 secs

     total energy              =    -297.94657144 Ry
     estimated scf accuracy    <       0.00032877 Ry

     iteration # 10     ecut=    40.00 Ry     beta= 0.05
     Davidson diagonalization with overlap
     ethr =  3.04E-07,  avg # of iterations =  1.0

     total cpu time spent up to now is       88.5 secs

     total energy              =    -297.94644268 Ry
     estimated scf accuracy    <       0.00029758 Ry

     iteration # 11     ecut=    40.00 Ry     beta= 0.05
     Davidson diagonalization with overlap
     ethr =  2.76E-07,  avg # of iterations =  2.0

     total cpu time spent up to now is       90.3 secs

     total energy              =    -297.94647247 Ry
     estimated scf accuracy    <       0.00008494 Ry

     iteration # 12     ecut=    40.00 Ry     beta= 0.05
     Davidson diagonalization with overlap
     ethr =  7.86E-08,  avg # of iterations =  2.0

     total cpu time spent up to now is       92.1 secs

     total energy              =    -297.94648204 Ry
     estimated scf accuracy    <       0.00004939 Ry

     iteration # 13     ecut=    40.00 Ry     beta= 0.05
     Davidson diagonalization with overlap
     ethr =  4.57E-08,  avg # of iterations =  1.0

     total cpu time spent up to now is       93.7 secs

     total energy              =    -297.94647506 Ry
     estimated scf accuracy    <       0.00004408 Ry

     iteration # 14     ecut=    40.00 Ry     beta= 0.05
     Davidson diagonalization with overlap
     ethr =  4.08E-08,  avg # of iterations =  2.0

     total cpu time spent up to now is       95.4 secs

     total energy              =    -297.94647556 Ry
     estimated scf accuracy    <       0.00001066 Ry

     iteration # 15     ecut=    40.00 Ry     beta= 0.05
     Davidson diagonalization with overlap
     ethr =  9.87E-09,  avg # of iterations =  2.0

     total cpu time spent up to now is       97.2 secs

     total energy              =    -297.94647762 Ry
     estimated scf accuracy    <       0.00000656 Ry

     iteration # 16     ecut=    40.00 Ry     beta= 0.05
     Davidson diagonalization with overlap
     ethr =  6.07E-09,  avg # of iterations =  2.0

     total cpu time spent up to now is       98.9 secs

     total energy              =    -297.94647565 Ry
     estimated scf accuracy    <       0.00000577 Ry

     iteration # 17     ecut=    40.00 Ry     beta= 0.05
     Davidson diagonalization with overlap
     ethr =  5.34E-09,  avg # of iterations =  2.0

     total cpu time spent up to now is      100.6 secs

     End of self-consistent calculation

          k = 0.0000 0.0000 0.0000 (  3715 PWs)   bands (ev):

   -11.5328  -8.5812  -8.1017  -4.9206  -4.8753  -4.7963  -4.4808  -4.4112
    -4.3890  -3.6534  -2.1808  -2.1574  -2.1421  -2.0583  -2.0458  -2.0365
    -1.7204  -1.6937  -1.6647  -1.6363  -1.5885  -1.5175  -0.0359   4.0186
     4.0329   4.0390   4.2275   4.3473   4.5287   4.7674   4.9581   5.3414
     5.3520   5.3760   6.0923   6.1128   6.1693   6.2487   6.7483   6.8229
     7.1648   7.3689   8.4890   8.5122   8.9336   9.1834   9.1892   9.3052
     9.3624  10.2915  10.2945  10.4565  11.4810  11.5018  14.0451  14.2245
    14.2643  14.8265  15.0413  15.1181  16.0074  16.3376  16.3598  18.8949
    19.4683

     the Fermi energy is    12.3983 ev

!    total energy              =    -297.94648042 Ry
     estimated scf accuracy    <       0.00000073 Ry
     smearing contrib. (-TS)   =      -0.00000000 Ry
     internal energy E=F+TS    =    -297.94648042 Ry

     The total energy is F=E-TS. E is the sum of the following terms:
     one-electron contribution =      -8.95770223 Ry
     hartree contribution      =      80.37523299 Ry
     xc contribution           =    -114.27804846 Ry
     ewald contribution        =    -255.08596272 Ry

     convergence has been achieved in  17 iterations

     Forces acting on atoms (cartesian axes, Ry/au):

     atom    1 type  1   force =    -0.00059956   -0.00247491   -0.01320840
     atom    2 type  1   force =     0.00117581    0.00653991    0.00442685
     atom    3 type  1   force =    -0.00444913   -0.02844798    0.00935739
     atom    4 type  1   force =     0.00057377   -0.00073686   -0.07189308
     atom    5 type  1   force =     0.00579457   -0.00254755    0.06998083
     atom    6 type  1   force =    -0.02439482    0.01203156   -0.02145539
     atom    7 type  1   force =     0.00271867   -0.00381464   -0.03006511
     atom    8 type  1   force =    -0.00342327    0.00176877    0.03578042
     atom    9 type  1   force =    -0.02477935    0.01809520   -0.04667784
     atom   10 type  1   force =     0.00436978    0.00524093   -0.06495655
     atom   11 type  1   force =    -0.00106368    0.00280235    0.06570138
     atom   12 type  1   force =    -0.00630068    0.00989459    0.02227931
     atom   13 type  1   force =    -0.00568584    0.00272278   -0.01564294
     atom   14 type  1   force =     0.00855644   -0.00241312    0.00960195
     atom   15 type  1   force =    -0.01150020    0.00409920    0.00827269
     atom   16 type  1   force =    -0.00100618   -0.00411429   -0.06473777
     atom   17 type  1   force =    -0.00447297   -0.00149312    0.06812078
     atom   18 type  1   force =    -0.01353089    0.00046898    0.02133259
     atom   19 type  1   force =     0.00177433    0.00555887   -0.01392569
     atom   20 type  1   force =    -0.00746549   -0.00521908    0.00538411
     atom   21 type  1   force =     0.02539821    0.01316262    0.01180209
     atom   22 type  1   force =     0.00108881   -0.00399865   -0.06361859
     atom   23 type  1   force =     0.00449430   -0.00008960    0.06231973
     atom   24 type  1   force =     0.02832734   -0.01021474    0.01962938
     atom   25 type  2   force =    -0.01148730    0.02071881   -0.01367051
     atom   26 type  2   force =     0.01655443   -0.00558319    0.02245533
     atom   27 type  2   force =     0.02661689   -0.00803199    0.00474920
     atom   28 type  2   force =    -0.00761507   -0.00656859   -0.00947844
     atom   29 type  2   force =     0.00290848   -0.00933297    0.00548448
     atom   30 type  2   force =    -0.00595522   -0.00466138   -0.01210993
     atom   31 type  2   force =    -0.00086941   -0.02774058   -0.00263599
     atom   32 type  2   force =     0.01045067    0.01308860    0.01307845
     atom   33 type  2   force =     0.01765194    0.00526784   -0.00832107
     atom   34 type  2   force =    -0.02257646   -0.00302796    0.00346023
     atom   35 type  2   force =    -0.00054944    0.01128306    0.00024894
     atom   36 type  2   force =    -0.00072949   -0.00223287   -0.01106884

     Total force =     0.218795     Total SCF correction =     0.002179


     Computing stress (Cartesian axis) and pressure

          total   stress  (Ry/bohr**3)                   (kbar)     P=     1281.98
   0.01088741   0.00000939  -0.00003424         1601.59        1.38       -5.04
   0.00000939   0.01089465   0.00002089            1.38     1602.66        3.07
  -0.00003424   0.00002089   0.00436209           -5.04        3.07      641.69

     Energy error            =      3.2E+00 Ry
     Gradient error          =      7.2E-02 Ry/Bohr
     Cell gradient error     =      1.6E+03 kbar

     number of scf cycles    =   2
     number of bfgs steps    =   1

     enthalpy           old  =    -294.7393764941 Ry
     enthalpy           new  =    -297.9464804230 Ry

     CASE: enthalpy          _new < enthalpy          _old

     new trust radius        =       0.8000000000 bohr
     new conv_thr            =       0.0000007189 Ry

     new unit-cell volume =   1282.42628 a.u.^3 (   190.03597 Ang^3 )
     density =      2.62454 g/cm^3

CELL_PARAMETERS (alat=  8.00000437)
   1.131169352   0.000430189  -0.000966528
  -0.565212147   0.979178734   0.000941110
  -0.002055718   0.001125019   2.260878612

ATOMIC_POSITIONS (crystal)
C               -0.0001007053       -0.0001082563        0.1817397120    0   0   1
C                0.0001468541        0.0001564189        0.4042607328    0   0   1
C               -0.0004466955       -0.0004850886        0.8825608682    0   0   1
C                0.1666050125        0.3333256555        0.1730954132    0   0   1
C                0.3334806999        0.1667621728        0.4143648161    0   0   1
C                0.1665528562        0.3334241022        0.8781574209    0   0   1
C                0.5000753307        0.0001010795        0.1780933160    0   0   1
C                0.5001259238        0.0000220582        0.4108124230    0   0   1
C                0.4997920819       -0.0002300908        0.8753105389    0   0   1
C                0.6666658409        0.3333189206        0.1738929509    0   0   1
C                0.8334781797        0.1667255402        0.4146726159    0   0   1
C                0.6664954836        0.3332681621        0.8848731877    0   0   1
C                0.0000086922        0.4999181133        0.1808667588    0   0   1
C                0.0001840944        0.5000539492        0.4074938364    0   0   1
C                0.0000398950        0.5001834414        0.8851368776    0   0   1
C                0.1666301448        0.8331988747        0.1740173109    0   0   1
C                0.3335991263        0.6667719339        0.4150321444    0   0   1
C                0.1666108730        0.8332279575        0.8859760073    0   0   1
C                0.4999234220        0.4999346649        0.1820906451    0   0   1
C                0.5002764083        0.5002266163        0.4042919982    0   0   1
C                0.4998665121        0.5001154747        0.8831629323    0   0   1
C                0.6666706280        0.8334586640        0.1731584772    0   0   1
C                0.8334771104        0.6667247027        0.4128300685    0   0   1
C                0.6662903807        0.8330012121        0.8838357439    0   0   1
H                0.8271652756        1.3400235356        0.6454978420
H                0.8389030948        1.1711435216        0.6708970933
H                0.4089368296        0.6673270440        0.6615151947
H                0.6550414471        0.7079205343        0.6398388870
H                0.7932951666        0.5363941596        0.6479457725
H                0.5541640055        0.4523037149        0.6433618916
H                0.1821316593        0.0606716381        0.6511963752
H                0.3524597435        0.2475880214        0.6639774211
H                0.0446855136        0.7076719585        0.6450099031
H                0.2389610049        0.6829610328        0.6616834994
H                0.9482909483        0.8558833374        0.6426889760
H                0.7906990212        0.9510693872        0.6403145786



     Writing config-only to output data dir ../results/6h2_abs/6H2abs_C.save/ :
     XML data file
     NEW-OLD atomic charge density approx. for the potential

     Check: negative core charge=   -0.000004

     total cpu time spent up to now is      104.6 secs

     Self-consistent Calculation

     iteration #  1     ecut=    40.00 Ry     beta= 0.05
     Davidson diagonalization with overlap
     c_bands:  2 eigenvalues not converged
     ethr =  1.00E-06,  avg # of iterations = 20.0

     total cpu time spent up to now is      111.4 secs

     total energy              =    -298.92658864 Ry
     estimated scf accuracy    <       0.08570892 Ry

     iteration #  2     ecut=    40.00 Ry     beta= 0.05
     Davidson diagonalization with overlap
     ethr =  7.94E-05,  avg # of iterations =  8.0

     total cpu time spent up to now is      113.1 secs

     total energy              =    -298.88915055 Ry
     estimated scf accuracy    <       0.08019197 Ry

     iteration #  3     ecut=    40.00 Ry     beta= 0.05
     Davidson diagonalization with overlap
     ethr =  7.43E-05,  avg # of iterations =  2.0

     total cpu time spent up to now is      114.9 secs

     total energy              =    -298.89858145 Ry
     estimated scf accuracy    <       0.00683035 Ry

     iteration #  4     ecut=    40.00 Ry     beta= 0.05
     Davidson diagonalization with overlap
     ethr =  6.32E-06,  avg # of iterations =  7.0

     total cpu time spent up to now is      116.9 secs

     total energy              =    -298.89964592 Ry
     estimated scf accuracy    <       0.00673057 Ry

     iteration #  5     ecut=    40.00 Ry     beta= 0.05
     Davidson diagonalization with overlap
     ethr =  6.23E-06,  avg # of iterations =  1.0

     total cpu time spent up to now is      118.5 secs

     total energy              =    -298.89974049 Ry
     estimated scf accuracy    <       0.00670231 Ry

     iteration #  6     ecut=    40.00 Ry     beta= 0.05
     Davidson diagonalization with overlap
     ethr =  6.21E-06,  avg # of iterations =  1.0

     total cpu time spent up to now is      120.1 secs

     total energy              =    -298.90149699 Ry
     estimated scf accuracy    <       0.00669403 Ry

     iteration #  7     ecut=    40.00 Ry     beta= 0.05
     Davidson diagonalization with overlap
     ethr =  6.20E-06,  avg # of iterations =  4.0

     total cpu time spent up to now is      122.1 secs

     total energy              =    -298.90373560 Ry
     estimated scf accuracy    <       0.01506885 Ry

     iteration #  8     ecut=    40.00 Ry     beta= 0.05
     Davidson diagonalization with overlap
     ethr =  6.20E-06,  avg # of iterations =  1.0

     total cpu time spent up to now is      123.7 secs

     total energy              =    -298.90161038 Ry
     estimated scf accuracy    <       0.01729529 Ry

     iteration #  9     ecut=    40.00 Ry     beta= 0.05
     Davidson diagonalization with overlap
     ethr =  6.20E-06,  avg # of iterations =  1.0

     total cpu time spent up to now is      125.5 secs

     total energy              =    -298.89532101 Ry
     estimated scf accuracy    <       0.01268746 Ry

     iteration # 10     ecut=    40.00 Ry     beta= 0.05
     Davidson diagonalization with overlap
     ethr =  6.20E-06,  avg # of iterations =  4.0

     total cpu time spent up to now is      127.5 secs

     total energy              =    -298.89742096 Ry
     estimated scf accuracy    <       0.00049484 Ry

     iteration # 11     ecut=    40.00 Ry     beta= 0.05
     Davidson diagonalization with overlap
     ethr =  4.58E-07,  avg # of iterations =  4.0

     total cpu time spent up to now is      129.4 secs

     total energy              =    -298.89751577 Ry
     estimated scf accuracy    <       0.00040687 Ry

     iteration # 12     ecut=    40.00 Ry     beta= 0.05
     Davidson diagonalization with overlap
     ethr =  3.77E-07,  avg # of iterations =  1.0

     total cpu time spent up to now is      131.0 secs

     total energy              =    -298.89748499 Ry
     estimated scf accuracy    <       0.00045201 Ry

     iteration # 13     ecut=    40.00 Ry     beta= 0.05
     Davidson diagonalization with overlap
     ethr =  3.77E-07,  avg # of iterations =  2.0

     total cpu time spent up to now is      132.8 secs

     total energy              =    -298.89751129 Ry
     estimated scf accuracy    <       0.00039044 Ry

     iteration # 14     ecut=    40.00 Ry     beta= 0.05
     Davidson diagonalization with overlap
     ethr =  3.62E-07,  avg # of iterations =  4.0

     total cpu time spent up to now is      134.9 secs

     total energy              =    -298.89763387 Ry
     estimated scf accuracy    <       0.00067541 Ry

     iteration # 15     ecut=    40.00 Ry     beta= 0.05
     Davidson diagonalization with overlap
     ethr =  3.62E-07,  avg # of iterations =  1.0

     total cpu time spent up to now is      136.5 secs

     total energy              =    -298.89761111 Ry
     estimated scf accuracy    <       0.00065600 Ry

     iteration # 16     ecut=    40.00 Ry     beta= 0.05
     Davidson diagonalization with overlap
     ethr =  3.62E-07,  avg # of iterations =  1.0

     total cpu time spent up to now is      138.1 secs

     total energy              =    -298.89753308 Ry
     estimated scf accuracy    <       0.00059400 Ry

     iteration # 17     ecut=    40.00 Ry     beta= 0.05
     Davidson diagonalization with overlap
     ethr =  3.62E-07,  avg # of iterations =  1.0

     total cpu time spent up to now is      139.8 secs

     total energy              =    -298.89758153 Ry
     estimated scf accuracy    <       0.00039844 Ry

     iteration # 18     ecut=    40.00 Ry     beta= 0.05
     Davidson diagonalization with overlap
     ethr =  3.62E-07,  avg # of iterations =  1.0

     total cpu time spent up to now is      141.4 secs

     total energy              =    -298.89759998 Ry
     estimated scf accuracy    <       0.00050220 Ry

     iteration # 19     ecut=    40.00 Ry     beta= 0.05
     Davidson diagonalization with overlap
     ethr =  3.62E-07,  avg # of iterations =  1.0

     total cpu time spent up to now is      143.0 secs

     total energy              =    -298.89745259 Ry
     estimated scf accuracy    <       0.00052006 Ry

     iteration # 20     ecut=    40.00 Ry     beta= 0.05
     Davidson diagonalization with overlap
     ethr =  3.62E-07,  avg # of iterations =  1.0

     total cpu time spent up to now is      144.6 secs

     total energy              =    -298.89740920 Ry
     estimated scf accuracy    <       0.00019142 Ry

     iteration # 21     ecut=    40.00 Ry     beta= 0.05
     Davidson diagonalization with overlap
     ethr =  1.77E-07,  avg # of iterations =  3.0

     total cpu time spent up to now is      146.4 secs

     total energy              =    -298.89744886 Ry
     estimated scf accuracy    <       0.00005533 Ry

     iteration # 22     ecut=    40.00 Ry     beta= 0.05
     Davidson diagonalization with overlap
     ethr =  5.12E-08,  avg # of iterations =  2.0

     total cpu time spent up to now is      148.1 secs

     total energy              =    -298.89743660 Ry
     estimated scf accuracy    <       0.00005840 Ry

     iteration # 23     ecut=    40.00 Ry     beta= 0.05
     Davidson diagonalization with overlap
     ethr =  5.12E-08,  avg # of iterations =  2.0

     total cpu time spent up to now is      149.8 secs

     total energy              =    -298.89743872 Ry
     estimated scf accuracy    <       0.00002096 Ry

     iteration # 24     ecut=    40.00 Ry     beta= 0.05
     Davidson diagonalization with overlap
     ethr =  1.94E-08,  avg # of iterations =  4.0

     total cpu time spent up to now is      151.7 secs

     total energy              =    -298.89744180 Ry
     estimated scf accuracy    <       0.00001941 Ry

     iteration # 25     ecut=    40.00 Ry     beta= 0.05
     Davidson diagonalization with overlap
     ethr =  1.80E-08,  avg # of iterations =  1.0

     total cpu time spent up to now is      153.8 secs

     total energy              =    -298.89744105 Ry
     estimated scf accuracy    <       0.00001461 Ry

     iteration # 26     ecut=    40.00 Ry     beta= 0.05
     Davidson diagonalization with overlap
     ethr =  1.35E-08,  avg # of iterations =  2.0

     total cpu time spent up to now is      155.5 secs

     total energy              =    -298.89744214 Ry
     estimated scf accuracy    <       0.00001114 Ry

     iteration # 27     ecut=    40.00 Ry     beta= 0.05
     Davidson diagonalization with overlap
     ethr =  1.03E-08,  avg # of iterations =  1.0

     total cpu time spent up to now is      157.6 secs

     total energy              =    -298.89744084 Ry
     estimated scf accuracy    <       0.00000961 Ry

     iteration # 28     ecut=    40.00 Ry     beta= 0.05
     Davidson diagonalization with overlap
     ethr =  8.90E-09,  avg # of iterations =  4.0

     total cpu time spent up to now is      159.6 secs

     total energy              =    -298.89744191 Ry
     estimated scf accuracy    <       0.00001567 Ry

     iteration # 29     ecut=    40.00 Ry     beta= 0.05
     Davidson diagonalization with overlap
     ethr =  8.90E-09,  avg # of iterations =  1.0

     total cpu time spent up to now is      161.7 secs

     total energy              =    -298.89744076 Ry
     estimated scf accuracy    <       0.00000913 Ry

     iteration # 30     ecut=    40.00 Ry     beta= 0.05
     Davidson diagonalization with overlap
     ethr =  8.46E-09,  avg # of iterations =  2.0

     total cpu time spent up to now is      163.4 secs

     total energy              =    -298.89744169 Ry
     estimated scf accuracy    <       0.00000488 Ry

     iteration # 31     ecut=    40.00 Ry     beta= 0.05
     Davidson diagonalization with overlap
     ethr =  4.52E-09,  avg # of iterations =  1.0

     total cpu time spent up to now is      165.0 secs

     total energy              =    -298.89744164 Ry
     estimated scf accuracy    <       0.00000467 Ry

     iteration # 32     ecut=    40.00 Ry     beta= 0.05
     Davidson diagonalization with overlap
     ethr =  4.33E-09,  avg # of iterations =  2.0

     total cpu time spent up to now is      167.2 secs

     total energy              =    -298.89744075 Ry
     estimated scf accuracy    <       0.00000438 Ry

     iteration # 33     ecut=    40.00 Ry     beta= 0.05
     Davidson diagonalization with overlap
     ethr =  4.06E-09,  avg # of iterations =  2.0

     total cpu time spent up to now is      169.0 secs

     total energy              =    -298.89744151 Ry
     estimated scf accuracy    <       0.00000215 Ry

     iteration # 34     ecut=    40.00 Ry     beta= 0.05
     Davidson diagonalization with overlap
     ethr =  1.99E-09,  avg # of iterations =  1.0

     total cpu time spent up to now is      171.0 secs

     total energy              =    -298.89744146 Ry
     estimated scf accuracy    <       0.00000107 Ry

     iteration # 35     ecut=    40.00 Ry     beta= 0.05
     Davidson diagonalization with overlap
     ethr =  9.91E-10,  avg # of iterations =  2.0

     total cpu time spent up to now is      172.9 secs

     total energy              =    -298.89744180 Ry
     estimated scf accuracy    <       0.00000080 Ry

     iteration # 36     ecut=    40.00 Ry     beta= 0.05
     Davidson diagonalization with overlap
     ethr =  7.43E-10,  avg # of iterations =  1.0

     total cpu time spent up to now is      174.4 secs

     End of self-consistent calculation

          k = 0.0000 0.0000 0.0000 (  3715 PWs)   bands (ev):

   -12.0530 -10.4131 -10.0659  -6.0864  -6.0537  -6.0040  -5.6217  -5.5489
    -5.5423  -5.1811  -4.5891  -4.5760  -4.5588  -4.3391  -4.3174  -4.3111
    -4.1749  -4.1631  -4.1335  -3.8814  -3.8690  -3.8310  -1.2263   1.7716
     2.1947   2.2096   2.2223   2.3527   2.4675   2.6402   2.8396   2.8609
     2.8645   2.8969   3.3058   3.3231   3.3396   3.8815   3.9996   4.8616
     4.9272   5.1669   6.0488   6.0630   6.4214   6.4268   6.5687   6.8791
     6.9407   7.0363   7.0581   7.7355   8.1082   8.1272  10.7318  10.8940
    10.9294  11.4653  11.6150  11.6461  12.3134  12.5172  12.5368  15.4222
    15.6878

     the Fermi energy is     9.4329 ev

!    total energy              =    -298.89744237 Ry
     estimated scf accuracy    <       0.00000063 Ry
     smearing contrib. (-TS)   =      -0.00000000 Ry
     internal energy E=F+TS    =    -298.89744237 Ry

     The total energy is F=E-TS. E is the sum of the following terms:
     one-electron contribution =     -49.82353366 Ry
     hartree contribution      =      89.71226671 Ry
     xc contribution           =    -110.64374246 Ry
     ewald contribution        =    -228.14243297 Ry

     convergence has been achieved in  36 iterations

     Forces acting on atoms (cartesian axes, Ry/au):

     atom    1 type  1   force =    -0.00147959    0.00302293   -0.00610872
     atom    2 type  1   force =     0.00245158    0.00200610    0.01038470
     atom    3 type  1   force =    -0.00320402   -0.01514373    0.00418091
     atom    4 type  1   force =    -0.00028821    0.00066389    0.02550428
     atom    5 type  1   force =     0.00488805   -0.00325669   -0.02559107
     atom    6 type  1   force =    -0.01379588    0.00671765   -0.01041542
     atom    7 type  1   force =     0.00292079   -0.00398131   -0.01092544
     atom    8 type  1   force =    -0.00218902    0.00179497    0.01189549
     atom    9 type  1   force =    -0.01432054    0.01012362   -0.00492984
     atom   10 type  1   force =     0.00350929    0.00147148    0.02409046
     atom   11 type  1   force =    -0.00341847   -0.00012582   -0.02637841
     atom   12 type  1   force =    -0.00223594    0.00371702   -0.00411585
     atom   13 type  1   force =     0.00057582   -0.00129081   -0.00862571
     atom   14 type  1   force =     0.00313786    0.00048104    0.01102158
     atom   15 type  1   force =    -0.00590479   -0.00020137    0.00229225
     atom   16 type  1   force =     0.00193907   -0.00115161    0.02356240
     atom   17 type  1   force =    -0.00351039    0.00142334   -0.02647313
     atom   18 type  1   force =    -0.00487208    0.00216465   -0.00698196
     atom   19 type  1   force =    -0.00385291    0.00116908   -0.00705047
     atom   20 type  1   force =    -0.00167761   -0.00295210    0.01105713
     atom   21 type  1   force =     0.01373657    0.00591874    0.00327496
     atom   22 type  1   force =    -0.00282579    0.00020270    0.02488427
     atom   23 type  1   force =     0.00263748   -0.00035827   -0.02588064
     atom   24 type  1   force =     0.01526068   -0.00341673   -0.00858949
     atom   25 type  2   force =     0.00437446   -0.00380833    0.00105269
     atom   26 type  2   force =     0.00368409    0.00089464    0.00377907
     atom   27 type  2   force =     0.00146884   -0.00262073    0.00205277
     atom   28 type  2   force =    -0.00142425   -0.00565777   -0.00088490
     atom   29 type  2   force =     0.00133534    0.00319070    0.00207989
     atom   30 type  2   force =    -0.00487634   -0.00484713   -0.00076281
     atom   31 type  2   force =     0.00458602    0.00060320    0.00255165
     atom   32 type  2   force =    -0.00174756   -0.00100521    0.00414906
     atom   33 type  2   force =     0.00341004    0.00160098   -0.00087463
     atom   34 type  2   force =     0.00120662   -0.00484337    0.00296712
     atom   35 type  2   force =     0.00157550   -0.00073005    0.00212482
     atom   36 type  2   force =    -0.00107466    0.00822431    0.00168297

     Total force =     0.080986     Total SCF correction =     0.001808


     Computing stress (Cartesian axis) and pressure

          total   stress  (Ry/bohr**3)                   (kbar)     P=      354.63
   0.00347215  -0.00003036  -0.00003304          510.77       -4.47       -4.86
  -0.00003036   0.00350004   0.00001787           -4.47      514.87        2.63
  -0.00003304   0.00001787   0.00026001           -4.86        2.63       38.25

     Energy error            =      9.5E-01 Ry
     Gradient error          =      2.6E-02 Ry/Bohr
     Cell gradient error     =      5.1E+02 kbar

     number of scf cycles    =   3
     number of bfgs steps    =   2

     enthalpy           old  =    -297.9464804230 Ry
     enthalpy           new  =    -298.8974423693 Ry

     CASE: enthalpy          _new < enthalpy          _old

     new trust radius        =       0.1692544952 bohr
     new conv_thr            =       0.0000002647 Ry

     new unit-cell volume =   1364.43323 a.u.^3 (   202.18814 Ang^3 )
     density =      2.46679 g/cm^3

CELL_PARAMETERS (alat=  8.00000437)
   1.156939903  -0.000800242  -0.002397642
  -0.579162876   1.002906676   0.002291597
  -0.004679425   0.002457960   2.297661991

ATOMIC_POSITIONS (crystal)
C               -0.0001000030       -0.0001089254        0.1809649702    0   0   1
C                0.0001457035        0.0001574881        0.4054351719    0   0   1
C               -0.0004471769       -0.0004846294        0.8829902556    0   0   1
C                0.1666023849        0.3333279677        0.1753626562    0   0   1
C                0.3334833416        0.1667598446        0.4120661494    0   0   1
C                0.1665540510        0.3334229653        0.8778549392    0   0   1
C                0.5000766021        0.0000998583        0.1769779969    0   0   1
C                0.5001245322        0.0000233994        0.4120310900    0   0   1
C                0.4997927349       -0.0002307673        0.8755438510    0   0   1
C                0.6666633519        0.3333211158        0.1759112186    0   0   1
C                0.8334809181        0.1667231160        0.4123422806    0   0   1
C                0.6664958821        0.3332678295        0.8844120293    0   0   1
C                0.0000096766        0.4999171799        0.1799193775    0   0   1
C                0.0001828615        0.5000551025        0.4085042916    0   0   1
C                0.0000396235        0.5001837050        0.8850007743    0   0   1
C                0.1666277132        0.8332010171        0.1759564756    0   0   1
C                0.3336018693        0.6667695093        0.4126830614    0   0   1
C                0.1666115884        0.8332273308        0.8850550664    0   0   1
C                0.4999242294        0.4999338976        0.1811860830    0   0   1
C                0.5002751815        0.5002277572        0.4055390619    0   0   1
C                0.4998661243        0.5001158513        0.8833748715    0   0   1
C                0.6666680486        0.8334609447        0.1754022080    0   0   1
C                0.8334798022        0.6667223162        0.4104959423    0   0   1
C                0.6662912766        0.8330004160        0.8829778624    0   0   1
H                0.8276055330        1.3383946493        0.6458249856
H                0.8394784045        1.1721972818        0.6708924689
H                0.4075813756        0.6669421350        0.6616632782
H                0.6546437023        0.7069368634        0.6397909522
H                0.7937647754        0.5371065029        0.6481165751
H                0.5535424356        0.4519240316        0.6433449486
H                0.1840574614        0.0619034155        0.6515453263
H                0.3510822070        0.2462278591        0.6641536946
H                0.0447469586        0.7080477756        0.6449535096
H                0.2399112964        0.6817882485        0.6618891767
H                0.9483664174        0.8554229129        0.6429296553
H                0.7914361143        0.9519854961        0.6405603855



     Writing config-only to output data dir ../results/6h2_abs/6H2abs_C.save/ :
     XML data file
     NEW-OLD atomic charge density approx. for the potential

     Check: negative core charge=   -0.000005

     total cpu time spent up to now is      178.9 secs

     Self-consistent Calculation

     iteration #  1     ecut=    40.00 Ry     beta= 0.05
     Davidson diagonalization with overlap
     ethr =  1.00E-06,  avg # of iterations = 15.0

     total cpu time spent up to now is      184.3 secs

     total energy              =    -299.03527211 Ry
     estimated scf accuracy    <       0.01642916 Ry

     iteration #  2     ecut=    40.00 Ry     beta= 0.05
     Davidson diagonalization with overlap
     ethr =  1.52E-05,  avg # of iterations =  1.0

     total cpu time spent up to now is      185.9 secs

     total energy              =    -299.02635412 Ry
     estimated scf accuracy    <       0.01530563 Ry

     iteration #  3     ecut=    40.00 Ry     beta= 0.05
     Davidson diagonalization with overlap
     ethr =  1.42E-05,  avg # of iterations =  2.0

     total cpu time spent up to now is      187.9 secs

     total energy              =    -299.02852484 Ry
     estimated scf accuracy    <       0.00065487 Ry

     iteration #  4     ecut=    40.00 Ry     beta= 0.05
     Davidson diagonalization with overlap
     ethr =  6.06E-07,  avg # of iterations =  4.0

     total cpu time spent up to now is      189.9 secs

     total energy              =    -299.02869524 Ry
     estimated scf accuracy    <       0.00061491 Ry

     iteration #  5     ecut=    40.00 Ry     beta= 0.05
     Davidson diagonalization with overlap
     ethr =  5.69E-07,  avg # of iterations =  2.0

     total cpu time spent up to now is      191.6 secs

     total energy              =    -299.02854049 Ry
     estimated scf accuracy    <       0.00063000 Ry

     iteration #  6     ecut=    40.00 Ry     beta= 0.05
     Davidson diagonalization with overlap
     ethr =  5.69E-07,  avg # of iterations =  1.0

     total cpu time spent up to now is      193.2 secs

     total energy              =    -299.02849314 Ry
     estimated scf accuracy    <       0.00028249 Ry

     iteration #  7     ecut=    40.00 Ry     beta= 0.05
     Davidson diagonalization with overlap
     ethr =  2.62E-07,  avg # of iterations =  2.0

     total cpu time spent up to now is      194.9 secs

     total energy              =    -299.02850503 Ry
     estimated scf accuracy    <       0.00009607 Ry

     iteration #  8     ecut=    40.00 Ry     beta= 0.05
     Davidson diagonalization with overlap
     ethr =  8.90E-08,  avg # of iterations =  1.0

     total cpu time spent up to now is      196.9 secs

     total energy              =    -299.02848397 Ry
     estimated scf accuracy    <       0.00006095 Ry

     iteration #  9     ecut=    40.00 Ry     beta= 0.05
     Davidson diagonalization with overlap
     ethr =  5.64E-08,  avg # of iterations =  2.0

     total cpu time spent up to now is      198.8 secs

     total energy              =    -299.02850078 Ry
     estimated scf accuracy    <       0.00001850 Ry

     iteration # 10     ecut=    40.00 Ry     beta= 0.05
     Davidson diagonalization with overlap
     ethr =  1.71E-08,  avg # of iterations =  2.0

     total cpu time spent up to now is      200.5 secs

     total energy              =    -299.02850089 Ry
     estimated scf accuracy    <       0.00001811 Ry

     iteration # 11     ecut=    40.00 Ry     beta= 0.05
     Davidson diagonalization with overlap
     ethr =  1.68E-08,  avg # of iterations =  1.0

     total cpu time spent up to now is      202.1 secs

     total energy              =    -299.02849505 Ry
     estimated scf accuracy    <       0.00001610 Ry

     iteration # 12     ecut=    40.00 Ry     beta= 0.05
     Davidson diagonalization with overlap
     ethr =  1.49E-08,  avg # of iterations =  1.0

     total cpu time spent up to now is      203.8 secs

     total energy              =    -299.02849574 Ry
     estimated scf accuracy    <       0.00000298 Ry

     iteration # 13     ecut=    40.00 Ry     beta= 0.05
     Davidson diagonalization with overlap
     ethr =  2.76E-09,  avg # of iterations =  4.0

     total cpu time spent up to now is      206.1 secs

     total energy              =    -299.02849737 Ry
     estimated scf accuracy    <       0.00000245 Ry

     iteration # 14     ecut=    40.00 Ry     beta= 0.05
     Davidson diagonalization with overlap
     ethr =  2.27E-09,  avg # of iterations =  1.0

     total cpu time spent up to now is      207.7 secs

     total energy              =    -299.02849761 Ry
     estimated scf accuracy    <       0.00000245 Ry

     iteration # 15     ecut=    40.00 Ry     beta= 0.05
     Davidson diagonalization with overlap
     ethr =  2.27E-09,  avg # of iterations =  1.0

     total cpu time spent up to now is      209.3 secs

     total energy              =    -299.02849764 Ry
     estimated scf accuracy    <       0.00000213 Ry

     iteration # 16     ecut=    40.00 Ry     beta= 0.05
     Davidson diagonalization with overlap
     ethr =  1.97E-09,  avg # of iterations =  2.0

     total cpu time spent up to now is      210.9 secs

     total energy              =    -299.02849819 Ry
     estimated scf accuracy    <       0.00000076 Ry

     iteration # 17     ecut=    40.00 Ry     beta= 0.05
     Davidson diagonalization with overlap
     ethr =  7.00E-10,  avg # of iterations =  4.0

     total cpu time spent up to now is      213.4 secs

     total energy              =    -299.02849876 Ry
     estimated scf accuracy    <       0.00000104 Ry

     iteration # 18     ecut=    40.00 Ry     beta= 0.05
     Davidson diagonalization with overlap
     ethr =  7.00E-10,  avg # of iterations =  1.0

     total cpu time spent up to now is      215.0 secs

     total energy              =    -299.02849838 Ry
     estimated scf accuracy    <       0.00000085 Ry

     iteration # 19     ecut=    40.00 Ry     beta= 0.05
     Davidson diagonalization with overlap
     ethr =  7.00E-10,  avg # of iterations =  4.0

     total cpu time spent up to now is      217.0 secs

     End of self-consistent calculation

          k = 0.0000 0.0000 0.0000 (  3715 PWs)   bands (ev):

   -12.1887 -10.6651 -10.3131  -6.5392  -6.5270  -6.4512  -5.9914  -5.9283
    -5.9234  -5.3418  -5.1567  -5.1405  -5.1175  -4.8037  -4.7962  -4.7801
    -4.5398  -4.5280  -4.5078  -4.2735  -4.2586  -4.2224  -1.4277   1.3817
     1.6186   1.6391   1.6474   1.8272   1.9787   2.1425   2.2620   2.2790
     2.2878   2.3094   2.6371   2.6623   2.6771   3.4160   3.4905   4.3895
     4.4232   4.6535   5.2553   5.2667   5.6049   5.6137   5.9238   6.1127
     6.1397   6.2906   6.2963   7.0136   7.3644   7.3807   9.8787  10.0500
    10.0922  10.6616  10.8035  10.8219  11.4031  11.5677  11.5891  14.5734
    14.8974

     the Fermi energy is     8.8061 ev

!    total energy              =    -299.02849995 Ry
     estimated scf accuracy    <       0.00000019 Ry
     smearing contrib. (-TS)   =      -0.00000000 Ry
     internal energy E=F+TS    =    -299.02849995 Ry

     The total energy is F=E-TS. E is the sum of the following terms:
     one-electron contribution =     -55.32997358 Ry
     hartree contribution      =      89.44769848 Ry
     xc contribution           =    -109.18368853 Ry
     ewald contribution        =    -223.96253633 Ry

     convergence has been achieved in  19 iterations

     Forces acting on atoms (cartesian axes, Ry/au):

     atom    1 type  1   force =     0.00079642    0.00332402    0.00314686
     atom    2 type  1   force =     0.00033750    0.00094368   -0.00151830
     atom    3 type  1   force =    -0.00010100   -0.01290935   -0.00238596
     atom    4 type  1   force =    -0.00293725    0.00035253    0.01055080
     atom    5 type  1   force =     0.00811490   -0.00317988   -0.00665370
     atom    6 type  1   force =    -0.01473548    0.00539962    0.00097714
     atom    7 type  1   force =     0.00420173   -0.00274497    0.00364322
     atom    8 type  1   force =    -0.00364514    0.00093063   -0.00621894
     atom    9 type  1   force =    -0.01051465    0.01012083    0.00079011
     atom   10 type  1   force =     0.00092980   -0.00002015    0.00831323
     atom   11 type  1   force =    -0.00277872    0.00054085   -0.00750204
     atom   12 type  1   force =    -0.00405830    0.00304657   -0.00323768
     atom   13 type  1   force =     0.00218321   -0.00001885    0.00251322
     atom   14 type  1   force =     0.00095649   -0.00065935   -0.00303215
     atom   15 type  1   force =    -0.00248926    0.00081311   -0.00387843
     atom   16 type  1   force =     0.00019721   -0.00139534    0.00801267
     atom   17 type  1   force =    -0.00176526    0.00354663   -0.00770636
     atom   18 type  1   force =    -0.00727566   -0.00009253   -0.00504054
     atom   19 type  1   force =    -0.00135930    0.00164141    0.00229535
     atom   20 type  1   force =    -0.00311607   -0.00329078   -0.00074228
     atom   21 type  1   force =     0.01478205    0.00599346   -0.00309646
     atom   22 type  1   force =    -0.00596379    0.00034713    0.00904594
     atom   23 type  1   force =     0.00497707   -0.00013633   -0.00613448
     atom   24 type  1   force =     0.01218263   -0.00467848   -0.00460303
     atom   25 type  2   force =     0.00132536   -0.00020923    0.00187849
     atom   26 type  2   force =     0.00318226   -0.00159838   -0.00021180
     atom   27 type  2   force =     0.00157839   -0.00162215    0.00073683
     atom   28 type  2   force =    -0.00002933   -0.00232342   -0.00004143
     atom   29 type  2   force =     0.00078934    0.00109224    0.00043426
     atom   30 type  2   force =    -0.00052885   -0.00064835    0.00052468
     atom   31 type  2   force =     0.00237896   -0.00092095    0.00209138
     atom   32 type  2   force =    -0.00001407    0.00184514    0.00162188
     atom   33 type  2   force =    -0.00048488    0.00092198   -0.00010849
     atom   34 type  2   force =    -0.00150843   -0.00411540    0.00129307
     atom   35 type  2   force =     0.00130695   -0.00108469    0.00163573
     atom   36 type  2   force =     0.00308515    0.00078874    0.00260719

     Total force =     0.028142     Total SCF correction =     0.000909


     Computing stress (Cartesian axis) and pressure

          total   stress  (Ry/bohr**3)                   (kbar)     P=       61.43
   0.00065497   0.00006806  -0.00002142           96.35       10.01       -3.15
   0.00006806   0.00060392   0.00001127           10.01       88.84        1.66
  -0.00002142   0.00001127  -0.00000604           -3.15        1.66       -0.89

     Energy error            =      1.3E-01 Ry
     Gradient error          =      1.1E-02 Ry/Bohr
     Cell gradient error     =      9.6E+01 kbar

     number of scf cycles    =   4
     number of bfgs steps    =   3

     enthalpy           old  =    -298.8974423693 Ry
     enthalpy           new  =    -299.0284999548 Ry

     CASE: enthalpy          _new < enthalpy          _old

     new trust radius        =       0.0496742712 bohr
     new conv_thr            =       0.0000001055 Ry

     new unit-cell volume =   1381.95174 a.u.^3 (   204.78412 Ang^3 )
     density =      2.43552 g/cm^3

CELL_PARAMETERS (alat=  8.00000437)
   1.164154331   0.001962689  -0.003365448
  -0.580377441   1.005946033   0.003208564
  -0.006490360   0.003406597   2.302603988

ATOMIC_POSITIONS (crystal)
C               -0.0001007618       -0.0001082705        0.1811648380    0   0   1
C                0.0001460244        0.0001572130        0.4054004427    0   0   1
C               -0.0004465984       -0.0004851292        0.8828090471    0   0   1
C                0.1665995708        0.3333304024        0.1763914053    0   0   1
C                0.3334851610        0.1667582774        0.4113787901    0   0   1
C                0.1665538785        0.3334231037        0.8780443400    0   0   1
C                0.5000757563        0.0001005808        0.1772209388    0   0   1
C                0.5001260271        0.0000221129        0.4115672115    0   0   1
C                0.4997925909       -0.0002306624        0.8757450344    0   0   1
C                0.6666611146        0.3333230494        0.1767069809    0   0   1
C                0.8334829618        0.1667213509        0.4115844346    0   0   1
C                0.6664967224        0.3332671039        0.8840884985    0   0   1
C                0.0000090969        0.4999176767        0.1800644581    0   0   1
C                0.0001835624        0.5000544981        0.4082859549    0   0   1
C                0.0000405960        0.5001828603        0.8845851694    0   0   1
C                0.1666255559        0.8332028809        0.1767158162    0   0   1
C                0.3336039644        0.6667677003        0.4119046065    0   0   1
C                0.1666129080        0.8332261855        0.8845110070    0   0   1
C                0.4999236946        0.4999343565        0.1812953093    0   0   1
C                0.5002752993        0.5002276601        0.4055793914    0   0   1
C                0.4998668887        0.5001151900        0.8830949020    0   0   1
C                0.6666656183        0.8334630476        0.1763031682    0   0   1
C                0.8334814952        0.6667208560        0.4098501391    0   0   1
C                0.6662924954        0.8329993575        0.8825147427    0   0   1
H                0.8278492551        1.3381247967        0.6460491634
H                0.8398781393        1.1720805602        0.6708114171
H                0.4073853180        0.6666174120        0.6617293922
H                0.6544606225        0.7064460553        0.6397891781
H                0.7940191456        0.5373701398        0.6481610675
H                0.5534905396        0.4518880717        0.6433986300
H                0.1846658215        0.0619697681        0.6517697571
H                0.3510284338        0.2463301228        0.6642717417
H                0.0446318826        0.7082652544        0.6449441934
H                0.2394913025        0.6808563526        0.6620030327
H                0.9484678679        0.8551256393        0.6430958447
H                0.7921120477        0.9520430693        0.6408197269



     Writing config-only to output data dir ../results/6h2_abs/6H2abs_C.save/ :
     XML data file
     NEW-OLD atomic charge density approx. for the potential

     Check: negative core charge=   -0.000005

     total cpu time spent up to now is      221.2 secs

     Self-consistent Calculation

     iteration #  1     ecut=    40.00 Ry     beta= 0.05
     Davidson diagonalization with overlap
     c_bands:  1 eigenvalues not converged
     ethr =  1.00E-06,  avg # of iterations = 20.0

     total cpu time spent up to now is      225.2 secs

     total energy              =    -299.03457723 Ry
     estimated scf accuracy    <       0.00111719 Ry

     iteration #  2     ecut=    40.00 Ry     beta= 0.05
     Davidson diagonalization with overlap
     c_bands:  1 eigenvalues not converged
     ethr =  1.03E-06,  avg # of iterations = 20.0

     total cpu time spent up to now is      227.1 secs

     total energy              =    -299.03428434 Ry
     estimated scf accuracy    <       0.00106146 Ry

     iteration #  3     ecut=    40.00 Ry     beta= 0.05
     Davidson diagonalization with overlap
     c_bands:  1 eigenvalues not converged
     ethr =  9.83E-07,  avg # of iterations = 20.0

     total cpu time spent up to now is      229.0 secs

     total energy              =    -299.03407031 Ry
     estimated scf accuracy    <       0.00043410 Ry

     iteration #  4     ecut=    40.00 Ry     beta= 0.05
     Davidson diagonalization with overlap
     ethr =  4.02E-07,  avg # of iterations =  2.0

     total cpu time spent up to now is      231.0 secs

     total energy              =    -299.03414783 Ry
     estimated scf accuracy    <       0.00003065 Ry

     iteration #  5     ecut=    40.00 Ry     beta= 0.05
     Davidson diagonalization with overlap
     ethr =  2.84E-08,  avg # of iterations =  4.0

     total cpu time spent up to now is      232.8 secs

     total energy              =    -299.03415118 Ry
     estimated scf accuracy    <       0.00002715 Ry

     iteration #  6     ecut=    40.00 Ry     beta= 0.05
     Davidson diagonalization with overlap
     ethr =  2.51E-08,  avg # of iterations =  1.0

     total cpu time spent up to now is      234.4 secs

     total energy              =    -299.03413990 Ry
     estimated scf accuracy    <       0.00002703 Ry

     iteration #  7     ecut=    40.00 Ry     beta= 0.05
     Davidson diagonalization with overlap
     ethr =  2.50E-08,  avg # of iterations =  2.0

     total cpu time spent up to now is      236.6 secs

     total energy              =    -299.03414376 Ry
     estimated scf accuracy    <       0.00000548 Ry

     iteration #  8     ecut=    40.00 Ry     beta= 0.05
     Davidson diagonalization with overlap
     ethr =  5.07E-09,  avg # of iterations =  2.0

     total cpu time spent up to now is      238.4 secs

     total energy              =    -299.03414281 Ry
     estimated scf accuracy    <       0.00000530 Ry

     iteration #  9     ecut=    40.00 Ry     beta= 0.05
     Davidson diagonalization with overlap
     ethr =  4.91E-09,  avg # of iterations =  2.0

     total cpu time spent up to now is      240.1 secs

     total energy              =    -299.03414278 Ry
     estimated scf accuracy    <       0.00000159 Ry

     iteration # 10     ecut=    40.00 Ry     beta= 0.05
     Davidson diagonalization with overlap
     ethr =  1.47E-09,  avg # of iterations =  3.0

     total cpu time spent up to now is      241.9 secs

     total energy              =    -299.03414317 Ry
     estimated scf accuracy    <       0.00000066 Ry

     iteration # 11     ecut=    40.00 Ry     beta= 0.05
     Davidson diagonalization with overlap
     ethr =  6.14E-10,  avg # of iterations =  1.0

     total cpu time spent up to now is      243.9 secs

     total energy              =    -299.03414289 Ry
     estimated scf accuracy    <       0.00000066 Ry

     iteration # 12     ecut=    40.00 Ry     beta= 0.05
     Davidson diagonalization with overlap
     ethr =  6.12E-10,  avg # of iterations =  2.0

     total cpu time spent up to now is      245.6 secs

     total energy              =    -299.03414289 Ry
     estimated scf accuracy    <       0.00000032 Ry

     iteration # 13     ecut=    40.00 Ry     beta= 0.05
     Davidson diagonalization with overlap
     ethr =  2.96E-10,  avg # of iterations =  2.0

     total cpu time spent up to now is      247.4 secs

     total energy              =    -299.03414296 Ry
     estimated scf accuracy    <       0.00000013 Ry

     iteration # 14     ecut=    40.00 Ry     beta= 0.05
     Davidson diagonalization with overlap
     ethr =  1.20E-10,  avg # of iterations =  1.0

     total cpu time spent up to now is      249.1 secs

     total energy              =    -299.03414303 Ry
     estimated scf accuracy    <       0.00000013 Ry

     iteration # 15     ecut=    40.00 Ry     beta= 0.05
     Davidson diagonalization with overlap
     ethr =  1.16E-10,  avg # of iterations =  2.0

     total cpu time spent up to now is      251.1 secs

     End of self-consistent calculation

          k = 0.0000 0.0000 0.0000 (  3715 PWs)   bands (ev):

   -12.2299 -10.6948 -10.3412  -6.6676  -6.6139  -6.5681  -6.0876  -6.0238
    -5.9996  -5.3655  -5.2804  -5.2371  -5.2114  -4.8854  -4.8596  -4.8571
    -4.5941  -4.5852  -4.5642  -4.3345  -4.3259  -4.2818  -1.4718   1.3183
     1.4859   1.4984   1.5529   1.7022   1.9098   2.0214   2.1476   2.1550
     2.2093   2.2258   2.5070   2.5301   2.5779   3.3233   3.4412   4.2620
     4.3280   4.5286   5.0879   5.1043   5.4377   5.4507   5.7912   5.9462
     5.9787   6.1453   6.1864   6.8693   7.2081   7.2500   9.7285   9.9002
     9.9374  10.5052  10.6457  10.6627  11.2236  11.3810  11.4023  14.3813
    14.5901

     the Fermi energy is     8.5654 ev

!    total energy              =    -299.03414331 Ry
     estimated scf accuracy    <       0.00000008 Ry
     smearing contrib. (-TS)   =      -0.00000000 Ry
     internal energy E=F+TS    =    -299.03414331 Ry

     The total energy is F=E-TS. E is the sum of the following terms:
     one-electron contribution =     -56.58475114 Ry
     hartree contribution      =      89.47292035 Ry
     xc contribution           =    -108.86581896 Ry
     ewald contribution        =    -223.05649356 Ry

     convergence has been achieved in  15 iterations

     Forces acting on atoms (cartesian axes, Ry/au):

     atom    1 type  1   force =    -0.00295519    0.00141553    0.00546325
     atom    2 type  1   force =     0.00403662    0.00255304   -0.00339354
     atom    3 type  1   force =    -0.00448237   -0.01474930   -0.00265752
     atom    4 type  1   force =     0.00087372    0.00208373    0.00418230
     atom    5 type  1   force =     0.00423330   -0.00463341   -0.00194013
     atom    6 type  1   force =    -0.00989554    0.00712604    0.00138807
     atom    7 type  1   force =     0.00013356   -0.00416342    0.00688570
     atom    8 type  1   force =     0.00048750    0.00245546   -0.00794981
     atom    9 type  1   force =    -0.01493034    0.00824731    0.00068172
[...]

     total energy              =    -298.81936713 Ry
     estimated scf accuracy    <       2.54972056 Ry

     iteration #  3     ecut=    40.00 Ry     beta= 0.05
     Davidson diagonalization with overlap
     ethr =  2.36E-03,  avg # of iterations =  2.0

     total cpu time spent up to now is     1644.2 secs

     total energy              =    -299.14451890 Ry
     estimated scf accuracy    <       0.04423299 Ry

     iteration #  4     ecut=    40.00 Ry     beta= 0.05
     Davidson diagonalization with overlap
     ethr =  4.10E-05,  avg # of iterations =  6.0

     total cpu time spent up to now is     1649.6 secs

     total energy              =    -299.21055596 Ry
     estimated scf accuracy    <       0.02606498 Ry

     iteration #  5     ecut=    40.00 Ry     beta= 0.05
     Davidson diagonalization with overlap
     ethr =  2.41E-05,  avg # of iterations =  2.0

     total cpu time spent up to now is     1653.2 secs

     total energy              =    -299.19904648 Ry
     estimated scf accuracy    <       0.03145047 Ry

     iteration #  6     ecut=    40.00 Ry     beta= 0.05
     Davidson diagonalization with overlap
     ethr =  2.41E-05,  avg # of iterations =  2.0

     total cpu time spent up to now is     1656.8 secs

     total energy              =    -299.20238880 Ry
     estimated scf accuracy    <       0.00343572 Ry

     iteration #  7     ecut=    40.00 Ry     beta= 0.05
     Davidson diagonalization with overlap
     c_bands:  1 eigenvalues not converged
     ethr =  3.18E-06,  avg # of iterations = 20.0

     total cpu time spent up to now is     1662.0 secs

     total energy              =    -299.20303380 Ry
     estimated scf accuracy    <       0.00468523 Ry

     iteration #  8     ecut=    40.00 Ry     beta= 0.05
     Davidson diagonalization with overlap
     ethr =  3.18E-06,  avg # of iterations =  1.0

     total cpu time spent up to now is     1665.4 secs

     total energy              =    -299.20217116 Ry
     estimated scf accuracy    <       0.00309927 Ry

     iteration #  9     ecut=    40.00 Ry     beta= 0.05
     Davidson diagonalization with overlap
     ethr =  2.87E-06,  avg # of iterations =  4.0

     total cpu time spent up to now is     1669.4 secs

     total energy              =    -299.20249639 Ry
     estimated scf accuracy    <       0.00146548 Ry

     iteration # 10     ecut=    40.00 Ry     beta= 0.05
     Davidson diagonalization with overlap
     ethr =  1.36E-06,  avg # of iterations =  1.0

     total cpu time spent up to now is     1672.7 secs

     total energy              =    -299.20265345 Ry
     estimated scf accuracy    <       0.00063520 Ry

     iteration # 11     ecut=    40.00 Ry     beta= 0.05
     Davidson diagonalization with overlap
     ethr =  5.88E-07,  avg # of iterations =  1.0

     total cpu time spent up to now is     1675.6 secs

     total energy              =    -299.20254738 Ry
     estimated scf accuracy    <       0.00081864 Ry

     iteration # 12     ecut=    40.00 Ry     beta= 0.05
     Davidson diagonalization with overlap
     ethr =  5.88E-07,  avg # of iterations =  1.0

     total cpu time spent up to now is     1678.9 secs

     total energy              =    -299.20232882 Ry
     estimated scf accuracy    <       0.00060732 Ry

     iteration # 13     ecut=    40.00 Ry     beta= 0.05
     Davidson diagonalization with overlap
     ethr =  5.62E-07,  avg # of iterations =  2.0

     total cpu time spent up to now is     1682.0 secs

     total energy              =    -299.20238008 Ry
     estimated scf accuracy    <       0.00016069 Ry

     iteration # 14     ecut=    40.00 Ry     beta= 0.05
     Davidson diagonalization with overlap
     ethr =  1.49E-07,  avg # of iterations =  4.0

     total cpu time spent up to now is     1685.4 secs

     total energy              =    -299.20239651 Ry
     estimated scf accuracy    <       0.00016346 Ry

     iteration # 15     ecut=    40.00 Ry     beta= 0.05
     Davidson diagonalization with overlap
     ethr =  1.49E-07,  avg # of iterations =  1.0

     total cpu time spent up to now is     1688.8 secs

     total energy              =    -299.20236249 Ry
     estimated scf accuracy    <       0.00016057 Ry

     iteration # 16     ecut=    40.00 Ry     beta= 0.05
     Davidson diagonalization with overlap
     ethr =  1.49E-07,  avg # of iterations =  2.0

     total cpu time spent up to now is     1692.2 secs

     total energy              =    -299.20236715 Ry
     estimated scf accuracy    <       0.00011802 Ry

     iteration # 17     ecut=    40.00 Ry     beta= 0.05
     Davidson diagonalization with overlap
     ethr =  1.09E-07,  avg # of iterations =  2.0

     total cpu time spent up to now is     1695.2 secs

     total energy              =    -299.20236945 Ry
     estimated scf accuracy    <       0.00010555 Ry

     iteration # 18     ecut=    40.00 Ry     beta= 0.05
     Davidson diagonalization with overlap
     ethr =  9.77E-08,  avg # of iterations =  1.0

     total cpu time spent up to now is     1698.5 secs

     total energy              =    -299.20233329 Ry
     estimated scf accuracy    <       0.00009414 Ry

     iteration # 19     ecut=    40.00 Ry     beta= 0.05
     Davidson diagonalization with overlap
     ethr =  8.72E-08,  avg # of iterations =  4.0

     total cpu time spent up to now is     1702.3 secs

     total energy              =    -299.20235608 Ry
     estimated scf accuracy    <       0.00005255 Ry

     iteration # 20     ecut=    40.00 Ry     beta= 0.05
     Davidson diagonalization with overlap
     ethr =  4.87E-08,  avg # of iterations =  4.0

     total cpu time spent up to now is     1706.6 secs

     total energy              =    -299.20236991 Ry
     estimated scf accuracy    <       0.00009807 Ry

     iteration # 21     ecut=    40.00 Ry     beta= 0.05
     Davidson diagonalization with overlap
     ethr =  4.87E-08,  avg # of iterations =  1.0

     total cpu time spent up to now is     1709.4 secs

     total energy              =    -299.20234530 Ry
     estimated scf accuracy    <       0.00008927 Ry

     iteration # 22     ecut=    40.00 Ry     beta= 0.05
     Davidson diagonalization with overlap
     ethr =  4.87E-08,  avg # of iterations =  2.0

     total cpu time spent up to now is     1713.0 secs

     total energy              =    -299.20234467 Ry
     estimated scf accuracy    <       0.00003788 Ry

     iteration # 23     ecut=    40.00 Ry     beta= 0.05
     Davidson diagonalization with overlap
     ethr =  3.51E-08,  avg # of iterations =  1.0

     total cpu time spent up to now is     1716.2 secs

     total energy              =    -299.20234345 Ry
     estimated scf accuracy    <       0.00002876 Ry

     iteration # 24     ecut=    40.00 Ry     beta= 0.05
     Davidson diagonalization with overlap
     ethr =  2.66E-08,  avg # of iterations =  2.0

     total cpu time spent up to now is     1719.2 secs

     total energy              =    -299.20234874 Ry
     estimated scf accuracy    <       0.00002172 Ry

     iteration # 25     ecut=    40.00 Ry     beta= 0.05
     Davidson diagonalization with overlap
     ethr =  2.01E-08,  avg # of iterations =  1.0

     total cpu time spent up to now is     1722.6 secs

     total energy              =    -299.20234003 Ry
     estimated scf accuracy    <       0.00003267 Ry

     iteration # 26     ecut=    40.00 Ry     beta= 0.05
     Davidson diagonalization with overlap
     ethr =  2.01E-08,  avg # of iterations =  2.0

     total cpu time spent up to now is     1726.1 secs

     total energy              =    -299.20233696 Ry
     estimated scf accuracy    <       0.00001308 Ry

     iteration # 27     ecut=    40.00 Ry     beta= 0.05
     Davidson diagonalization with overlap
     ethr =  1.21E-08,  avg # of iterations =  4.0

     total cpu time spent up to now is     1730.1 secs

     total energy              =    -299.20234137 Ry
     estimated scf accuracy    <       0.00000373 Ry

     iteration # 28     ecut=    40.00 Ry     beta= 0.05
     Davidson diagonalization with overlap
     ethr =  3.45E-09,  avg # of iterations =  2.0

     total cpu time spent up to now is     1733.1 secs

     total energy              =    -299.20234123 Ry
     estimated scf accuracy    <       0.00000320 Ry

     iteration # 29     ecut=    40.00 Ry     beta= 0.05
     Davidson diagonalization with overlap
     ethr =  2.97E-09,  avg # of iterations =  1.0

     total cpu time spent up to now is     1736.6 secs

     total energy              =    -299.20234118 Ry
     estimated scf accuracy    <       0.00000264 Ry

     iteration # 30     ecut=    40.00 Ry     beta= 0.05
     Davidson diagonalization with overlap
     ethr =  2.44E-09,  avg # of iterations =  1.0

     total cpu time spent up to now is     1739.4 secs

     total energy              =    -299.20234095 Ry
     estimated scf accuracy    <       0.00000230 Ry

     iteration # 31     ecut=    40.00 Ry     beta= 0.05
     Davidson diagonalization with overlap
     ethr =  2.13E-09,  avg # of iterations =  4.0

     total cpu time spent up to now is     1742.9 secs

     total energy              =    -299.20234103 Ry
     estimated scf accuracy    <       0.00000153 Ry

     iteration # 32     ecut=    40.00 Ry     beta= 0.05
     Davidson diagonalization with overlap
     ethr =  1.42E-09,  avg # of iterations =  4.0

     total cpu time spent up to now is     1747.0 secs

     total energy              =    -299.20234050 Ry
     estimated scf accuracy    <       0.00000237 Ry

     iteration # 33     ecut=    40.00 Ry     beta= 0.05
     Davidson diagonalization with overlap
     ethr =  1.42E-09,  avg # of iterations =  2.0

     total cpu time spent up to now is     1750.4 secs

     total energy              =    -299.20234056 Ry
     estimated scf accuracy    <       0.00000083 Ry

     iteration # 34     ecut=    40.00 Ry     beta= 0.05
     Davidson diagonalization with overlap
     ethr =  7.69E-10,  avg # of iterations =  5.0

     total cpu time spent up to now is     1754.8 secs

     total energy              =    -299.20234057 Ry
     estimated scf accuracy    <       0.00000165 Ry

     iteration # 35     ecut=    40.00 Ry     beta= 0.05
     Davidson diagonalization with overlap
     ethr =  7.69E-10,  avg # of iterations =  4.0

     total cpu time spent up to now is     1758.5 secs

     total energy              =    -299.20234070 Ry
     estimated scf accuracy    <       0.00000039 Ry

     iteration # 36     ecut=    40.00 Ry     beta= 0.05
     Davidson diagonalization with overlap
     ethr =  3.60E-10,  avg # of iterations =  4.0

     total cpu time spent up to now is     1762.3 secs

     total energy              =    -299.20234084 Ry
     estimated scf accuracy    <       0.00000027 Ry

     iteration # 37     ecut=    40.00 Ry     beta= 0.05
     Davidson diagonalization with overlap
     ethr =  2.51E-10,  avg # of iterations =  2.0

     total cpu time spent up to now is     1765.3 secs

     total energy              =    -299.20234090 Ry
     estimated scf accuracy    <       0.00000025 Ry

     iteration # 38     ecut=    40.00 Ry     beta= 0.05
     Davidson diagonalization with overlap
     ethr =  2.32E-10,  avg # of iterations =  1.0

     total cpu time spent up to now is     1768.6 secs

     total energy              =    -299.20234084 Ry
     estimated scf accuracy    <       0.00000017 Ry

     iteration # 39     ecut=    40.00 Ry     beta= 0.05
     Davidson diagonalization with overlap
     ethr =  1.62E-10,  avg # of iterations =  2.0

     total cpu time spent up to now is     1772.2 secs

     total energy              =    -299.20234076 Ry
     estimated scf accuracy    <       0.00000013 Ry

     iteration # 40     ecut=    40.00 Ry     beta= 0.05
     Davidson diagonalization with overlap
     ethr =  1.20E-10,  avg # of iterations =  2.0

     total cpu time spent up to now is     1775.3 secs

     total energy              =    -299.20234077 Ry
     estimated scf accuracy    <       0.00000006 Ry

     iteration # 41     ecut=    40.00 Ry     beta= 0.05
     Davidson diagonalization with overlap
     ethr =  5.14E-11,  avg # of iterations =  2.0

     total cpu time spent up to now is     1778.7 secs

     total energy              =    -299.20234083 Ry
     estimated scf accuracy    <       0.00000003 Ry

     iteration # 42     ecut=    40.00 Ry     beta= 0.05
     Davidson diagonalization with overlap
     ethr =  2.57E-11,  avg # of iterations =  5.0

     total cpu time spent up to now is     1783.1 secs

     total energy              =    -299.20234084 Ry
     estimated scf accuracy    <       0.00000002 Ry

     iteration # 43     ecut=    40.00 Ry     beta= 0.05
     Davidson diagonalization with overlap
     ethr =  1.61E-11,  avg # of iterations =  1.0

     total cpu time spent up to now is     1786.2 secs

     End of self-consistent calculation

          k = 0.0000 0.0000 0.0000 (  5929 PWs)   bands (ev):

   -12.2983 -10.6646 -10.3237  -6.7186  -6.7102  -6.6196  -6.1202  -6.0634
    -6.0608  -5.2635  -5.2351  -5.2176  -5.1031  -4.8694  -4.8525  -4.8472
    -4.5789  -4.5751  -4.5379  -4.3357  -4.3263  -4.2865  -1.4983   1.4464
     1.4524   1.4542   1.4549   1.7611   1.7739   2.1456   2.1493   2.1741
     2.3065   2.3282   2.5092   2.5242   2.5438   3.0219   3.5131   4.2053
     4.2171   4.4551   5.0308   5.0345   5.4040   5.4091   5.6827   5.9052
     5.9114   6.1971   6.1999   6.9545   7.1699   7.1762   9.6834   9.9809
     9.9921  10.5774  10.6510  10.6557  11.1985  11.3567  11.3656  14.0369
    14.5694

     the Fermi energy is     8.5328 ev

!    total energy              =    -299.20234090 Ry
     estimated scf accuracy    <          8.8E-09 Ry
     smearing contrib. (-TS)   =      -0.00000000 Ry
     internal energy E=F+TS    =    -299.20234090 Ry

     The total energy is F=E-TS. E is the sum of the following terms:
     one-electron contribution =     -58.03088387 Ry
     hartree contribution      =      90.16007866 Ry
     xc contribution           =    -108.91050466 Ry
     ewald contribution        =    -222.42103103 Ry

     convergence has been achieved in  43 iterations

     Forces acting on atoms (cartesian axes, Ry/au):

     atom    1 type  1   force =     0.00033596    0.00569341   -0.00109753
     atom    2 type  1   force =     0.00103244   -0.00100523    0.00152546
     atom    3 type  1   force =    -0.00033279   -0.01050090   -0.00030142
     atom    4 type  1   force =    -0.00026299   -0.00050443   -0.00048466
     atom    5 type  1   force =     0.00611999   -0.00363437    0.00049616
     atom    6 type  1   force =    -0.00199356   -0.00163385   -0.00124970
     atom    7 type  1   force =    -0.00030390   -0.00082692    0.00004999
     atom    8 type  1   force =    -0.00020870    0.00037222   -0.00033524
     atom    9 type  1   force =    -0.00200056    0.00324029    0.00029781
     atom   10 type  1   force =     0.00030351   -0.00369984   -0.00054890
     atom   11 type  1   force =    -0.00605532   -0.00241098    0.00028009
     atom   12 type  1   force =    -0.00073270    0.00323979   -0.00016668
     atom   13 type  1   force =     0.00380479   -0.00225067   -0.00111477
     atom   14 type  1   force =    -0.00039439    0.00032552    0.00148286
     atom   15 type  1   force =    -0.01067472    0.00399964   -0.00032761
     atom   16 type  1   force =     0.00365632    0.00279684   -0.00059226
     atom   17 type  1   force =    -0.00150834    0.00627809    0.00044392
     atom   18 type  1   force =    -0.00474694   -0.00050288    0.00001231
     atom   19 type  1   force =    -0.00416366   -0.00170479   -0.00142174
     atom   20 type  1   force =    -0.00007087   -0.00109166    0.00194186
     atom   21 type  1   force =     0.01293601    0.00332974   -0.00004599
     atom   22 type  1   force =    -0.00421173    0.00163151   -0.00042429
     atom   23 type  1   force =     0.00155175    0.00058120    0.00079012
     atom   24 type  1   force =     0.00542952   -0.00026374   -0.00004921
     atom   25 type  2   force =     0.00233421   -0.00253930    0.00004279
     atom   26 type  2   force =    -0.00175775    0.00240167   -0.00001307
     atom   27 type  2   force =    -0.00303576   -0.00067644    0.00035302
     atom   28 type  2   force =     0.00184269    0.00201031   -0.00021100
     atom   29 type  2   force =    -0.00294906   -0.00042178   -0.00014374
     atom   30 type  2   force =     0.00169864    0.00018383    0.00030968
     atom   31 type  2   force =     0.00157422    0.00266355    0.00012456
     atom   32 type  2   force =    -0.00056504   -0.00323069   -0.00012758
     atom   33 type  2   force =    -0.00055964    0.00180289    0.00036343
     atom   34 type  2   force =     0.00274839    0.00072186   -0.00006978
     atom   35 type  2   force =     0.00189915   -0.00216336   -0.00011933
     atom   36 type  2   force =    -0.00073919   -0.00221052    0.00033041

     Total force =     0.010625     Total SCF correction =     0.000167


     Computing stress (Cartesian axis) and pressure

          total   stress  (Ry/bohr**3)                   (kbar)     P=      113.35
   0.00077181   0.00000038  -0.00000497          113.54        0.06       -0.73
   0.00000038   0.00076977   0.00000245            0.06      113.24        0.36
  -0.00000497   0.00000245   0.00076999           -0.73        0.36      113.27


     Writing all to output data dir ../results/6h2_abs/6H2abs_C.save/ :
     XML data file, charge density, pseudopotentials, collected wavefunctions

     init_run     :      4.86s CPU      4.21s WALL (       2 calls)
     electrons    :   1950.61s CPU   1604.89s WALL (      38 calls)
     update_pot   :      5.96s CPU      4.27s WALL (      36 calls)
     forces       :     61.95s CPU     53.51s WALL (      38 calls)
     stress       :    166.16s CPU    111.96s WALL (      38 calls)

     Called by init_run:
     wfcinit      :      2.88s CPU      2.38s WALL (       2 calls)
     potinit      :      0.27s CPU      0.21s WALL (       2 calls)
     hinit0       :      0.83s CPU      0.77s WALL (       2 calls)

     Called by electrons:
     c_bands      :   1133.39s CPU    914.19s WALL (     702 calls)
     sum_band     :    456.38s CPU    405.70s WALL (     702 calls)
     v_of_rho     :     31.70s CPU     17.94s WALL (     728 calls)
     newd         :    232.70s CPU    214.50s WALL (     728 calls)
     mix_rho      :     93.66s CPU     55.09s WALL (     702 calls)

     Called by c_bands:
     init_us_2    :     11.14s CPU      8.01s WALL (    1406 calls)
     cegterg      :   1108.05s CPU    899.45s WALL (     702 calls)

     Called by *egterg:
     cdiaghg      :     24.32s CPU     24.43s WALL (    2371 calls)
     h_psi        :    710.39s CPU    511.09s WALL (    2421 calls)
     s_psi        :    124.83s CPU    120.16s WALL (    2421 calls)
     g_psi        :      3.50s CPU      2.17s WALL (    1717 calls)

     Called by h_psi:
     h_psi:calbec :    120.60s CPU    115.48s WALL (    2421 calls)
     vloc_psi     :    469.44s CPU    275.87s WALL (    2421 calls)
     add_vuspsi   :    117.83s CPU    118.34s WALL (    2421 calls)

     General routines
     calbec       :    196.65s CPU    190.94s WALL (    3313 calls)
     fft          :     67.67s CPU     41.11s WALL (    4644 calls)
     ffts         :     36.21s CPU     21.94s WALL (   14350 calls)
     fftw         :    404.83s CPU    244.69s WALL (  260454 calls)
     interpolate  :     13.20s CPU      8.04s WALL (     728 calls)

     Parallel routines

     PWSCF        :  36m44.47s CPU  29m52.96s WALL


   This run was terminated on:  13:55:56   7Aug2024            

=------------------------------------------------------------------------------=
   JOB DONE.
=------------------------------------------------------------------------------=
