
     Program PWSCF v.7.3.1 starts on  7Aug2024 at 17:27:45 

     This program is part of the open-source Quantum ESPRESSO suite
     for quantum simulation of materials; please cite
         "P. Giannozzi et al., J. Phys.:Condens. Matter 21 395502 (2009);
         "P. Giannozzi et al., J. Phys.:Condens. Matter 29 465901 (2017);
         "P. Giannozzi et al., J. Chem. Phys. 152 154105 (2020);
          URL http://www.quantum-espresso.org", 
     in publications or presentations arising from this work. More details at
     http://www.quantum-espresso.org/quote

     Parallel version (MPI & OpenMP), running on       4 processor cores
     Number of MPI processes:                 2
     Threads/MPI process:                     2

     MPI processes distributed on     1 nodes
     2532 MiB available memory on the printing compute node when the environment starts

     Reading input from hydrogen_absorption5.in

     Current dimensions of program PWSCF are:
     Max number of different atomic species (ntypx) = 10
     Max number of k-points (npk) =  40000
     Max angular momentum in pseudopotentials (lmaxx) =  4

     File ../results/5h2_abs/5H2abs_C.update deleted, as requested

     File ../results/5h2_abs/5H2abs_C.bfgs deleted, as requested

     IMPORTANT: XC functional enforced from input :
     Exchange-correlation= LDA
                           (   1   1   0   0   0   0   0)
     Any further DFT definition will be discarded
     Please, verify this is what you really want


     R & G space division:  proc/nbgrp/npool/nimage =       2
     Subspace diagonalization in iterative solution of the eigenvalue problem:
     a serial algorithm will be used


     Parallelization info
     --------------------
     sticks:   dense  smooth     PW     G-vecs:    dense   smooth      PW
     Min        1199     477    120                90805    22985    2879
     Max        1200     478    121                90808    22994    2884
     Sum        2399     955    241               181613    45979    5763

     Using Slab Decomposition


     Title: 
     5H2_absorption_C                                                           


     bravais-lattice index     =            0
     lattice parameter (alat)  =       8.0000  a.u.
     unit-cell volume          =    1343.6807 (a.u.)^3
     number of atoms/cell      =           34
     number of atomic types    =            2
     number of electrons       =       106.00
     number of Kohn-Sham states=           64
     kinetic-energy cutoff     =      40.0000  Ry
     charge density cutoff     =     400.0000  Ry
     scf convergence threshold =      1.0E-06
     mixing beta               =       0.0500
     number of iterations used =            8  local-TF  mixing
     energy convergence thresh.=      1.0E-04
     force convergence thresh. =      1.0E-03
     press convergence thresh. =      5.0E-01
     Exchange-correlation= LDA
                           (   1   1   0   0   0   0   0)
     nstep                     =           50


     celldm(1)=   8.000004  celldm(2)=   0.000000  celldm(3)=   0.000000
     celldm(4)=   0.000000  celldm(5)=   0.000000  celldm(6)=   0.000000

     crystal axes: (cart. coord. in units of alat)
               a(1) = (   1.167165   0.000022   0.001586 )  
               a(2) = (  -0.583617   1.008165   0.003278 )  
               a(3) = (   0.003269   0.009495   2.230311 )  

     reciprocal axes: (cart. coord. in units 2 pi/alat)
               b(1) = (  0.856772  0.495989 -0.003367 )  
               b(2) = ( -0.000013  0.991907 -0.004223 )  
               b(3) = ( -0.000609 -0.001811  0.448377 )  


     PseudoPot. # 1 for C  read from file:
     /home/edoardocabiati/.burai/.pseudopot/C.pz-n-rrkjus_psl.0.1.UPF
     MD5 check sum: a3cecbabebb5b3a1aff122f23eb09bb0
     Pseudo is Ultrasoft + core correction, Zval =  4.0
     Generated using "atomic" code by A. Dal Corso  v.5.0.2 svn rev. 9415
     Using radial grid of 1073 points,  4 beta functions with: 
                l(1) =   0
                l(2) =   0
                l(3) =   1
                l(4) =   1
     Q(r) pseudized with 0 coefficients 


     PseudoPot. # 2 for H  read from file:
     /home/edoardocabiati/.burai/.pseudopot/H.pz-rrkjus_psl.0.1.UPF
     MD5 check sum: 1467ebfaa2880178e80d097b970df8c7
     Pseudo is Ultrasoft, Zval =  1.0
     Generated using "atomic" code by A. Dal Corso  v.5.0.2 svn rev. 9415
     Using radial grid of  929 points,  2 beta functions with: 
                l(1) =   0
                l(2) =   0
     Q(r) pseudized with 0 coefficients 


     atomic species   valence    mass     pseudopotential
     C                 4.00    12.01100     C ( 1.00)
     H                 1.00     1.00784     H ( 1.00)

     No symmetry found



   Cartesian axes

     site n.     atom                  positions (alat units)
         1        C      tau(   1) = (   0.0006164   0.0016412   0.3972653  )
         2        C      tau(   2) = (   0.0013726   0.0039439   0.9224531  )
         3        C      tau(   3) = (   0.0028103   0.0081434   1.9205566  )
         4        C      tau(   4) = (   0.0005641   0.3376678   0.3897958  )
         5        C      tau(   5) = (   0.2932306   0.1720640   0.9342142  )
         6        C      tau(   6) = (   0.0029241   0.3445054   1.9299826  )
         7        C      tau(   7) = (   0.5841833   0.0016603   0.3985563  )
         8        C      tau(   8) = (   0.5850126   0.0038758   0.9224184  )
         9        C      tau(   9) = (   0.5863619   0.0081640   1.9275037  )
        10        C      tau(  10) = (   0.5841664   0.3376332   0.3899557  )
        11        C      tau(  11) = (   0.8768236   0.1719678   0.9337729  )
        12        C      tau(  12) = (   0.5863717   0.3444193   1.9284711  )
        13        C      tau(  13) = (  -0.2911829   0.5056735   0.3976340  )
        14        C      tau(  14) = (  -0.2903993   0.5078828   0.9219436  )
        15        C      tau(  15) = (  -0.2889812   0.5123987   1.9288138  )
        16        C      tau(  16) = (  -0.2912320   0.8416920   0.3926833  )
        17        C      tau(  17) = (   0.0014145   0.6759384   0.9292577  )
        18        C      tau(  18) = (  -0.2890469   0.8482735   1.9471724  )
        19        C      tau(  19) = (   0.2923738   0.5057173   0.4006695  )
        20        C      tau(  20) = (   0.2932207   0.5079881   0.9255539  )
        21        C      tau(  21) = (   0.2946473   0.5126547   1.9507054  )
        22        C      tau(  22) = (   0.2923450   0.8417701   0.3941987  )
        23        C      tau(  23) = (   0.5849661   0.6760357   0.9299340  )
        24        C      tau(  24) = (   0.2945789   0.8484851   1.9365853  )
        25        H      tau(  25) = (   0.2945859   1.2845022   1.5279202  )
        26        H      tau(  26) = (   0.2884030   1.0936154   1.5250833  )
        27        H      tau(  27) = (  -0.0431527   0.7060447   1.5057726  )
        28        H      tau(  28) = (   0.1512820   0.6207106   1.4609175  )
        29        H      tau(  29) = (   0.5450043   0.6755704   1.5131581  )
        30        H      tau(  30) = (   0.3660705   0.5861255   1.4214686  )
        31        H      tau(  31) = (   0.2067676   0.1426978   1.5359730  )
        32        H      tau(  32) = (   0.3825148   0.2236027   1.5276172  )
        33        H      tau(  33) = (  -0.4245722   0.7386382   1.4289674  )
        34        H      tau(  34) = (  -0.2226677   0.8054135   1.4031589  )

     number of k points=     1  Gaussian smearing, width (Ry)=  0.0100
                       cart. coord. in units 2pi/alat
        k(    1) = (   0.0000000   0.0000000   0.0000000), wk =   2.0000000

     Dense  grid:   181613 G-vectors     FFT dimensions: (  60,  60, 120)

     Smooth grid:    45979 G-vectors     FFT dimensions: (  40,  40,  72)

     Estimated max dynamical RAM per process >     226.05 MB

     Estimated total dynamical RAM >     452.09 MB

     Check: negative core charge=   -0.000002

     Initial potential from superposition of free atoms

     starting charge     105.9990, renormalised to     106.0000
     Starting wfcs are  106 randomized atomic wfcs

     total cpu time spent up to now is        2.8 secs

     Self-consistent Calculation

     iteration #  1     ecut=    40.00 Ry     beta= 0.05
     Davidson diagonalization with overlap
     ethr =  1.00E-02,  avg # of iterations =  3.0

     total cpu time spent up to now is        8.7 secs

     total energy              =    -297.65392982 Ry
     estimated scf accuracy    <       1.87749895 Ry

     iteration #  2     ecut=    40.00 Ry     beta= 0.05
     Davidson diagonalization with overlap
     ethr =  1.77E-03,  avg # of iterations =  4.0

     total cpu time spent up to now is       14.0 secs

     total energy              =    -298.61680662 Ry
     estimated scf accuracy    <       2.23295796 Ry

     iteration #  3     ecut=    40.00 Ry     beta= 0.05
     Davidson diagonalization with overlap
     ethr =  1.77E-03,  avg # of iterations =  1.0

     total cpu time spent up to now is       17.5 secs

     total energy              =    -296.61215296 Ry
     estimated scf accuracy    <       3.68358877 Ry

     iteration #  4     ecut=    40.00 Ry     beta= 0.05
     Davidson diagonalization with overlap
     ethr =  1.77E-03,  avg # of iterations =  2.0

     total cpu time spent up to now is       20.7 secs

     total energy              =    -296.81264989 Ry
     estimated scf accuracy    <       0.15349404 Ry

     iteration #  5     ecut=    40.00 Ry     beta= 0.05
     Davidson diagonalization with overlap
     ethr =  1.45E-04,  avg # of iterations = 14.0

     total cpu time spent up to now is       25.2 secs

     total energy              =    -296.88770776 Ry
     estimated scf accuracy    <       0.06104080 Ry

     iteration #  6     ecut=    40.00 Ry     beta= 0.05
     Davidson diagonalization with overlap
     ethr =  5.76E-05,  avg # of iterations =  2.0

     total cpu time spent up to now is       28.3 secs

     total energy              =    -296.88432018 Ry
     estimated scf accuracy    <       0.05888562 Ry

     iteration #  7     ecut=    40.00 Ry     beta= 0.05
     Davidson diagonalization with overlap
     ethr =  5.56E-05,  avg # of iterations =  1.0

     total cpu time spent up to now is       31.2 secs

     total energy              =    -296.86339462 Ry
     estimated scf accuracy    <       0.03938061 Ry

     iteration #  8     ecut=    40.00 Ry     beta= 0.05
     Davidson diagonalization with overlap
     ethr =  3.72E-05,  avg # of iterations =  4.0

     total cpu time spent up to now is       34.7 secs

     total energy              =    -296.87473384 Ry
     estimated scf accuracy    <       0.00356716 Ry

     iteration #  9     ecut=    40.00 Ry     beta= 0.05
     Davidson diagonalization with overlap
     ethr =  3.37E-06,  avg # of iterations = 12.0

     total cpu time spent up to now is       38.7 secs

     total energy              =    -296.87510165 Ry
     estimated scf accuracy    <       0.00335805 Ry

     iteration # 10     ecut=    40.00 Ry     beta= 0.05
     Davidson diagonalization with overlap
     ethr =  3.17E-06,  avg # of iterations =  1.0

     total cpu time spent up to now is       41.8 secs

     total energy              =    -296.87405301 Ry
     estimated scf accuracy    <       0.00250392 Ry

     iteration # 11     ecut=    40.00 Ry     beta= 0.05
     Davidson diagonalization with overlap
     ethr =  2.36E-06,  avg # of iterations =  2.0

     total cpu time spent up to now is       44.9 secs

     total energy              =    -296.87418842 Ry
     estimated scf accuracy    <       0.00037688 Ry

     iteration # 12     ecut=    40.00 Ry     beta= 0.05
     Davidson diagonalization with overlap
     ethr =  3.56E-07,  avg # of iterations =  4.0

     total cpu time spent up to now is       50.0 secs

     total energy              =    -296.87429544 Ry
     estimated scf accuracy    <       0.00027625 Ry

     iteration # 13     ecut=    40.00 Ry     beta= 0.05
     Davidson diagonalization with overlap
     ethr =  2.61E-07,  avg # of iterations =  1.0

     total cpu time spent up to now is       53.2 secs

     total energy              =    -296.87416860 Ry
     estimated scf accuracy    <       0.00027874 Ry

     iteration # 14     ecut=    40.00 Ry     beta= 0.05
     Davidson diagonalization with overlap
     ethr =  2.61E-07,  avg # of iterations =  2.0

     total cpu time spent up to now is       56.6 secs

     total energy              =    -296.87419068 Ry
     estimated scf accuracy    <       0.00004891 Ry

     iteration # 15     ecut=    40.00 Ry     beta= 0.05
     Davidson diagonalization with overlap
     ethr =  4.61E-08,  avg # of iterations =  5.0

     total cpu time spent up to now is       61.0 secs

     total energy              =    -296.87423493 Ry
     estimated scf accuracy    <       0.00005032 Ry

     iteration # 16     ecut=    40.00 Ry     beta= 0.05
     Davidson diagonalization with overlap
     ethr =  4.61E-08,  avg # of iterations =  2.0

     total cpu time spent up to now is       64.9 secs

     total energy              =    -296.87422263 Ry
     estimated scf accuracy    <       0.00008447 Ry

     iteration # 17     ecut=    40.00 Ry     beta= 0.05
     Davidson diagonalization with overlap
     ethr =  4.61E-08,  avg # of iterations =  1.0

     total cpu time spent up to now is       68.9 secs

     total energy              =    -296.87421487 Ry
     estimated scf accuracy    <       0.00005720 Ry

     iteration # 18     ecut=    40.00 Ry     beta= 0.05
     Davidson diagonalization with overlap
     ethr =  4.61E-08,  avg # of iterations =  1.0

     total cpu time spent up to now is       73.4 secs

     total energy              =    -296.87420704 Ry
     estimated scf accuracy    <       0.00003625 Ry

     iteration # 19     ecut=    40.00 Ry     beta= 0.05
     Davidson diagonalization with overlap
     ethr =  3.42E-08,  avg # of iterations =  2.0

     total cpu time spent up to now is       78.1 secs

     total energy              =    -296.87420616 Ry
     estimated scf accuracy    <       0.00002127 Ry

     iteration # 20     ecut=    40.00 Ry     beta= 0.05
     Davidson diagonalization with overlap
     ethr =  2.01E-08,  avg # of iterations =  2.0

     total cpu time spent up to now is       82.3 secs

     total energy              =    -296.87420687 Ry
     estimated scf accuracy    <       0.00001427 Ry

     iteration # 21     ecut=    40.00 Ry     beta= 0.05
     Davidson diagonalization with overlap
     ethr =  1.35E-08,  avg # of iterations =  4.0

     total cpu time spent up to now is       86.0 secs

     total energy              =    -296.87420436 Ry
     estimated scf accuracy    <       0.00001644 Ry

     iteration # 22     ecut=    40.00 Ry     beta= 0.05
     Davidson diagonalization with overlap
     ethr =  1.35E-08,  avg # of iterations =  4.0

     total cpu time spent up to now is       89.1 secs

     total energy              =    -296.87420482 Ry
     estimated scf accuracy    <       0.00000692 Ry

     iteration # 23     ecut=    40.00 Ry     beta= 0.05
     Davidson diagonalization with overlap
     ethr =  6.52E-09,  avg # of iterations =  2.0

     total cpu time spent up to now is       92.1 secs

     total energy              =    -296.87420640 Ry
     estimated scf accuracy    <       0.00000232 Ry

     iteration # 24     ecut=    40.00 Ry     beta= 0.05
     Davidson diagonalization with overlap
     ethr =  2.19E-09,  avg # of iterations =  5.0

     total cpu time spent up to now is       95.9 secs

     total energy              =    -296.87420703 Ry
     estimated scf accuracy    <       0.00000543 Ry

     iteration # 25     ecut=    40.00 Ry     beta= 0.05
     Davidson diagonalization with overlap
     ethr =  2.19E-09,  avg # of iterations =  1.0

     total cpu time spent up to now is       98.6 secs

     total energy              =    -296.87420509 Ry
     estimated scf accuracy    <       0.00000514 Ry

     iteration # 26     ecut=    40.00 Ry     beta= 0.05
     Davidson diagonalization with overlap
     ethr =  2.19E-09,  avg # of iterations =  4.0

     total cpu time spent up to now is      103.4 secs

     total energy              =    -296.87420596 Ry
     estimated scf accuracy    <       0.00000162 Ry

     iteration # 27     ecut=    40.00 Ry     beta= 0.05
     Davidson diagonalization with overlap
     ethr =  1.53E-09,  avg # of iterations =  1.0

     total cpu time spent up to now is      106.8 secs

     total energy              =    -296.87420590 Ry
     estimated scf accuracy    <       0.00000182 Ry

     iteration # 28     ecut=    40.00 Ry     beta= 0.05
     Davidson diagonalization with overlap
     ethr =  1.53E-09,  avg # of iterations =  5.0

     total cpu time spent up to now is      110.7 secs

     total energy              =    -296.87420531 Ry
     estimated scf accuracy    <       0.00000408 Ry

     iteration # 29     ecut=    40.00 Ry     beta= 0.05
     Davidson diagonalization with overlap
     ethr =  1.53E-09,  avg # of iterations =  4.0

     total cpu time spent up to now is      113.9 secs

     End of self-consistent calculation

          k = 0.0000 0.0000 0.0000 (  5763 PWs)   bands (ev):

   -11.9889 -10.8346 -10.1527  -6.4241  -6.4134  -6.3660  -5.8387  -5.8297
    -5.8065  -5.4614  -5.3850  -5.2960  -4.7295  -4.6968  -4.6829  -4.6318
    -4.5760  -4.5358  -4.3489  -4.2986  -4.2865  -3.4018  -1.3047   1.4103
     1.6763   1.7091   1.7219   2.2648   2.3200   2.3469   2.3614   2.4057
     2.4218   2.5818   3.1718   3.3276   3.6529   3.8751   4.5016   4.5588
     4.5781   5.2692   5.2790   5.4568   5.5620   5.5783   5.5968   5.7907
     5.8146   6.3715   6.7426   6.7984   7.4961  10.1068  10.1197  10.2332
    10.7081  10.7222  10.9501  11.3294  11.4787  11.6705  13.7086  14.0935

     the Fermi energy is     8.2532 ev

!    total energy              =    -296.87420602 Ry
     estimated scf accuracy    <       0.00000030 Ry
     smearing contrib. (-TS)   =      -0.00000000 Ry
     internal energy E=F+TS    =    -296.87420602 Ry

     The total energy is F=E-TS. E is the sum of the following terms:
     one-electron contribution =     -41.97694514 Ry
     hartree contribution      =      81.65095708 Ry
     xc contribution           =    -107.38436205 Ry
     ewald contribution        =    -229.16385590 Ry

     convergence has been achieved in  29 iterations

     Forces acting on atoms (cartesian axes, Ry/au):

     atom    1 type  1   force =     0.00288444   -0.00354176    0.00008500
     atom    2 type  1   force =    -0.00139100    0.00588030   -0.00006948
     atom    3 type  1   force =     0.02014937   -0.01224579    0.00011101
     atom    4 type  1   force =     0.00648375    0.00664845   -0.00082216
     atom    5 type  1   force =    -0.00062054   -0.00309769    0.00033895
     atom    6 type  1   force =     0.01613179    0.01962083   -0.00003862
     atom    7 type  1   force =    -0.00325155   -0.00356450    0.00016906
     atom    8 type  1   force =     0.00110593    0.00452453   -0.00011753
     atom    9 type  1   force =    -0.01448778   -0.01639243   -0.00034469
     atom   10 type  1   force =    -0.00400299    0.00749538   -0.00005651
     atom   11 type  1   force =    -0.00000504   -0.00254910    0.00079976
     atom   12 type  1   force =    -0.01993582    0.01087708    0.00061360
     atom   13 type  1   force =    -0.00109185    0.00092444    0.00072424
     atom   14 type  1   force =     0.00126867   -0.00351130    0.00033069
     atom   15 type  1   force =     0.00376754    0.02637990   -0.00020716
     atom   16 type  1   force =     0.00078037    0.00186055   -0.00064911
     atom   17 type  1   force =    -0.00033883   -0.00382504    0.00103561
     atom   18 type  1   force =     0.00202416   -0.01069015   -0.00010110
     atom   19 type  1   force =     0.00005207   -0.00069952   -0.00024203
     atom   20 type  1   force =    -0.00108950   -0.00140215   -0.00020102
     atom   21 type  1   force =    -0.00578345    0.00244333   -0.00007192
     atom   22 type  1   force =     0.00095492   -0.00645504   -0.00141960
     atom   23 type  1   force =    -0.00053004   -0.00363974    0.00081051
     atom   24 type  1   force =    -0.00271718   -0.01354972   -0.00064478
     atom   25 type  2   force =     0.00006039   -0.00424646   -0.00023274
     atom   26 type  2   force =     0.00047754    0.00368662    0.00032614
     atom   27 type  2   force =     0.00065114   -0.00048224   -0.00183018
     atom   28 type  2   force =    -0.00066014    0.00070235    0.00078708
     atom   29 type  2   force =     0.00023610   -0.00031449   -0.00116482
     atom   30 type  2   force =    -0.00080095    0.00031085    0.00131968
     atom   31 type  2   force =     0.00377058    0.00167839   -0.00072862
     atom   32 type  2   force =    -0.00361832   -0.00129114    0.00003527
     atom   33 type  2   force =     0.00040397   -0.00094938    0.00092597
     atom   34 type  2   force =    -0.00087777   -0.00058539    0.00052950

     Total force =     0.009196     Total SCF correction =     0.001380
     SCF correction compared to forces is large: reduce conv_thr to get better values


     Computing stress (Cartesian axis) and pressure

          total   stress  (Ry/bohr**3)                   (kbar)     P=       99.62
   0.00074203   0.00000263   0.00000266          109.16        0.39        0.39
   0.00000263   0.00074115   0.00001943            0.39      109.03        2.86
   0.00000266   0.00001943   0.00054841            0.39        2.86       80.67


     BFGS Geometry Optimization
     Energy error            =      0.0E+00 Ry
     Gradient error          =      4.2E-03 Ry/Bohr
     Cell gradient error     =      1.1E+02 kbar

     number of scf cycles    =   1
     number of bfgs steps    =   0

     enthalpy           new  =    -296.8742060169 Ry

     new trust radius        =       0.1360022762 bohr
     new conv_thr            =       0.0000010000 Ry

     new unit-cell volume =   1413.07704 a.u.^3 (   209.39641 Ang^3 )
     density =      2.36589 g/cm^3

CELL_PARAMETERS (alat=  8.00000437)
   1.188816442   0.000100036   0.001685171
  -0.594377263   1.026808143   0.003774219
   0.003478417   0.010754560   2.260893689

ATOMIC_POSITIONS (crystal)
C                0.0000044126       -0.0000496498        0.1781258880    0   0   1
C                0.0000260090        0.0000167166        0.4135945292    0   0   1
C               -0.0000203780       -0.0000327060        0.8611224795    0   0   1
C                0.1666504264        0.3332896375        0.1741175053    0   0   1
C                0.3334277418        0.1667225563        0.4184086505    0   0   1
C                0.1668771402        0.3335675137        0.8647313823    0   0   1
C                0.4999935439       -0.0000437918        0.1783539203    0   0   1
C                0.5000390364       -0.0000582302        0.4132208783    0   0   1
C                0.4999376170       -0.0000488647        0.8638562879    0   0   1
C                0.6666467940        0.3332466474        0.1738766567    0   0   1
C                0.8333877794        0.1666212464        0.4178812171    0   0   1
C                0.6667210682        0.3334806165        0.8637349204    0   0   1
C               -0.0000084978        0.4999055813        0.1775921898    0   0   1
C               -0.0000066885        0.4998831087        0.4126538028    0   0   1
C                0.0000579194        0.5001110092        0.8640716778    0   0   1
C                0.1666280609        0.8332264639        0.1746870521    0   0   1
C                0.3333400671        0.6665436766        0.4154907160    0   0   1
C                0.1665297876        0.8331901475        0.8717010930    0   0   1
C                0.4999787339        0.4999291371        0.1785434808    0   0   1
C                0.5000631256        0.4999650982        0.4138870492    0   0   1
C                0.5001479060        0.5002648111        0.8735389341    0   0   1
C                0.6666546700        0.8332903889        0.1749676513    0   0   1
C                0.8333570980        0.6666298832        0.4154256473    0   0   1
C                0.6667051043        0.8334374165        0.8665676884    0   0   1
H                0.8840897482        1.2671249596        0.6825663520
H                0.7846605644        1.0787783614        0.6816732669
H                0.3081882254        0.6939142076        0.6737986132
H                0.4325326768        0.6096029919        0.6538691971
H                0.7969308862        0.6636681392        0.6768442402
H                0.5994970375        0.5754128154        0.6361429813
H                0.2432652706        0.1352626950        0.6882685533
H                0.4330209377        0.2151772913        0.6843125229
H               -0.0022334489        0.7265137799        0.6396889092
H                0.2038448714        0.7929004131        0.6278508335



     Writing config-only to output data dir ../results/5h2_abs/5H2abs_C.save/ :
     XML data file
     NEW-OLD atomic charge density approx. for the potential

     Check: negative core charge=   -0.000002

     total cpu time spent up to now is      120.5 secs

     Self-consistent Calculation

     iteration #  1     ecut=    40.00 Ry     beta= 0.05
     Davidson diagonalization with overlap
     ethr =  1.00E-06,  avg # of iterations =  8.0

     total cpu time spent up to now is      127.1 secs

     total energy              =    -296.88160787 Ry
     estimated scf accuracy    <       0.01024719 Ry

     iteration #  2     ecut=    40.00 Ry     beta= 0.05
     Davidson diagonalization with overlap
     ethr =  9.67E-06,  avg # of iterations =  1.0

     total cpu time spent up to now is      129.7 secs

     total energy              =    -296.87622590 Ry
     estimated scf accuracy    <       0.00952337 Ry

     iteration #  3     ecut=    40.00 Ry     beta= 0.05
     Davidson diagonalization with overlap
     ethr =  8.98E-06,  avg # of iterations =  2.0

     total cpu time spent up to now is      132.6 secs

     total energy              =    -296.87718897 Ry
     estimated scf accuracy    <       0.00042135 Ry

     iteration #  4     ecut=    40.00 Ry     beta= 0.05
     Davidson diagonalization with overlap
     ethr =  3.98E-07,  avg # of iterations = 16.0

     total cpu time spent up to now is      137.6 secs

     total energy              =    -296.87757947 Ry
     estimated scf accuracy    <       0.00041790 Ry

     iteration #  5     ecut=    40.00 Ry     beta= 0.05
     Davidson diagonalization with overlap
     ethr =  3.94E-07,  avg # of iterations =  2.0

     total cpu time spent up to now is      140.5 secs

     total energy              =    -296.87760573 Ry
     estimated scf accuracy    <       0.00020103 Ry

     iteration #  6     ecut=    40.00 Ry     beta= 0.05
     Davidson diagonalization with overlap
     ethr =  1.90E-07,  avg # of iterations =  4.0

     total cpu time spent up to now is      143.8 secs

     total energy              =    -296.87754550 Ry
     estimated scf accuracy    <       0.00019631 Ry

     iteration #  7     ecut=    40.00 Ry     beta= 0.05
     Davidson diagonalization with overlap
     ethr =  1.85E-07,  avg # of iterations =  4.0

     total cpu time spent up to now is      147.2 secs

     total energy              =    -296.87760598 Ry
     estimated scf accuracy    <       0.00007773 Ry

     iteration #  8     ecut=    40.00 Ry     beta= 0.05
     Davidson diagonalization with overlap
     ethr =  7.33E-08,  avg # of iterations =  1.0

     total cpu time spent up to now is      149.8 secs

     total energy              =    -296.87756882 Ry
     estimated scf accuracy    <       0.00009205 Ry

     iteration #  9     ecut=    40.00 Ry     beta= 0.05
     Davidson diagonalization with overlap
     ethr =  7.33E-08,  avg # of iterations =  1.0

     total cpu time spent up to now is      152.4 secs

     total energy              =    -296.87756475 Ry
     estimated scf accuracy    <       0.00002506 Ry

     iteration # 10     ecut=    40.00 Ry     beta= 0.05
     Davidson diagonalization with overlap
     ethr =  2.36E-08,  avg # of iterations =  2.0

     total cpu time spent up to now is      155.3 secs

     total energy              =    -296.87756415 Ry
     estimated scf accuracy    <       0.00001108 Ry

     iteration # 11     ecut=    40.00 Ry     beta= 0.05
     Davidson diagonalization with overlap
     ethr =  1.05E-08,  avg # of iterations =  2.0

     total cpu time spent up to now is      158.1 secs

     total energy              =    -296.87756396 Ry
     estimated scf accuracy    <       0.00000624 Ry

     iteration # 12     ecut=    40.00 Ry     beta= 0.05
     Davidson diagonalization with overlap
     ethr =  5.89E-09,  avg # of iterations =  2.0

     total cpu time spent up to now is      161.3 secs

     total energy              =    -296.87756405 Ry
     estimated scf accuracy    <       0.00000499 Ry

     iteration # 13     ecut=    40.00 Ry     beta= 0.05
     Davidson diagonalization with overlap
     ethr =  4.71E-09,  avg # of iterations =  2.0

     total cpu time spent up to now is      164.1 secs

     total energy              =    -296.87756412 Ry
     estimated scf accuracy    <       0.00000209 Ry

     iteration # 14     ecut=    40.00 Ry     beta= 0.05
     Davidson diagonalization with overlap
     ethr =  1.97E-09,  avg # of iterations =  2.0

     total cpu time spent up to now is      167.2 secs

     total energy              =    -296.87756343 Ry
     estimated scf accuracy    <       0.00000300 Ry

     iteration # 15     ecut=    40.00 Ry     beta= 0.05
     Davidson diagonalization with overlap
     ethr =  1.97E-09,  avg # of iterations =  2.0

     total cpu time spent up to now is      169.9 secs

     End of self-consistent calculation

          k = 0.0000 0.0000 0.0000 (  5763 PWs)   bands (ev):

   -12.0925 -11.0006 -10.3563  -6.7769  -6.7640  -6.7155  -6.1684  -6.1569
    -6.1328  -5.8726  -5.8010  -5.7144  -5.0467  -5.0131  -5.0086  -4.9146
    -4.8683  -4.8147  -4.6438  -4.5973  -4.5825  -3.5913  -1.4808   1.0499
     1.2399   1.2708   1.2825   1.7990   1.8553   1.8820   1.8953   1.9356
     1.9516   2.1557   2.7302   2.8616   3.2715   3.4426   4.0537   4.1113
     4.1275   4.6551   4.6657   4.9511   4.9545   4.9843   5.0467   5.1550
     5.2151   5.8643   6.2253   6.2794   6.9202   9.4576   9.4721   9.5733
    10.0047  10.0204  10.2325  10.6062  10.7515  10.9302  13.0340  13.3802

     the Fermi energy is     7.6923 ev

!    total energy              =    -296.87756378 Ry
     estimated scf accuracy    <       0.00000036 Ry
     smearing contrib. (-TS)   =      -0.00000000 Ry
     internal energy E=F+TS    =    -296.87756378 Ry

     The total energy is F=E-TS. E is the sum of the following terms:
     one-electron contribution =     -45.52492132 Ry
     hartree contribution      =      81.11978506 Ry
     xc contribution           =    -106.26394958 Ry
     ewald contribution        =    -226.20847794 Ry

     convergence has been achieved in  15 iterations

     Forces acting on atoms (cartesian axes, Ry/au):

     atom    1 type  1   force =     0.00253192   -0.00296289    0.00108530
     atom    2 type  1   force =    -0.00145306    0.00510130   -0.00103062
     atom    3 type  1   force =     0.01830551   -0.01098745    0.00352893
     atom    4 type  1   force =     0.00594114    0.00605770    0.00178486
     atom    5 type  1   force =    -0.00063465   -0.00255915   -0.00271517
     atom    6 type  1   force =     0.01460730    0.01806738    0.00066229
     atom    7 type  1   force =    -0.00296303   -0.00297083    0.00103692
     atom    8 type  1   force =     0.00118731    0.00382125   -0.00083121
     atom    9 type  1   force =    -0.01318343   -0.01501734    0.00146806
     atom   10 type  1   force =    -0.00348784    0.00684186    0.00256474
     atom   11 type  1   force =     0.00000497   -0.00215370   -0.00249701
     atom   12 type  1   force =    -0.01804395    0.00971456    0.00204901
     atom   13 type  1   force =    -0.00104311    0.00091026    0.00169699
     atom   14 type  1   force =     0.00125388   -0.00362864   -0.00056829
     atom   15 type  1   force =     0.00344796    0.02427607    0.00112895
     atom   16 type  1   force =     0.00078974    0.00166698    0.00151279
     atom   17 type  1   force =    -0.00041270   -0.00330315   -0.00047049
     atom   18 type  1   force =     0.00219274   -0.01075152   -0.00596830
     atom   19 type  1   force =    -0.00001160   -0.00025827    0.00026088
     atom   20 type  1   force =    -0.00093337   -0.00161846   -0.00139417
     atom   21 type  1   force =    -0.00568413    0.00249943   -0.00637998
     atom   22 type  1   force =     0.00098052   -0.00611578    0.00101095
     atom   23 type  1   force =    -0.00057577   -0.00315666   -0.00048261
     atom   24 type  1   force =    -0.00248980   -0.01254845   -0.00109869
     atom   25 type  2   force =    -0.00032166   -0.01453798    0.00046889
     atom   26 type  2   force =     0.00079488    0.01414168    0.00128594
     atom   27 type  2   force =     0.00253166   -0.00072736   -0.00591569
     atom   28 type  2   force =    -0.00074651    0.00300587    0.00126306
     atom   29 type  2   force =    -0.00008430   -0.00145850   -0.00649044
     atom   30 type  2   force =    -0.00114338    0.00458732    0.00559956
     atom   31 type  2   force =     0.01309853    0.00553750   -0.00039064
     atom   32 type  2   force =    -0.01281694   -0.00521995    0.00113550
     atom   33 type  2   force =     0.00158744   -0.00044505    0.00243395
     atom   34 type  2   force =    -0.00322625   -0.00580803    0.00425575

     Total force =     0.034140     Total SCF correction =     0.001101


     Computing stress (Cartesian axis) and pressure

          total   stress  (Ry/bohr**3)                   (kbar)     P=      -69.95
  -0.00092748  -0.00000805   0.00000159         -136.44       -1.18        0.23
  -0.00000805  -0.00089063   0.00001001           -1.18     -131.02        1.47
   0.00000159   0.00001001   0.00039155            0.23        1.47       57.60

     Energy error            =      3.4E-03 Ry
     Gradient error          =      1.5E-02 Ry/Bohr
     Cell gradient error     =      1.4E+02 kbar

     number of scf cycles    =   2
     number of bfgs steps    =   1

     enthalpy           old  =    -296.8742060169 Ry
     enthalpy           new  =    -296.8775637815 Ry

     CASE: enthalpy          _new < enthalpy          _old

     new trust radius        =       0.0673904512 bohr
     new conv_thr            =       0.0000001454 Ry

     new unit-cell volume =   1400.20691 a.u.^3 (   207.48926 Ang^3 )
     density =      2.38764 g/cm^3

CELL_PARAMETERS (alat=  8.00000437)
   1.178161060  -0.000015159   0.001741041
  -0.589148754   1.018182652   0.004025771
   0.003531738   0.011235094   2.279847022

ATOMIC_POSITIONS (crystal)
C                0.0000041736       -0.0000499415        0.1781606623    0   0   1
C                0.0000262350        0.0000169923        0.4135616418    0   0   1
C               -0.0000211404       -0.0000336358        0.8612335642    0   0   1
C                0.1666501200        0.3332892665        0.1741631401    0   0   1
C                0.3334282901        0.1667232237        0.4183282787    0   0   1
C                0.1668770024        0.3335673459        0.8647515160    0   0   1
C                0.4999933076       -0.0000440805        0.1783881996    0   0   1
C                0.5000392242       -0.0000580008        0.4131936154    0   0   1
C                0.4999373351       -0.0000492073        0.8638978050    0   0   1
C                0.6666462523        0.3332459872        0.1739557426    0   0   1
C                0.8333882396        0.1666218050        0.4178131652    0   0   1
C                0.6667205761        0.3334800145        0.8638060157    0   0   1
C               -0.0000089250        0.4999050583        0.1776536661    0   0   1
C               -0.0000065972        0.4998832191        0.4126401008    0   0   1
C                0.0000576974        0.5001107392        0.8641043003    0   0   1
C                0.1666277970        0.8332261441        0.1747263039    0   0   1
C                0.3333400740        0.6665436817        0.4154885226    0   0   1
C                0.1665310690        0.8331917103        0.8715142615    0   0   1
C                0.4999787001        0.4999290966        0.1785486871    0   0   1
C                0.5000634410        0.4999654833        0.4138412755    0   0   1
C                0.5001492726        0.5002664776        0.8733396499    0   0   1
C                0.6666545826        0.8332902867        0.1749820412    0   0   1
C                0.8333571278        0.6666299169        0.4154203733    0   0   1
C                0.6667053967        0.8334377751        0.8665257740    0   0   1
H                0.8835128432        1.2660070440        0.6825799753
H                0.7852565518        1.0798535401        0.6817153850
H                0.3083242191        0.6938528661        0.6735926409
H                0.4325858538        0.6098290247        0.6539176050
H                0.7968781605        0.6635607777        0.6766285706
H                0.5995717814        0.5757365795        0.6363325152
H                0.2443478580        0.1356903188        0.6882463637
H                0.4319746862        0.2147817952        0.6843494818
H               -0.0021579871        0.7264570557        0.6397757532
H                0.2034225547        0.7924821828        0.6279903687



     Writing config-only to output data dir ../results/5h2_abs/5H2abs_C.save/ :
     XML data file
     NEW-OLD atomic charge density approx. for the potential

     Check: negative core charge=   -0.000002

     total cpu time spent up to now is      176.6 secs

     Self-consistent Calculation

     iteration #  1     ecut=    40.00 Ry     beta= 0.05
     Davidson diagonalization with overlap
     ethr =  1.00E-06,  avg # of iterations = 20.0

     total cpu time spent up to now is      184.3 secs

     total energy              =    -296.89596680 Ry
     estimated scf accuracy    <       0.00255694 Ry

     iteration #  2     ecut=    40.00 Ry     beta= 0.05
     Davidson diagonalization with overlap
     ethr =  2.41E-06,  avg # of iterations =  1.0

     total cpu time spent up to now is      186.9 secs

     total energy              =    -296.89465291 Ry
     estimated scf accuracy    <       0.00243689 Ry

     iteration #  3     ecut=    40.00 Ry     beta= 0.05
     Davidson diagonalization with overlap
     ethr =  2.30E-06,  avg # of iterations =  2.0

     total cpu time spent up to now is      189.7 secs

     total energy              =    -296.89484540 Ry
     estimated scf accuracy    <       0.00015074 Ry

     iteration #  4     ecut=    40.00 Ry     beta= 0.05
     Davidson diagonalization with overlap
     ethr =  1.42E-07,  avg # of iterations =  5.0

     total cpu time spent up to now is      193.7 secs

     total energy              =    -296.89495420 Ry
     estimated scf accuracy    <       0.00007609 Ry

     iteration #  5     ecut=    40.00 Ry     beta= 0.05
     Davidson diagonalization with overlap
     ethr =  7.18E-08,  avg # of iterations =  1.0

     total cpu time spent up to now is      196.3 secs

     total energy              =    -296.89495656 Ry
     estimated scf accuracy    <       0.00009026 Ry

     iteration #  6     ecut=    40.00 Ry     beta= 0.05
     Davidson diagonalization with overlap
     ethr =  7.18E-08,  avg # of iterations =  1.0

     total cpu time spent up to now is      198.9 secs

     total energy              =    -296.89492585 Ry
     estimated scf accuracy    <       0.00008690 Ry

     iteration #  7     ecut=    40.00 Ry     beta= 0.05
     Davidson diagonalization with overlap
     ethr =  7.18E-08,  avg # of iterations =  1.0

     total cpu time spent up to now is      201.5 secs

     total energy              =    -296.89493113 Ry
     estimated scf accuracy    <       0.00002769 Ry

     iteration #  8     ecut=    40.00 Ry     beta= 0.05
     Davidson diagonalization with overlap
     ethr =  2.61E-08,  avg # of iterations =  1.0

     total cpu time spent up to now is      204.1 secs

     total energy              =    -296.89492211 Ry
     estimated scf accuracy    <       0.00002828 Ry

     iteration #  9     ecut=    40.00 Ry     beta= 0.05
     Davidson diagonalization with overlap
     ethr =  2.61E-08,  avg # of iterations =  2.0

     total cpu time spent up to now is      207.1 secs

     total energy              =    -296.89492803 Ry
     estimated scf accuracy    <       0.00000987 Ry

     iteration # 10     ecut=    40.00 Ry     beta= 0.05
     Davidson diagonalization with overlap
     ethr =  9.31E-09,  avg # of iterations =  2.0

     total cpu time spent up to now is      210.0 secs

     total energy              =    -296.89492587 Ry
     estimated scf accuracy    <       0.00001142 Ry

     iteration # 11     ecut=    40.00 Ry     beta= 0.05
     Davidson diagonalization with overlap
     ethr =  9.31E-09,  avg # of iterations =  2.0

     total cpu time spent up to now is      212.8 secs

     total energy              =    -296.89492397 Ry
     estimated scf accuracy    <       0.00000647 Ry

     iteration # 12     ecut=    40.00 Ry     beta= 0.05
     Davidson diagonalization with overlap
     ethr =  6.10E-09,  avg # of iterations =  2.0

     total cpu time spent up to now is      215.6 secs

     total energy              =    -296.89492498 Ry
     estimated scf accuracy    <       0.00000151 Ry

     iteration # 13     ecut=    40.00 Ry     beta= 0.05
     Davidson diagonalization with overlap
     ethr =  1.42E-09,  avg # of iterations =  2.0

     total cpu time spent up to now is      218.4 secs

     total energy              =    -296.89492499 Ry
     estimated scf accuracy    <       0.00000141 Ry

     iteration # 14     ecut=    40.00 Ry     beta= 0.05
     Davidson diagonalization with overlap
     ethr =  1.33E-09,  avg # of iterations =  1.0

     total cpu time spent up to now is      221.0 secs

     total energy              =    -296.89492479 Ry
     estimated scf accuracy    <       0.00000091 Ry

     iteration # 15     ecut=    40.00 Ry     beta= 0.05
     Davidson diagonalization with overlap
     ethr =  8.62E-10,  avg # of iterations =  2.0

     total cpu time spent up to now is      223.9 secs

     total energy              =    -296.89492485 Ry
     estimated scf accuracy    <       0.00000021 Ry

     iteration # 16     ecut=    40.00 Ry     beta= 0.05
     Davidson diagonalization with overlap
     ethr =  2.01E-10,  avg # of iterations =  4.0

     total cpu time spent up to now is      227.0 secs

     total energy              =    -296.89492489 Ry
     estimated scf accuracy    <       0.00000015 Ry

     iteration # 17     ecut=    40.00 Ry     beta= 0.05
     Davidson diagonalization with overlap
     ethr =  1.46E-10,  avg # of iterations =  1.0

     total cpu time spent up to now is      229.5 secs

     End of self-consistent calculation

          k = 0.0000 0.0000 0.0000 (  5763 PWs)   bands (ev):

   -12.1349 -11.1004 -10.4718  -6.7089  -6.6986  -6.6551  -6.1379  -6.1324
    -6.1041  -5.8611  -5.7944  -5.7114  -5.0817  -5.0499  -5.0466  -4.9681
    -4.9210  -4.8734  -4.6990  -4.6576  -4.6440  -3.6530  -1.5090   0.9919
     1.3152   1.3388   1.3505   1.8290   1.8858   1.9082   1.9218   1.9567
     1.9734   2.2216   2.7953   2.8923   3.1271   3.3562   4.1521   4.2086
     4.2235   4.7932   4.8064   5.0499   5.0699   5.0820   5.1322   5.2536
     5.3021   5.9253   6.2749   6.3313   6.9081   9.5321   9.5468   9.6507
    10.1254  10.1369  10.3437  10.6899  10.8245  10.9960  13.1149  13.4946

     the Fermi energy is     7.7675 ev

!    total energy              =    -296.89492486 Ry
     estimated scf accuracy    <       0.00000013 Ry
     smearing contrib. (-TS)   =      -0.00000000 Ry
     internal energy E=F+TS    =    -296.89492486 Ry

     The total energy is F=E-TS. E is the sum of the following terms:
     one-electron contribution =     -50.30258946 Ry
     hartree contribution      =      83.87705035 Ry
     xc contribution           =    -106.72283500 Ry
     ewald contribution        =    -223.74655074 Ry

     convergence has been achieved in  17 iterations

     Forces acting on atoms (cartesian axes, Ry/au):

     atom    1 type  1   force =     0.00242822   -0.00276440   -0.00005310
     atom    2 type  1   force =    -0.00149372    0.00483312   -0.00003626
     atom    3 type  1   force =     0.01786815   -0.01083360    0.00226033
     atom    4 type  1   force =     0.00553902    0.00598248    0.00597687
     atom    5 type  1   force =    -0.00053768   -0.00317132   -0.00631829
     atom    6 type  1   force =     0.01410141    0.01747893   -0.00127048
     atom    7 type  1   force =    -0.00260842   -0.00277075   -0.00009246
     atom    8 type  1   force =     0.00103233    0.00366436    0.00023078
     atom    9 type  1   force =    -0.01283393   -0.01462389    0.00053195
     atom   10 type  1   force =    -0.00337378    0.00676363    0.00658848
     atom   11 type  1   force =     0.00005029   -0.00239470   -0.00660946
     atom   12 type  1   force =    -0.01768887    0.00972233   -0.00007842
     atom   13 type  1   force =    -0.00087267    0.00071672    0.00044941
     atom   14 type  1   force =     0.00106641   -0.00333970    0.00061420
     atom   15 type  1   force =     0.00357495    0.02392699    0.00062165
     atom   16 type  1   force =     0.00068615    0.00177999    0.00547980
     atom   17 type  1   force =    -0.00066889   -0.00308688   -0.00429025
     atom   18 type  1   force =     0.00176691   -0.01060897   -0.00628035
     atom   19 type  1   force =     0.00014149   -0.00033883   -0.00086439
     atom   20 type  1   force =    -0.00095822   -0.00147699    0.00030597
     atom   21 type  1   force =    -0.00530138    0.00202542   -0.00499726
     atom   22 type  1   force =     0.00087350   -0.00554294    0.00531159
     atom   23 type  1   force =    -0.00016942   -0.00298054   -0.00427922
     atom   24 type  1   force =    -0.00256663   -0.01258481   -0.00232353
     atom   25 type  2   force =     0.00009397   -0.00257580    0.00132484
     atom   26 type  2   force =     0.00042797    0.00227090    0.00177954
     atom   27 type  2   force =     0.00154726   -0.00029863   -0.00488692
     atom   28 type  2   force =    -0.00149536    0.00263730    0.00204408
     atom   29 type  2   force =    -0.00017617   -0.00138650   -0.00532554
     atom   30 type  2   force =     0.00052376    0.00347311    0.00544760
     atom   31 type  2   force =     0.00389734    0.00104175    0.00051135
     atom   32 type  2   force =    -0.00335593   -0.00041075    0.00130205
     atom   33 type  2   force =    -0.00122679   -0.00119672    0.00273286
     atom   34 type  2   force =    -0.00029126   -0.00393030    0.00419260

     Total force =     0.023206     Total SCF correction =     0.001241


     Computing stress (Cartesian axis) and pressure

          total   stress  (Ry/bohr**3)                   (kbar)     P=        1.54
  -0.00012125   0.00000616   0.00000011          -17.84        0.91        0.02
   0.00000616  -0.00013635   0.00001256            0.91      -20.06        1.85
   0.00000011   0.00001256   0.00028901            0.02        1.85       42.51

     Energy error            =      1.7E-02 Ry
     Gradient error          =      6.6E-03 Ry/Bohr
     Cell gradient error     =      4.3E+01 kbar

     number of scf cycles    =   3
     number of bfgs steps    =   2

     enthalpy           old  =    -296.8775637815 Ry
     enthalpy           new  =    -296.8949248605 Ry

     CASE: enthalpy          _new < enthalpy          _old

     new trust radius        =       0.0987717749 bohr
     new conv_thr            =       0.0000000661 Ry

     new unit-cell volume =   1412.46121 a.u.^3 (   209.30516 Ang^3 )
     density =      2.36692 g/cm^3

CELL_PARAMETERS (alat=  8.00000437)
   1.175840601   0.000229896   0.001785804
  -0.587777445   1.015606332   0.004608633
   0.003575028   0.012444838   2.309917984

ATOMIC_POSITIONS (crystal)
C                0.0000041602       -0.0000499585        0.1781623204    0   0   1
C                0.0000262897        0.0000170589        0.4135536136    0   0   1
C               -0.0000223763       -0.0000351225        0.8614218919    0   0   1
C                0.1666471753        0.3332857334        0.1746152253    0   0   1
C                0.3334314753        0.1667270485        0.4178404312    0   0   1
C                0.1668776169        0.3335680836        0.8646573389    0   0   1
C                0.4999933077       -0.0000440818        0.1783876677    0   0   1
C                0.5000391448       -0.0000580951        0.4132061649    0   0   1
C                0.4999370589       -0.0000495381        0.8639404150    0   0   1
C                0.6666429120        0.3332419748        0.1744668729    0   0   1
C                0.8333915212        0.1666257434        0.4173096635    0   0   1
C                0.6667204991        0.3334799181        0.8638162505    0   0   1
C               -0.0000092634        0.4999046474        0.1777038336    0   0   1
C               -0.0000069151        0.4998828360        0.4126883108    0   0   1
C                0.0000573743        0.5001103516        0.8641539208    0   0   1
C                0.1666250914        0.8332228974        0.1751415165    0   0   1
C                0.3333421236        0.6665461383        0.4151728550    0   0   1
C                0.1665343711        0.8331956793        0.8710100031    0   0   1
C                0.4999791432        0.4999296298        0.1784812026    0   0   1
C                0.5000633484        0.4999653739        0.4138561127    0   0   1
C                0.5001519474        0.5002696935        0.8729314932    0   0   1
C                0.6666520448        0.8332872455        0.1753730493    0   0   1
C                0.8333591926        0.6666323928        0.4151027870    0   0   1
C                0.6667066404        0.8334392723        0.8663366923    0   0   1
H                0.8831844233        1.2653263519        0.6826809556
H                0.7856398262        1.0804629781        0.6818590838
H                0.3085500709        0.6937867981        0.6731736785
H                0.4325917223        0.6103132309        0.6540872851
H                0.7967342336        0.6633116740        0.6761822484
H                0.5999306339        0.5763620979        0.6367855569
H                0.2452368295        0.1359607557        0.6882738643
H                0.4312274049        0.2146284820        0.6844544506
H               -0.0024271938        0.7262269465        0.6400055253
H                0.2029696689        0.7917554230        0.6283348732



     Writing config-only to output data dir ../results/5h2_abs/5H2abs_C.save/ :
     XML data file
     NEW-OLD atomic charge density approx. for the potential

     Check: negative core charge=   -0.000002

     total cpu time spent up to now is      236.3 secs

     Self-consistent Calculation

     iteration #  1     ecut=    40.00 Ry     beta= 0.05
     Davidson diagonalization with overlap
     ethr =  1.00E-06,  avg # of iterations = 10.0

     total cpu time spent up to now is      242.8 secs

     total energy              =    -296.90024859 Ry
     estimated scf accuracy    <       0.00077055 Ry

     iteration #  2     ecut=    40.00 Ry     beta= 0.05
     Davidson diagonalization with overlap
     ethr =  7.27E-07,  avg # of iterations =  1.0

     total cpu time spent up to now is      245.4 secs

     total energy              =    -296.89997791 Ry
     estimated scf accuracy    <       0.00074127 Ry

     iteration #  3     ecut=    40.00 Ry     beta= 0.05
     Davidson diagonalization with overlap
     ethr =  6.99E-07,  avg # of iterations =  2.0

     total cpu time spent up to now is      248.2 secs

     total energy              =    -296.90002252 Ry
     estimated scf accuracy    <       0.00006336 Ry

     iteration #  4     ecut=    40.00 Ry     beta= 0.05
     Davidson diagonalization with overlap
     ethr =  5.98E-08,  avg # of iterations =  5.0

     total cpu time spent up to now is      251.7 secs

     total energy              =    -296.90004298 Ry
     estimated scf accuracy    <       0.00003603 Ry

     iteration #  5     ecut=    40.00 Ry     beta= 0.05
     Davidson diagonalization with overlap
     ethr =  3.40E-08,  avg # of iterations =  1.0

     total cpu time spent up to now is      254.4 secs

     total energy              =    -296.90003801 Ry
     estimated scf accuracy    <       0.00003428 Ry

     iteration #  6     ecut=    40.00 Ry     beta= 0.05
     Davidson diagonalization with overlap
     ethr =  3.23E-08,  avg # of iterations =  2.0

     total cpu time spent up to now is      257.2 secs

     total energy              =    -296.90003878 Ry
     estimated scf accuracy    <       0.00002008 Ry

     iteration #  7     ecut=    40.00 Ry     beta= 0.05
     Davidson diagonalization with overlap
     ethr =  1.89E-08,  avg # of iterations =  2.0

     total cpu time spent up to now is      260.0 secs

     total energy              =    -296.90003952 Ry
     estimated scf accuracy    <       0.00001370 Ry

     iteration #  8     ecut=    40.00 Ry     beta= 0.05
     Davidson diagonalization with overlap
     ethr =  1.29E-08,  avg # of iterations =  1.0

     total cpu time spent up to now is      262.6 secs

     total energy              =    -296.90003651 Ry
     estimated scf accuracy    <       0.00001155 Ry

     iteration #  9     ecut=    40.00 Ry     beta= 0.05
     Davidson diagonalization with overlap
     ethr =  1.09E-08,  avg # of iterations =  2.0

     total cpu time spent up to now is      265.6 secs

     total energy              =    -296.90003721 Ry
     estimated scf accuracy    <       0.00000472 Ry

     iteration # 10     ecut=    40.00 Ry     beta= 0.05
     Davidson diagonalization with overlap
     ethr =  4.45E-09,  avg # of iterations =  2.0

     total cpu time spent up to now is      268.5 secs

     total energy              =    -296.90003752 Ry
     estimated scf accuracy    <       0.00000340 Ry

     iteration # 11     ecut=    40.00 Ry     beta= 0.05
     Davidson diagonalization with overlap
     ethr =  3.21E-09,  avg # of iterations =  1.0

     total cpu time spent up to now is      271.1 secs

     total energy              =    -296.90003643 Ry
     estimated scf accuracy    <       0.00000273 Ry

     iteration # 12     ecut=    40.00 Ry     beta= 0.05
     Davidson diagonalization with overlap
     ethr =  2.57E-09,  avg # of iterations =  2.0

     total cpu time spent up to now is      274.0 secs

     total energy              =    -296.90003678 Ry
     estimated scf accuracy    <       0.00000039 Ry

     iteration # 13     ecut=    40.00 Ry     beta= 0.05
     Davidson diagonalization with overlap
     ethr =  3.68E-10,  avg # of iterations =  4.0

     total cpu time spent up to now is      277.1 secs

     total energy              =    -296.90003686 Ry
     estimated scf accuracy    <       0.00000034 Ry

     iteration # 14     ecut=    40.00 Ry     beta= 0.05
     Davidson diagonalization with overlap
     ethr =  3.20E-10,  avg # of iterations =  1.0

     total cpu time spent up to now is      279.7 secs

     total energy              =    -296.90003668 Ry
     estimated scf accuracy    <       0.00000029 Ry

     iteration # 15     ecut=    40.00 Ry     beta= 0.05
     Davidson diagonalization with overlap
     ethr =  2.71E-10,  avg # of iterations =  2.0

     total cpu time spent up to now is      282.7 secs

     total energy              =    -296.90003670 Ry
     estimated scf accuracy    <       0.00000011 Ry

     iteration # 16     ecut=    40.00 Ry     beta= 0.05
     Davidson diagonalization with overlap
     ethr =  1.05E-10,  avg # of iterations =  2.0

     total cpu time spent up to now is      285.4 secs

     End of self-consistent calculation

          k = 0.0000 0.0000 0.0000 (  5763 PWs)   bands (ev):

   -12.2192 -11.2628 -10.6492  -6.7776  -6.7627  -6.7139  -6.2302  -6.2214
    -6.1983  -6.0017  -5.9364  -5.8565  -5.2251  -5.1943  -5.1909  -5.1196
    -5.0753  -5.0316  -4.8529  -4.8159  -4.8029  -3.7796  -1.5973   0.8095
     1.2248   1.2559   1.2671   1.6889   1.7498   1.7789   1.7843   1.8145
     1.8327   2.1433   2.6888   2.7719   2.8775   3.1426   4.0991   4.1570
     4.1705   4.7187   4.7302   4.9550   4.9688   4.9822   5.0231   5.1274
     5.1801   5.8087   6.1404   6.1944   6.6976   9.3785   9.3981   9.5024
    10.0062  10.0177  10.2156  10.5258  10.6409  10.8091  12.9475  13.3446

     the Fermi energy is     7.6339 ev

!    total energy              =    -296.90003674 Ry
     estimated scf accuracy    <       0.00000003 Ry
     smearing contrib. (-TS)   =      -0.00000000 Ry
     internal energy E=F+TS    =    -296.90003674 Ry

     The total energy is F=E-TS. E is the sum of the following terms:
     one-electron contribution =     -56.85281259 Ry
     hartree contribution      =      86.72123804 Ry
     xc contribution           =    -106.79327016 Ry
     ewald contribution        =    -219.97519203 Ry

     convergence has been achieved in  16 iterations

     Forces acting on atoms (cartesian axes, Ry/au):

     atom    1 type  1   force =     0.00194959   -0.00293714    0.00109980
     atom    2 type  1   force =    -0.00124261    0.00475004   -0.00112067
     atom    3 type  1   force =     0.01643359   -0.01076842    0.00089879
     atom    4 type  1   force =     0.00532175    0.00625196    0.00725349
     atom    5 type  1   force =    -0.00075733   -0.00405352   -0.00722787
     atom    6 type  1   force =     0.01365762    0.01700148   -0.00220478
     atom    7 type  1   force =    -0.00254019   -0.00295114    0.00101174
     atom    8 type  1   force =     0.00126627    0.00374508   -0.00077464
     atom    9 type  1   force =    -0.01264783   -0.01435487   -0.00062393
     atom   10 type  1   force =    -0.00279232    0.00698708    0.00764471
     atom   11 type  1   force =    -0.00025259   -0.00306915   -0.00785172
     atom   12 type  1   force =    -0.01644830    0.00988971   -0.00122861
     atom   13 type  1   force =    -0.00102979    0.00013865    0.00149013
     atom   14 type  1   force =     0.00119459   -0.00253821   -0.00029807
     atom   15 type  1   force =     0.00319981    0.02209677   -0.00044255
     atom   16 type  1   force =     0.00086968    0.00236188    0.00647356
     atom   17 type  1   force =    -0.00118846   -0.00327396   -0.00529075
     atom   18 type  1   force =     0.00211083   -0.00974658   -0.00609928
     atom   19 type  1   force =    -0.00011658   -0.00075069    0.00035854
     atom   20 type  1   force =    -0.00057338   -0.00082936   -0.00023915
     atom   21 type  1   force =    -0.00523954    0.00087839   -0.00507861
     atom   22 type  1   force =     0.00106693   -0.00435610    0.00659808
     atom   23 type  1   force =    -0.00020695   -0.00323372   -0.00524765
     atom   24 type  1   force =    -0.00205153   -0.01166472   -0.00286017
     atom   25 type  2   force =     0.00025279    0.00185168    0.00227813
     atom   26 type  2   force =     0.00028556   -0.00196436    0.00257794
     atom   27 type  2   force =     0.00086904    0.00003449   -0.00481442
     atom   28 type  2   force =    -0.00072767    0.00260264    0.00236433
     atom   29 type  2   force =    -0.00001740   -0.00130770   -0.00529227
     atom   30 type  2   force =     0.00032760    0.00337090    0.00588467
     atom   31 type  2   force =     0.00041063   -0.00102096    0.00123559
     atom   32 type  2   force =     0.00038616    0.00186898    0.00181994
     atom   33 type  2   force =    -0.00178632   -0.00121120    0.00288686
     atom   34 type  2   force =     0.00001634   -0.00379791    0.00481886

     Total force =     0.025371     Total SCF correction =     0.000498


     Computing stress (Cartesian axis) and pressure

          total   stress  (Ry/bohr**3)                   (kbar)     P=       16.84
   0.00008221  -0.00000568  -0.00000057           12.09       -0.84       -0.08
  -0.00000568   0.00009541   0.00001118           -0.84       14.04        1.64
  -0.00000057   0.00001118   0.00016589           -0.08        1.64       24.40

     Energy error            =      5.1E-03 Ry
     Gradient error          =      7.9E-03 Ry/Bohr
     Cell gradient error     =      2.4E+01 kbar

     number of scf cycles    =   4
     number of bfgs steps    =   3

     enthalpy           old  =    -296.8949248605 Ry
     enthalpy           new  =    -296.9000367389 Ry

     CASE: enthalpy          _new < enthalpy          _old

     new trust radius        =       0.1436326825 bohr
     new conv_thr            =       0.0000000785 Ry

     new unit-cell volume =   1439.04894 a.u.^3 (   213.24505 Ang^3 )
     density =      2.32319 g/cm^3

CELL_PARAMETERS (alat=  8.00000437)
   1.175270513  -0.000040619   0.001821967
  -0.587727111   1.015978386   0.005639504
   0.003587351   0.014583139   2.354017246

ATOMIC_POSITIONS (crystal)
C                0.0000033064       -0.0000509366        0.1783031233    0   0   1
C                0.0000271689        0.0000180662        0.4134086269    0   0   1
C               -0.0000239502       -0.0000369804        0.8616685732    0   0   1
C                0.1666409389        0.3332785775        0.1756448583    0   0   1
C                0.3334379512        0.1667344984        0.4167764157    0   0   1
C                0.1668792662        0.3335699619        0.8643816609    0   0   1
C                0.4999925164       -0.0000449892        0.1785178243    0   0   1
C                0.5000397170       -0.0000574407        0.4131116570    0   0   1
C                0.4999371953       -0.0000494042        0.8639125963    0   0   1
C                0.6666360877        0.3332341242        0.1755879798    0   0   1
C                0.8333983876        0.1666336301        0.4161781520    0   0   1
C                0.6667209811        0.3334804318        0.8637264819    0   0   1
C               -0.0000106426        0.4999030508        0.1779269904    0   0   1
C               -0.0000068292        0.4998829247        0.4126718553    0   0   1
C                0.0000573989        0.5001103595        0.8641450654    0   0   1
C                0.1666194921        0.8332164705        0.1760654327    0   0   1
C                0.3333464975        0.6665511430        0.4144468059    0   0   1
C                0.1665405734        0.8332028628        0.8700035252    0   0   1
C                0.4999791046        0.4999296008        0.1784911174    0   0   1
C                0.5000636367        0.4999657137        0.4138112964    0   0   1
C                0.5001572379        0.5002758295        0.8720754179    0   0   1
C                0.6666465598        0.8332809677        0.1762830392    0   0   1
C                0.8333635644        0.6666373984        0.4143780563    0   0   1
C                0.6667092585        0.8334422920        0.8659090301    0   0   1
H                0.8829729594        1.2648084892        0.6829844643
H                0.7859822440        1.0808896596        0.6822339420
H                0.3089160518        0.6937307321        0.6723311001
H                0.4327790026        0.6112804713        0.6544547411
H                0.7964843865        0.6628296853        0.6752722500
H                0.6005954605        0.5776236033        0.6377497434
H                0.2462302825        0.1360884673        0.6884080221
H                0.4305835954        0.2147744296        0.6847229537
H               -0.0030235355        0.7257922666        0.6404809239
H                0.2020732116        0.7902846092        0.6291035233



     Writing config-only to output data dir ../results/5h2_abs/5H2abs_C.save/ :
     XML data file
     NEW-OLD atomic charge density approx. for the potential

     Check: negative core charge=   -0.000002

     total cpu time spent up to now is      292.1 secs

     Self-consistent Calculation

     iteration #  1     ecut=    40.00 Ry     beta= 0.05
     Davidson diagonalization with overlap
     ethr =  1.00E-06,  avg # of iterations = 11.0

     total cpu time spent up to now is      305.3 secs

     total energy              =    -296.90452379 Ry
     estimated scf accuracy    <       0.00159733 Ry

     iteration #  2     ecut=    40.00 Ry     beta= 0.05
     Davidson diagonalization with overlap
     ethr =  1.51E-06,  avg # of iterations =  2.0

     total cpu time spent up to now is      308.2 secs

     total energy              =    -296.90401870 Ry
     estimated scf accuracy    <       0.00151699 Ry

     iteration #  3     ecut=    40.00 Ry     beta= 0.05
     Davidson diagonalization with overlap
     ethr =  1.43E-06,  avg # of iterations =  2.0

     total cpu time spent up to now is      311.7 secs

     total energy              =    -296.90412338 Ry
     estimated scf accuracy    <       0.00010286 Ry

     iteration #  4     ecut=    40.00 Ry     beta= 0.05
     Davidson diagonalization with overlap
     ethr =  9.70E-08,  avg # of iterations =  4.0

     total cpu time spent up to now is      317.2 secs

     total energy              =    -296.90415276 Ry
     estimated scf accuracy    <       0.00005899 Ry

     iteration #  5     ecut=    40.00 Ry     beta= 0.05
     Davidson diagonalization with overlap
     ethr =  5.56E-08,  avg # of iterations =  1.0

     total cpu time spent up to now is      321.7 secs

     total energy              =    -296.90414386 Ry
     estimated scf accuracy    <       0.00005129 Ry

     iteration #  6     ecut=    40.00 Ry     beta= 0.05
     Davidson diagonalization with overlap
     ethr =  4.84E-08,  avg # of iterations =  1.0

     total cpu time spent up to now is      324.4 secs

     total energy              =    -296.90414500 Ry
     estimated scf accuracy    <       0.00002616 Ry

     iteration #  7     ecut=    40.00 Ry     beta= 0.05
     Davidson diagonalization with overlap
     ethr =  2.47E-08,  avg # of iterations =  1.0

     total cpu time spent up to now is      327.2 secs

     total energy              =    -296.90414527 Ry
     estimated scf accuracy    <       0.00001942 Ry

     iteration #  8     ecut=    40.00 Ry     beta= 0.05
     Davidson diagonalization with overlap
     ethr =  1.83E-08,  avg # of iterations =  1.0

     total cpu time spent up to now is      329.9 secs

     total energy              =    -296.90414086 Ry
     estimated scf accuracy    <       0.00001553 Ry

     iteration #  9     ecut=    40.00 Ry     beta= 0.05
     Davidson diagonalization with overlap
     ethr =  1.46E-08,  avg # of iterations =  2.0

     total cpu time spent up to now is      333.0 secs

     total energy              =    -296.90414234 Ry
     estimated scf accuracy    <       0.00000735 Ry

     iteration # 10     ecut=    40.00 Ry     beta= 0.05
     Davidson diagonalization with overlap
     ethr =  6.93E-09,  avg # of iterations =  2.0

     total cpu time spent up to now is      336.9 secs

     total energy              =    -296.90414288 Ry
     estimated scf accuracy    <       0.00000558 Ry

     iteration # 11     ecut=    40.00 Ry     beta= 0.05
     Davidson diagonalization with overlap
     ethr =  5.27E-09,  avg # of iterations =  2.0

     total cpu time spent up to now is      339.9 secs

     total energy              =    -296.90414106 Ry
     estimated scf accuracy    <       0.00000642 Ry

     iteration # 12     ecut=    40.00 Ry     beta= 0.05
     Davidson diagonalization with overlap
     ethr =  5.27E-09,  avg # of iterations =  2.0

     total cpu time spent up to now is      342.8 secs

     total energy              =    -296.90414157 Ry
     estimated scf accuracy    <       0.00000199 Ry

     iteration # 13     ecut=    40.00 Ry     beta= 0.05
     Davidson diagonalization with overlap
     ethr =  1.88E-09,  avg # of iterations =  2.0

     total cpu time spent up to now is      345.6 secs

     total energy              =    -296.90414141 Ry
     estimated scf accuracy    <       0.00000156 Ry

     iteration # 14     ecut=    40.00 Ry     beta= 0.05
     Davidson diagonalization with overlap
     ethr =  1.47E-09,  avg # of iterations =  1.0

     total cpu time spent up to now is      348.3 secs

     total energy              =    -296.90414117 Ry
     estimated scf accuracy    <       0.00000078 Ry

     iteration # 15     ecut=    40.00 Ry     beta= 0.05
     Davidson diagonalization with overlap
     ethr =  7.32E-10,  avg # of iterations =  2.0

     total cpu time spent up to now is      351.2 secs

     total energy              =    -296.90414131 Ry
     estimated scf accuracy    <       0.00000025 Ry

     iteration # 16     ecut=    40.00 Ry     beta= 0.05
     Davidson diagonalization with overlap
     ethr =  2.35E-10,  avg # of iterations =  4.0

     total cpu time spent up to now is      354.1 secs

     total energy              =    -296.90414137 Ry
     estimated scf accuracy    <       0.00000020 Ry

     iteration # 17     ecut=    40.00 Ry     beta= 0.05
     Davidson diagonalization with overlap
     ethr =  1.90E-10,  avg # of iterations =  1.0

     total cpu time spent up to now is      356.7 secs

     total energy              =    -296.90414138 Ry
     estimated scf accuracy    <       0.00000015 Ry

     iteration # 18     ecut=    40.00 Ry     beta= 0.05
     Davidson diagonalization with overlap
     ethr =  1.45E-10,  avg # of iterations =  2.0

     total cpu time spent up to now is      359.6 secs

     End of self-consistent calculation

          k = 0.0000 0.0000 0.0000 (  5763 PWs)   bands (ev):

   -12.3535 -11.4974 -10.8961  -6.9159  -6.9061  -6.8621  -6.4030  -6.4000
    -6.3685  -6.2370  -6.1814  -6.1081  -5.4476  -5.4183  -5.4154  -5.3543
    -5.3122  -5.2757  -5.0856  -5.0535  -5.0433  -3.9770  -1.7364   0.5117
     1.0545   1.0752   1.0845   1.4440   1.5107   1.5361   1.5525   1.5733
     1.5835   1.9743   2.4526   2.5131   2.6034   2.8289   3.9730   4.0228
     4.0412   4.5292   4.5447   4.7489   4.7526   4.7688   4.7992   4.8733
     4.9464   5.5894   5.8797   5.9466   6.3561   9.1002   9.1278   9.2309
     9.7495   9.7822   9.9567  10.2236  10.3137  10.4765  12.6267  13.0605

     the Fermi energy is     7.3873 ev

!    total energy              =    -296.90414146 Ry
     estimated scf accuracy    <       0.00000002 Ry
     smearing contrib. (-TS)   =      -0.00000000 Ry
     internal energy E=F+TS    =    -296.90414146 Ry

     The total energy is F=E-TS. E is the sum of the following terms:
     one-electron contribution =     -66.62415613 Ry
     hartree contribution      =      90.72518332 Ry
     xc contribution           =    -106.73263605 Ry
     ewald contribution        =    -214.27253260 Ry

     convergence has been achieved in  18 iterations

     Forces acting on atoms (cartesian axes, Ry/au):

     atom    1 type  1   force =     0.00200624   -0.00213811    0.00426603
     atom    2 type  1   force =    -0.00156507    0.00352447   -0.00420675
     atom    3 type  1   force =     0.01521683   -0.00915514   -0.00133094
     atom    4 type  1   force =     0.00435264    0.00554741    0.00576389
     atom    5 type  1   force =    -0.00036272   -0.00393001   -0.00539027
     atom    6 type  1   force =     0.01226127    0.01502820   -0.00241016
     atom    7 type  1   force =    -0.00186656   -0.00219097    0.00412339
     atom    8 type  1   force =     0.00092429    0.00273516   -0.00381311
     atom    9 type  1   force =    -0.01151917   -0.01261412   -0.00221294
     atom   10 type  1   force =    -0.00268858    0.00620238    0.00584957
     atom   11 type  1   force =     0.00000854   -0.00287696   -0.00609109
     atom   12 type  1   force =    -0.01555558    0.00856112   -0.00201136
     atom   13 type  1   force =    -0.00056637    0.00054680    0.00453165
     atom   14 type  1   force =     0.00069348   -0.00252321   -0.00327891
     atom   15 type  1   force =     0.00355648    0.02046336   -0.00236172
     atom   16 type  1   force =     0.00049498    0.00214712    0.00483410
     atom   17 type  1   force =    -0.00101785   -0.00257880   -0.00370320
     atom   18 type  1   force =     0.00196525   -0.00969822   -0.00435064
     atom   19 type  1   force =     0.00019370   -0.00014109    0.00387168
     atom   20 type  1   force =    -0.00075513   -0.00104078   -0.00298317
     atom   21 type  1   force =    -0.00443900    0.00048995   -0.00493668
     atom   22 type  1   force =     0.00063032   -0.00379432    0.00516151
     atom   23 type  1   force =     0.00028610   -0.00261927   -0.00366541
     atom   24 type  1   force =    -0.00218804   -0.01146705   -0.00279226
     atom   25 type  2   force =     0.00030827    0.00238792    0.00323968
     atom   26 type  2   force =     0.00022065   -0.00221030    0.00350911
     atom   27 type  2   force =     0.00004482    0.00043335   -0.00472957
     atom   28 type  2   force =     0.00081608    0.00235692    0.00222389
     atom   29 type  2   force =     0.00052498   -0.00083558   -0.00467824
     atom   30 type  2   force =    -0.00151966    0.00291174    0.00557827
     atom   31 type  2   force =    -0.00185001   -0.00266879    0.00187206
     atom   32 type  2   force =     0.00287295    0.00361479    0.00239937
     atom   33 type  2   force =    -0.00112665   -0.00080429    0.00249992
     atom   34 type  2   force =    -0.00035748   -0.00366368    0.00522230

     Total force =     0.025074     Total SCF correction =     0.000244


     Computing stress (Cartesian axis) and pressure

          total   stress  (Ry/bohr**3)                   (kbar)     P=       13.10
   0.00014773   0.00001491  -0.00000025           21.73        2.19       -0.04
   0.00001491   0.00009764   0.00000653            2.19       14.36        0.96
  -0.00000025   0.00000653   0.00002169           -0.04        0.96        3.19

     Energy error            =      4.1E-03 Ry
     Gradient error          =      6.1E-03 Ry/Bohr
     Cell gradient error     =      2.2E+01 kbar

     number of scf cycles    =   5
     number of bfgs steps    =   4

     enthalpy           old  =    -296.9000367389 Ry
     enthalpy           new  =    -296.9041414649 Ry

     CASE: enthalpy          _new < enthalpy          _old

     new trust radius        =       0.0801392869 bohr
     new conv_thr            =       0.0000000609 Ry

     new unit-cell volume =   1457.03310 a.u.^3 (   215.91003 Ang^3 )
     density =      2.29452 g/cm^3

CELL_PARAMETERS (alat=  8.00000437)
   1.177402349   0.000579717   0.001844115
  -0.588258381   1.015795529   0.006367496
   0.003607349   0.016088557   2.378843297

ATOMIC_POSITIONS (crystal)
C                0.0000011582       -0.0000530594        0.1787250260    0   0   1
C                0.0000293034        0.0000201783        0.4129899704    0   0   1
C               -0.0000242951       -0.0000375293        0.8616927751    0   0   1
C                0.1666360181        0.3332733615        0.1765413190    0   0   1
C                0.3334428924        0.1667397817        0.4158861721    0   0   1
C                0.1668808456        0.3335715777        0.8640818017    0   0   1
C                0.4999904519       -0.0000470278        0.1789235622    0   0   1
C                0.5000415571       -0.0000556369        0.4127473534    0   0   1
C                0.4999380395       -0.0000486310        0.8637337781    0   0   1
C                0.6666308265        0.3332285091        0.1765379403    0   0   1
C                0.8334037392        0.1666393232        0.4152076328    0   0   1
C                0.6667218261        0.3334812149        0.8635484415    0   0   1
C               -0.0000131647        0.4999005083        0.1784116199    0   0   1
C               -0.0000054254        0.4998842644        0.4123863012    0   0   1
C                0.0000582868        0.5001111721        0.8639569998    0   0   1
C                0.1666152130        0.8332119180        0.1768416262    0   0   1
C                0.3333497435        0.6665545845        0.4138549553    0   0   1
C                0.1665452296        0.8332079346        0.8691853104    0   0   1
C                0.4999775029        0.4999280864        0.1788198804    0   0   1
C                0.5000650750        0.4999671299        0.4135282271    0   0   1
C                0.5001617914        0.5002807305        0.8712636518    0   0   1
C                0.6666422474        0.8332764146        0.1770730196    0   0   1
C                0.8333668001        0.6666408329        0.4137889989    0   0   1
C                0.6667115208        0.8334446852        0.8654967254    0   0   1
H                0.8829496605        1.2646453945        0.6833761219
H                0.7861556161        1.0810323968        0.6826858906
H                0.3091525207        0.6937670425        0.6715403844
H                0.4331951801        0.6121464422        0.6547980279
H                0.7963779859        0.6624618904        0.6744575807
H                0.6009025103        0.5787322885        0.6386509214
H                0.2464557058        0.1358084223        0.6886095676
H                0.4307416869        0.2153348709        0.6850384844
H               -0.0034750593        0.7254624706        0.6409025315
H                0.2012123044        0.7889268665        0.6298845351



     Writing config-only to output data dir ../results/5h2_abs/5H2abs_C.save/ :
     XML data file
     NEW-OLD atomic charge density approx. for the potential

     Check: negative core charge=   -0.000002

     total cpu time spent up to now is      366.2 secs

     Self-consistent Calculation

     iteration #  1     ecut=    40.00 Ry     beta= 0.05
     Davidson diagonalization with overlap
     ethr =  1.00E-06,  avg # of iterations = 10.0

     total cpu time spent up to now is      374.3 secs

     total energy              =    -296.90596375 Ry
     estimated scf accuracy    <       0.00091172 Ry

     iteration #  2     ecut=    40.00 Ry     beta= 0.05
     Davidson diagonalization with overlap
     ethr =  8.60E-07,  avg # of iterations =  2.0

     total cpu time spent up to now is      377.1 secs

     total energy              =    -296.90568608 Ry
     estimated scf accuracy    <       0.00086510 Ry

     iteration #  3     ecut=    40.00 Ry     beta= 0.05
     Davidson diagonalization with overlap
     ethr =  8.16E-07,  avg # of iterations =  1.0

     total cpu time spent up to now is      379.7 secs

     total energy              =    -296.90570479 Ry
     estimated scf accuracy    <       0.00009780 Ry

     iteration #  4     ecut=    40.00 Ry     beta= 0.05
     Davidson diagonalization with overlap
     ethr =  9.23E-08,  avg # of iterations =  4.0

     total cpu time spent up to now is      382.8 secs

     total energy              =    -296.90572642 Ry
     estimated scf accuracy    <       0.00002093 Ry

     iteration #  5     ecut=    40.00 Ry     beta= 0.05
     Davidson diagonalization with overlap
     ethr =  1.97E-08,  avg # of iterations =  4.0

[...]
     hartree contribution      =     103.01110217 Ry
     xc contribution           =    -106.64448216 Ry
     ewald contribution        =    -199.23635525 Ry

     convergence has been achieved in  10 iterations

     Forces acting on atoms (cartesian axes, Ry/au):

     atom    1 type  1   force =     0.00093808   -0.00121165    0.00037449
     atom    2 type  1   force =    -0.00115496    0.00027106    0.00032345
     atom    3 type  1   force =     0.01885273   -0.00023436    0.00049909
     atom    4 type  1   force =     0.00344824    0.00223769   -0.00073788
     atom    5 type  1   force =    -0.00120000   -0.00253182   -0.00024008
     atom    6 type  1   force =     0.01740119   -0.00010777   -0.00060827
     atom    7 type  1   force =    -0.00146242   -0.00147790    0.00050939
     atom    8 type  1   force =     0.00155131    0.00077035   -0.00014883
     atom    9 type  1   force =    -0.01775292   -0.00170696   -0.00038443
     atom   10 type  1   force =    -0.00091816    0.00344272   -0.00080576
     atom   11 type  1   force =    -0.00156516   -0.00162499    0.00034230
     atom   12 type  1   force =    -0.01591630    0.00296730    0.00079566
     atom   13 type  1   force =    -0.00043265    0.00145190   -0.00020969
     atom   14 type  1   force =    -0.00047581   -0.00088883    0.00003357
     atom   15 type  1   force =     0.00081826    0.01692828   -0.00142290
     atom   16 type  1   force =     0.00098156    0.00074580    0.00124122
     atom   17 type  1   force =    -0.00140903    0.00019508   -0.00034928
     atom   18 type  1   force =    -0.00101279    0.00187763    0.00023809
     atom   19 type  1   force =     0.00040878    0.00074526   -0.00064335
     atom   20 type  1   force =    -0.00005553    0.00072612   -0.00034908
     atom   21 type  1   force =    -0.00112180   -0.00382289    0.00088426
     atom   22 type  1   force =     0.00172053   -0.00261230    0.00046412
     atom   23 type  1   force =     0.00009819   -0.00009658   -0.00000889
     atom   24 type  1   force =     0.00230975   -0.01305462   -0.00075795
     atom   25 type  2   force =     0.00002670   -0.00010471   -0.00002307
     atom   26 type  2   force =     0.00018037   -0.00032693    0.00007895
     atom   27 type  2   force =    -0.00108499   -0.00030578    0.00006947
     atom   28 type  2   force =    -0.00054419    0.00056402    0.00041627
     atom   29 type  2   force =    -0.00109459   -0.00030240    0.00071940
     atom   30 type  2   force =    -0.00035103   -0.00015739    0.00007488
     atom   31 type  2   force =    -0.00080645   -0.00006911   -0.00008030
     atom   32 type  2   force =     0.00034199   -0.00065296   -0.00041429
     atom   33 type  2   force =     0.00026277   -0.00091758   -0.00001747
     atom   34 type  2   force =    -0.00098168   -0.00071569    0.00013693

     Total force =     0.004142     Total SCF correction =     0.000237


     Computing stress (Cartesian axis) and pressure

          total   stress  (Ry/bohr**3)                   (kbar)     P=        0.13
   0.00000074  -0.00000023   0.00000110            0.11       -0.03        0.16
  -0.00000023   0.00000124   0.00000444           -0.03        0.18        0.65
   0.00000110   0.00000444   0.00000062            0.16        0.65        0.09

     Energy error            =      5.2E-05 Ry
     Gradient error          =      1.4E-03 Ry/Bohr
     Cell gradient error     =      6.5E-01 kbar

     number of scf cycles    =  49
     number of bfgs steps    =  48

     enthalpy           old  =    -296.9192838800 Ry
     enthalpy           new  =    -296.9193360480 Ry

     CASE: enthalpy          _new < enthalpy          _old

     new trust radius        =       0.0093748728 bohr
     new conv_thr            =       0.0000000100 Ry

     new unit-cell volume =   1482.81055 a.u.^3 (   219.72985 Ang^3 )
     density =      2.25463 g/cm^3

CELL_PARAMETERS (alat=  8.00000437)
   1.175521435   0.000018190   0.004696665
  -0.587803211   1.018057304   0.000866627
   0.008582923   0.007617648   2.420019193

ATOMIC_POSITIONS (crystal)
C                0.0000103350       -0.0000349886        0.1834914782    0   0   1
C                0.0000781121        0.0000617817        0.4079420898    0   0   1
C               -0.0000269728       -0.0000285746        0.8638002720    0   0   1
C                0.1665936781        0.3332412164        0.1813327694    0   0   1
C                0.3334503899        0.1667495100        0.4102755345    0   0   1
C                0.1669153819        0.3336083037        0.8642712993    0   0   1
C                0.5000202892       -0.0000124941        0.1837175811    0   0   1
C                0.5000637502       -0.0000349021        0.4076923912    0   0   1
C                0.4999525836       -0.0000338038        0.8645291817    0   0   1
C                0.6665815388        0.3331916237        0.1814072071    0   0   1
C                0.8334778065        0.1667001027        0.4107956395    0   0   1
C                0.6667653842        0.3335354758        0.8650456914    0   0   1
C               -0.0000570340        0.4998769914        0.1835256114    0   0   1
C                0.0000018179        0.4998821890        0.4082121415    0   0   1
C                0.0000861706        0.5001359174        0.8629273233    0   0   1
C                0.1666620439        0.8332600102        0.1809690614    0   0   1
C                0.3332967204        0.6665118109        0.4103702833    0   0   1
C                0.1664690052        0.8331284092        0.8704572137    0   0   1
C                0.4999611106        0.4999332305        0.1839441334    0   0   1
C                0.4999663150        0.4998742005        0.4080976328    0   0   1
C                0.5001747689        0.5002874213        0.8708154118    0   0   1
C                0.6666525927        0.8332961220        0.1810031380    0   0   1
C                0.8333299930        0.6666145771        0.4101570224    0   0   1
C                0.6667883853        0.8335162829        0.8634849535    0   0   1
H                0.8836220124        1.2620165726        0.6883344344
H                0.7838031077        1.0784648123        0.6878782070
H                0.3028250070        0.7206708832        0.6657215215
H                0.3995937412        0.6181061397        0.6641453094
H                0.7583901244        0.6273515099        0.6680439296
H                0.5267397952        0.5103266324        0.6437618006
H                0.3030010196        0.0767722060        0.6646807574
H                0.3997459512        0.2763936235        0.6651466361
H               -0.0424932282        0.7305463415        0.6590685248
H                0.1920487398        0.8439767868        0.6402551855



     Writing config-only to output data dir ../results/5h2_abs/5H2abs_C.save/ :
     XML data file
     NEW-OLD atomic charge density approx. for the potential

     Check: negative core charge=   -0.000002

     total cpu time spent up to now is     2952.0 secs

     Self-consistent Calculation

     iteration #  1     ecut=    40.00 Ry     beta= 0.05
     Davidson diagonalization with overlap
     ethr =  1.00E-06,  avg # of iterations =  3.0

     Threshold (ethr) on eigenvalues was too large:
     Diagonalizing with lowered threshold

     Davidson diagonalization with overlap
     ethr =  9.47E-09,  avg # of iterations =  7.0

     total cpu time spent up to now is     2961.9 secs

     total energy              =    -296.91938029 Ry
     estimated scf accuracy    <       0.00001615 Ry

     iteration #  2     ecut=    40.00 Ry     beta= 0.05
     Davidson diagonalization with overlap
     ethr =  1.52E-08,  avg # of iterations =  1.0

     total cpu time spent up to now is     2964.6 secs

     total energy              =    -296.91937365 Ry
     estimated scf accuracy    <       0.00001537 Ry

     iteration #  3     ecut=    40.00 Ry     beta= 0.05
     Davidson diagonalization with overlap
     ethr =  1.45E-08,  avg # of iterations =  2.0

     total cpu time spent up to now is     2967.8 secs

     total energy              =    -296.91937569 Ry
     estimated scf accuracy    <       0.00000030 Ry

     iteration #  4     ecut=    40.00 Ry     beta= 0.05
     Davidson diagonalization with overlap
     ethr =  2.82E-10,  avg # of iterations =  5.0

     total cpu time spent up to now is     2971.8 secs

     total energy              =    -296.91937592 Ry
     estimated scf accuracy    <       0.00000011 Ry

     iteration #  5     ecut=    40.00 Ry     beta= 0.05
     Davidson diagonalization with overlap
     ethr =  1.04E-10,  avg # of iterations =  2.0

     total cpu time spent up to now is     2974.7 secs

     total energy              =    -296.91937592 Ry
     estimated scf accuracy    <       0.00000011 Ry

     iteration #  6     ecut=    40.00 Ry     beta= 0.05
     Davidson diagonalization with overlap
     ethr =  1.02E-10,  avg # of iterations =  1.0

     total cpu time spent up to now is     2977.5 secs

     total energy              =    -296.91937589 Ry
     estimated scf accuracy    <       0.00000008 Ry

     iteration #  7     ecut=    40.00 Ry     beta= 0.05
     Davidson diagonalization with overlap
     ethr =  7.76E-11,  avg # of iterations =  2.0

     total cpu time spent up to now is     2980.8 secs

     End of self-consistent calculation

          k = 0.0000 0.0000 0.0000 (  5763 PWs)   bands (ev):

   -12.7672 -11.7360 -11.1793  -7.3277  -7.3117  -7.3062  -6.7764  -6.7660
    -6.7422  -6.5318  -6.4605  -6.4165  -5.7434  -5.7244  -5.7180  -5.6539
    -5.5488  -5.5304  -5.3866  -5.3713  -5.3598  -4.5726  -2.0513   0.2119
     0.6756   0.6794   0.6825   1.0208   1.1703   1.2110   1.2197   1.2245
     1.2448   1.2757   2.0089   2.0648   2.2368   2.5598   3.5890   3.6306
     3.6574   4.1378   4.1611   4.3929   4.3949   4.5218   4.5467   4.5697
     4.7583   5.2530   5.5168   5.5688   5.9049   8.8650   8.8970   8.9926
     9.3968   9.4640   9.5357   9.8116   9.8284   9.9854  12.1942  13.1534

     the Fermi energy is     7.3535 ev

!    total energy              =    -296.91937590 Ry
     estimated scf accuracy    <          9.7E-09 Ry
     smearing contrib. (-TS)   =      -0.00000000 Ry
     internal energy E=F+TS    =    -296.91937590 Ry

     The total energy is F=E-TS. E is the sum of the following terms:
     one-electron contribution =     -94.28076175 Ry
     hartree contribution      =     103.12162732 Ry
     xc contribution           =    -106.64541532 Ry
     ewald contribution        =    -199.11482615 Ry

     convergence has been achieved in   7 iterations

     Forces acting on atoms (cartesian axes, Ry/au):

     atom    1 type  1   force =     0.00095611   -0.00124795    0.00002913
     atom    2 type  1   force =    -0.00124477    0.00035799    0.00040133
     atom    3 type  1   force =     0.01878133   -0.00027417    0.00055902
     atom    4 type  1   force =     0.00365130    0.00249175   -0.00074034
     atom    5 type  1   force =    -0.00132936   -0.00237297   -0.00024200
     atom    6 type  1   force =     0.01727114   -0.00013955   -0.00054377
     atom    7 type  1   force =    -0.00153898   -0.00149350    0.00016935
     atom    8 type  1   force =     0.00167618    0.00088395    0.00006722
     atom    9 type  1   force =    -0.01781903   -0.00176947   -0.00030543
     atom   10 type  1   force =    -0.00091436    0.00379638   -0.00056843
     atom   11 type  1   force =    -0.00165527   -0.00166616    0.00002764
     atom   12 type  1   force =    -0.01582316    0.00286105    0.00063616
     atom   13 type  1   force =    -0.00048238    0.00148910   -0.00030541
     atom   14 type  1   force =    -0.00048364   -0.00109657    0.00015266
     atom   15 type  1   force =     0.00079761    0.01672433   -0.00160102
     atom   16 type  1   force =     0.00107210    0.00088625    0.00096687
     atom   17 type  1   force =    -0.00133758   -0.00013798   -0.00015674
     atom   18 type  1   force =    -0.00104728    0.00178300    0.00040789
     atom   19 type  1   force =     0.00047286    0.00080890   -0.00023914
     atom   20 type  1   force =    -0.00007464    0.00061837   -0.00043568
     atom   21 type  1   force =    -0.00128341   -0.00397850    0.00082852
     atom   22 type  1   force =     0.00190522   -0.00267708    0.00040944
     atom   23 type  1   force =    -0.00012985   -0.00036979    0.00017974
     atom   24 type  1   force =     0.00231012   -0.01317618   -0.00101635
     atom   25 type  2   force =     0.00006162    0.00008439    0.00011261
     atom   26 type  2   force =     0.00020274   -0.00024177    0.00024386
     atom   27 type  2   force =    -0.00090120   -0.00035514    0.00029696
     atom   28 type  2   force =     0.00003628    0.00031244    0.00040525
     atom   29 type  2   force =    -0.00168362   -0.00068219    0.00072249
     atom   30 type  2   force =    -0.00036330   -0.00060066    0.00013328
     atom   31 type  2   force =    -0.00069027    0.00139850    0.00006458
     atom   32 type  2   force =     0.00027649   -0.00076570   -0.00030655
     atom   33 type  2   force =    -0.00005716   -0.00092399    0.00006766
     atom   34 type  2   force =    -0.00061185   -0.00052705   -0.00042078

     Total force =     0.004347     Total SCF correction =     0.000216


     Computing stress (Cartesian axis) and pressure

          total   stress  (Ry/bohr**3)                   (kbar)     P=        0.23
   0.00000301  -0.00000046  -0.00000057            0.44       -0.07       -0.08
  -0.00000046   0.00000125   0.00000156           -0.07        0.18        0.23
  -0.00000057   0.00000156   0.00000051           -0.08        0.23        0.08

     Energy error            =      4.0E-05 Ry
     Gradient error          =      1.7E-03 Ry/Bohr
     Cell gradient error     =      4.4E-01 kbar

     number of scf cycles    =  50
     number of bfgs steps    =  49

     enthalpy           old  =    -296.9193360480 Ry
     enthalpy           new  =    -296.9193759021 Ry

     CASE: enthalpy          _new < enthalpy          _old

     new trust radius        =       0.0092561647 bohr

     The maximum number of steps has been reached.

     End of BFGS Geometry Optimization
     new unit-cell volume =   1482.74358 a.u.^3 (   219.71993 Ang^3 )
     density =      2.25473 g/cm^3

CELL_PARAMETERS (alat=  8.00000437)
   1.175498123   0.000032460   0.005054190
  -0.587777980   1.018045978   0.001196868
   0.009217783   0.008666035   2.419980823

ATOMIC_POSITIONS (crystal)
C                0.0000094625       -0.0000368022        0.1836186962    0   0   1
C                0.0000783096        0.0000618717        0.4079196961    0   0   1
C               -0.0000270087       -0.0000292472        0.8639183493    0   0   1
C                0.1665939034        0.3332421384        0.1812770073    0   0   1
C                0.3334505032        0.1667500360        0.4102145648    0   0   1
C                0.1669155241        0.3336087516        0.8642666626    0   0   1
C                0.5000193794       -0.0000145105        0.1838554866    0   0   1
C                0.5000644059       -0.0000336393        0.4075953889    0   0   1
C                0.4999525951       -0.0000337051        0.8645494530    0   0   1
C                0.6665821908        0.3331932988        0.1813084176    0   0   1
C                0.8334772924        0.1666989930        0.4108312557    0   0   1
C                0.6667650138        0.3335340218        0.8652000627    0   0   1
C               -0.0000571544        0.4998769192        0.1835511672    0   0   1
C                0.0000020386        0.4998826605        0.4081612546    0   0   1
C                0.0000862698        0.5001370332        0.8628544098    0   0   1
C                0.1666610607        0.8332572073        0.1811716669    0   0   1
C                0.3332972388        0.6665131770        0.4102788705    0   0   1
C                0.1664691691        0.8331282273        0.8705128347    0   0   1
C                0.4999622937        0.4999355088        0.1838179424    0   0   1
C                0.4999660553        0.4998744543        0.4080625304    0   0   1
C                0.5001744005        0.5002857550        0.8709522484    0   0   1
C                0.6666523786        0.8332952589        0.1810775765    0   0   1
C                0.8333303242        0.6666153283        0.4101110611    0   0   1
C                0.6667881044        0.8335161649        0.8634928658    0   0   1
H                0.8835451246        1.2617847163        0.6882045417
H                0.7837934678        1.0782332230        0.6877877835
H                0.3022498663        0.7207940590        0.6656225287
H                0.3989488350        0.6181346955        0.6642835049
H                0.7574879832        0.6269114180        0.6680858545
H                0.5261570666        0.5099925148        0.6437914750
H                0.3021648792        0.0762517322        0.6644782087
H                0.3999358728        0.2760010690        0.6648679370
H               -0.0429883191        0.7300586722        0.6592337244
H                0.1910412652        0.8438869592        0.6403514222



     Writing config-only to output data dir ../results/5h2_abs/5H2abs_C.save/ :
     XML data file
     NEW-OLD atomic charge density approx. for the potential

     Check: negative core charge=   -0.000002

     Writing all to output data dir ../results/5h2_abs/5H2abs_C.save/ :
     XML data file, charge density, pseudopotentials, collected wavefunctions

     init_run     :      2.86s CPU      2.75s WALL (       1 calls)
     electrons    :   3134.42s CPU   2631.55s WALL (      50 calls)
     update_pot   :     11.39s CPU      8.50s WALL (      50 calls)
     forces       :    117.42s CPU    102.96s WALL (      50 calls)
     stress       :    308.65s CPU    215.75s WALL (      50 calls)

     Called by init_run:
     wfcinit      :      1.46s CPU      1.41s WALL (       1 calls)
     potinit      :      0.18s CPU      0.16s WALL (       1 calls)
     hinit0       :      0.66s CPU      0.63s WALL (       1 calls)

     Called by electrons:
     c_bands      :   1803.13s CPU   1462.81s WALL (     783 calls)
     sum_band     :    775.92s CPU    711.49s WALL (     783 calls)
     v_of_rho     :     42.91s CPU     25.57s WALL (     809 calls)
     newd         :    371.19s CPU    356.54s WALL (     809 calls)
     mix_rho      :    143.09s CPU     84.04s WALL (     783 calls)

     Called by c_bands:
     init_us_2    :     14.38s CPU     11.29s WALL (    1567 calls)
     cegterg      :   1768.52s CPU   1442.48s WALL (     783 calls)

     Called by *egterg:
     cdiaghg      :     26.50s CPU     26.70s WALL (    2872 calls)
     h_psi        :   1132.87s CPU    816.90s WALL (    2947 calls)
     s_psi        :    189.74s CPU    185.15s WALL (    2947 calls)
     g_psi        :      5.80s CPU      3.54s WALL (    2163 calls)

     Called by h_psi:
     h_psi:calbec :    184.90s CPU    179.33s WALL (    2947 calls)
     vloc_psi     :    761.67s CPU    451.84s WALL (    2947 calls)
     add_vuspsi   :    181.86s CPU    183.23s WALL (    2947 calls)

     General routines
     calbec       :    283.53s CPU    277.40s WALL (    3980 calls)
     fft          :     99.36s CPU     63.30s WALL (    5229 calls)
     ffts         :     56.28s CPU     32.46s WALL (   16400 calls)
     fftw         :    677.32s CPU    421.11s WALL (  302758 calls)
     interpolate  :     20.79s CPU     13.20s WALL (     809 calls)

     Parallel routines

     PWSCF        :      1h 0m CPU  49m48.88s WALL


   This run was terminated on:  18:17:34   7Aug2024            

=------------------------------------------------------------------------------=
   JOB DONE.
=------------------------------------------------------------------------------=
