
     Program PWSCF v.7.3.1 starts on  5Aug2024 at 21:22:30 

     This program is part of the open-source Quantum ESPRESSO suite
     for quantum simulation of materials; please cite
         "P. Giannozzi et al., J. Phys.:Condens. Matter 21 395502 (2009);
         "P. Giannozzi et al., J. Phys.:Condens. Matter 29 465901 (2017);
         "P. Giannozzi et al., J. Chem. Phys. 152 154105 (2020);
          URL http://www.quantum-espresso.org", 
     in publications or presentations arising from this work. More details at
     http://www.quantum-espresso.org/quote

     Parallel version (MPI & OpenMP), running on       4 processor cores
     Number of MPI processes:                 2
     Threads/MPI process:                     2

     MPI processes distributed on     1 nodes
     2345 MiB available memory on the printing compute node when the environment starts

     Reading input from graphene-base.in

     Current dimensions of program PWSCF are:
     Max number of different atomic species (ntypx) = 10
     Max number of k-points (npk) =  40000
     Max angular momentum in pseudopotentials (lmaxx) =  4

     File ../results/graphene-base/graphene-base.update deleted, as requested

     File ../results/graphene-base/graphene-base.bfgs deleted, as requested

     IMPORTANT: XC functional enforced from input :
     Exchange-correlation= LDA
                           (   1   1   0   0   0   0   0)
     Any further DFT definition will be discarded
     Please, verify this is what you really want


     R & G space division:  proc/nbgrp/npool/nimage =       2
     Subspace diagonalization in iterative solution of the eigenvalue problem:
     a serial algorithm will be used


     Parallelization info
     --------------------
     sticks:   dense  smooth     PW     G-vecs:    dense   smooth      PW
     Min          84      84     30                 1857     1857     416
     Max          85      85     31                 1860     1860     419
     Sum         169     169     61                 3717     3717     835

     Using Slab Decomposition



     bravais-lattice index     =            4
     lattice parameter (alat)  =       4.0000  a.u.
     unit-cell volume          =     110.8513 (a.u.)^3
     number of atoms/cell      =            4
     number of atomic types    =            1
     number of electrons       =        16.00
     number of Kohn-Sham states=           12
     kinetic-energy cutoff     =      40.0000  Ry
     charge density cutoff     =     160.0000  Ry
     scf convergence threshold =      1.0E-06
     mixing beta               =       0.7000
     number of iterations used =            8  TF        mixing
     energy convergence thresh.=      1.0E-04
     force convergence thresh. =      1.0E-03
     press convergence thresh. =      5.0E-01
     Exchange-correlation= LDA
                           (   1   1   0   0   0   0   0)
     nstep                     =           50


     celldm(1)=   4.000000  celldm(2)=   0.000000  celldm(3)=   2.000000
     celldm(4)=   0.000000  celldm(5)=   0.000000  celldm(6)=   0.000000

     crystal axes: (cart. coord. in units of alat)
               a(1) = (   1.000000   0.000000   0.000000 )  
               a(2) = (  -0.500000   0.866025   0.000000 )  
               a(3) = (   0.000000   0.000000   2.000000 )  

     reciprocal axes: (cart. coord. in units 2 pi/alat)
               b(1) = (  1.000000  0.577350 -0.000000 )  
               b(2) = (  0.000000  1.154701  0.000000 )  
               b(3) = (  0.000000 -0.000000  0.500000 )  


     PseudoPot. # 1 for C  read from file:
     /home/edoardocabiati/.burai/.pseudopot/C.pz-n-rrkjus_psl.0.1.UPF
     MD5 check sum: a3cecbabebb5b3a1aff122f23eb09bb0
     Pseudo is Ultrasoft + core correction, Zval =  4.0
     Generated using "atomic" code by A. Dal Corso  v.5.0.2 svn rev. 9415
     Using radial grid of 1073 points,  4 beta functions with: 
                l(1) =   0
                l(2) =   0
                l(3) =   1
                l(4) =   1
     Q(r) pseudized with 0 coefficients 


     atomic species   valence    mass     pseudopotential
     C                 4.00    12.01100     C ( 1.00)

     24 Sym. Ops., with inversion, found (12 have fractional translation)



   Cartesian axes

     site n.     atom                  positions (alat units)
         1        C      tau(   1) = (   0.0000000   0.0000000   0.5000000  )
         2        C      tau(   2) = (   0.0000000   0.0000000   1.5000000  )
         3        C      tau(   3) = (   0.0000000   0.5773497   0.5000000  )
         4        C      tau(   4) = (   0.4999995   0.2886748   1.5000000  )

     number of k points=    12  Gaussian smearing, width (Ry)=  0.0100
                       cart. coord. in units 2pi/alat
        k(    1) = (   0.0833333   0.1443376   0.1250000), wk =   0.1111111
        k(    2) = (   0.0833333   0.3367877   0.1250000), wk =   0.2222222
        k(    3) = (   0.0833333   0.5292377   0.1250000), wk =   0.2222222
        k(    4) = (   0.0833333  -0.4330127   0.1250000), wk =   0.2222222
        k(    5) = (   0.0833333  -0.2405626   0.1250000), wk =   0.2222222
        k(    6) = (   0.0833333  -0.0481125   0.1250000), wk =   0.1111111
        k(    7) = (   0.2500000   0.4330127   0.1250000), wk =   0.1111111
        k(    8) = (   0.2500000   0.6254628   0.1250000), wk =   0.2222222
        k(    9) = (   0.2500000  -0.3367877   0.1250000), wk =   0.2222222
        k(   10) = (   0.2500000  -0.1443376   0.1250000), wk =   0.1111111
        k(   11) = (   0.4166667   0.7216878   0.1250000), wk =   0.1111111
        k(   12) = (   0.4166667  -0.2405626   0.1250000), wk =   0.1111111

     Dense  grid:     3717 G-vectors     FFT dimensions: (  18,  18,  36)

     Estimated max dynamical RAM per process >       3.96 MB

     Estimated total dynamical RAM >       7.91 MB

     Check: negative core charge=   -0.000052

     Initial potential from superposition of free atoms

     starting charge      15.9999, renormalised to      16.0000
     Starting wfcs are   16 randomized atomic wfcs

     total cpu time spent up to now is        0.4 secs

     Self-consistent Calculation

     iteration #  1     ecut=    40.00 Ry     beta= 0.70
     Davidson diagonalization with overlap
     ethr =  1.00E-02,  avg # of iterations =  5.3

     total cpu time spent up to now is        0.8 secs

     total energy              =     -47.19607710 Ry
     estimated scf accuracy    <       0.74207043 Ry

     iteration #  2     ecut=    40.00 Ry     beta= 0.70
     Davidson diagonalization with overlap
     ethr =  4.64E-03,  avg # of iterations =  1.1

     total cpu time spent up to now is        0.9 secs

     total energy              =     -47.08316807 Ry
     estimated scf accuracy    <       0.21101177 Ry

     iteration #  3     ecut=    40.00 Ry     beta= 0.70
     Davidson diagonalization with overlap
     ethr =  1.32E-03,  avg # of iterations =  2.9

     total cpu time spent up to now is        1.5 secs

     total energy              =     -47.13829974 Ry
     estimated scf accuracy    <       0.00726882 Ry

     iteration #  4     ecut=    40.00 Ry     beta= 0.70
     Davidson diagonalization with overlap
     ethr =  4.54E-05,  avg # of iterations =  6.4

     total cpu time spent up to now is        2.4 secs

     total energy              =     -47.14178485 Ry
     estimated scf accuracy    <       0.00073487 Ry

     iteration #  5     ecut=    40.00 Ry     beta= 0.70
     Davidson diagonalization with overlap
     ethr =  4.59E-06,  avg # of iterations =  5.6

     total cpu time spent up to now is        3.2 secs

     total energy              =     -47.14206795 Ry
     estimated scf accuracy    <       0.00006145 Ry

     iteration #  6     ecut=    40.00 Ry     beta= 0.70
     Davidson diagonalization with overlap
     ethr =  3.84E-07,  avg # of iterations =  4.4

     total cpu time spent up to now is        3.7 secs

     total energy              =     -47.14210179 Ry
     estimated scf accuracy    <       0.00000446 Ry

     iteration #  7     ecut=    40.00 Ry     beta= 0.70
     Davidson diagonalization with overlap
     ethr =  2.79E-08,  avg # of iterations =  3.8

     total cpu time spent up to now is        4.0 secs

     End of self-consistent calculation

          k = 0.0833 0.1443 0.1250 (   463 PWs)   bands (ev):

    -5.9355  -3.1700   5.4237  13.0265  13.5889  13.8435  14.4339  14.6437
    29.9413  30.3383  32.1300  32.6948

          k = 0.0833 0.3368 0.1250 (   474 PWs)   bands (ev):

    -3.7420  -1.1583   8.0331   8.3037   9.7756  11.1519  12.0894  15.3275
    24.8060  28.2198  30.5211  32.8838

          k = 0.0833 0.5292 0.1250 (   478 PWs)   bands (ev):

     0.0634   1.9689   2.9633   4.6911   9.7606  10.7559  12.4954  15.9753
    21.1657  23.3109  29.9021  32.8572

          k = 0.0833-0.4330 0.1250 (   479 PWs)   bands (ev):

    -2.0232   0.3943   5.3842   7.1002  10.1769  10.2499  11.2291  16.5788
    21.6695  25.7774  30.1212  32.9552

          k = 0.0833-0.2406 0.1250 (   469 PWs)   bands (ev):

    -5.0526  -2.3574   6.4925  11.1626  12.1376  12.5657  13.2802  14.0315
    28.2308  29.9497  31.0375  33.0990

          k = 0.0833-0.0481 0.1250 (   458 PWs)   bands (ev):

    -6.3795  -3.5802   4.8859  12.5815  14.8695  15.1666  15.4339  15.6784
    29.8466  30.4672  30.9368  31.6277

          k = 0.2500 0.4330 0.1250 (   478 PWs)   bands (ev):

    -0.7629   1.5336   6.1464   6.4128   7.8332   7.8623  11.7459  17.8144
    20.5719  23.7480  32.7639  33.1769

          k = 0.2500 0.6255 0.1250 (   477 PWs)   bands (ev):

     1.2788   3.1574   3.9140   5.5687   5.8895   7.4480  13.9899  17.4680
    19.5618  22.3813  31.9328  32.7350

          k = 0.2500-0.3368 0.1250 (   475 PWs)   bands (ev):

    -2.4508   0.0152   7.0970   8.5385   8.9090   9.6775  10.2223  16.5214
    22.8131  25.9158  32.1706  33.8101

          k = 0.2500-0.1443 0.1250 (   471 PWs)   bands (ev):

    -4.6137  -1.9548   7.0189   9.7207  11.0412  12.4535  13.2397  14.4655
    26.6823  29.4447  30.2151  32.5934

          k = 0.4167 0.7217 0.1250 (   480 PWs)   bands (ev):

     1.5768   1.7352   3.6812   4.1669   7.9781   9.2690  13.7114  15.9910
    21.5006  21.9370  31.7091  32.4535

          k = 0.4167-0.2406 0.1250 (   475 PWs)   bands (ev):

    -1.1775   1.1251   3.8974   5.7579  10.6299  11.1624  11.4918  16.4251
    20.9520  24.7708  29.1732  32.4007

     the Fermi energy is    18.4087 ev

!    total energy              =     -47.14210357 Ry
     estimated scf accuracy    <       0.00000003 Ry
     smearing contrib. (-TS)   =      -0.00000000 Ry
     internal energy E=F+TS    =     -47.14210357 Ry

     The total energy is F=E-TS. E is the sum of the following terms:
     one-electron contribution =      19.48036452 Ry
     hartree contribution      =       5.20730438 Ry
     xc contribution           =     -18.40077848 Ry
     ewald contribution        =     -53.42899400 Ry

     convergence has been achieved in   7 iterations

     Forces acting on atoms (cartesian axes, Ry/au):

     atom    1 type  1   force =    -0.00000000   -0.00000000    0.00000000
     atom    2 type  1   force =     0.00000000    0.00000000    0.00000000
     atom    3 type  1   force =     0.00000000   -0.00000000    0.00000000
     atom    4 type  1   force =     0.00000000    0.00000000    0.00000000

     Total force =     0.000000     Total SCF correction =     0.000000


     Computing stress (Cartesian axis) and pressure

          total   stress  (Ry/bohr**3)                   (kbar)     P=     4145.74
   0.03546161   0.00000000   0.00000000         5216.58        0.00        0.00
   0.00000000   0.03546161   0.00000000            0.00     5216.58        0.00
   0.00000000   0.00000000   0.01362335            0.00        0.00     2004.06


     BFGS Geometry Optimization
     Energy error            =      0.0E+00 Ry
     Gradient error          =      2.3E-22 Ry/Bohr
     Cell gradient error     =      5.2E+03 kbar

     number of scf cycles    =   1
     number of bfgs steps    =   0

     enthalpy           new  =     -47.1421035739 Ry

     new trust radius        =       0.5000000000 bohr
     new conv_thr            =       0.0000010000 Ry

     new unit-cell volume =    185.22846 a.u.^3 (    27.44803 Ang^3 )
     density =      2.90655 g/cm^3

CELL_PARAMETERS (alat=  4.00000000)
   1.237448652   0.000000000   0.000000000
  -0.618724326   1.071661968   0.000000000
   0.000000000   0.000000000   2.182442160

ATOMIC_POSITIONS (crystal)
C               -0.0000000000       -0.0000000000        0.2500000000
C                0.0000000000        0.0000000000        0.7500000000
C                0.3333330000        0.6666660000        0.2500000000
C                0.6666660000        0.3333330000        0.7500000000



     Writing config-only to output data dir ../results/graphene-base/graphene-base.save/ :
     XML data file
     NEW-OLD atomic charge density approx. for the potential

     Check: negative core charge=   -0.000104

     total cpu time spent up to now is        4.4 secs

     Self-consistent Calculation

     iteration #  1     ecut=    40.00 Ry     beta= 0.70
     Davidson diagonalization with overlap
     c_bands:  1 eigenvalues not converged
     c_bands:  1 eigenvalues not converged
     c_bands:  2 eigenvalues not converged
     c_bands:  1 eigenvalues not converged
     c_bands:  1 eigenvalues not converged
     c_bands:  1 eigenvalues not converged
     ethr =  1.00E-06,  avg # of iterations = 17.8

     total cpu time spent up to now is        5.5 secs

     total energy              =     -47.63934151 Ry
     estimated scf accuracy    <       0.15677776 Ry

     iteration #  2     ecut=    40.00 Ry     beta= 0.70
     Davidson diagonalization with overlap
     ethr =  9.80E-04,  avg # of iterations =  1.0

     total cpu time spent up to now is        5.7 secs

     total energy              =     -47.62683094 Ry
     estimated scf accuracy    <       0.03355260 Ry

     iteration #  3     ecut=    40.00 Ry     beta= 0.70
     Davidson diagonalization with overlap
     ethr =  2.10E-04,  avg # of iterations =  2.2

     total cpu time spent up to now is        6.0 secs

     total energy              =     -47.63359012 Ry
     estimated scf accuracy    <       0.00041162 Ry

     iteration #  4     ecut=    40.00 Ry     beta= 0.70
     Davidson diagonalization with overlap
     ethr =  2.57E-06,  avg # of iterations =  6.4

     total cpu time spent up to now is        6.4 secs

     total energy              =     -47.63369832 Ry
     estimated scf accuracy    <       0.00003420 Ry

     iteration #  5     ecut=    40.00 Ry     beta= 0.70
     Davidson diagonalization with overlap
     ethr =  2.14E-07,  avg # of iterations =  3.7

     total cpu time spent up to now is        6.6 secs

     total energy              =     -47.63371050 Ry
     estimated scf accuracy    <       0.00000111 Ry

     iteration #  6     ecut=    40.00 Ry     beta= 0.70
     Davidson diagonalization with overlap
     ethr =  6.96E-09,  avg # of iterations =  4.2

     total cpu time spent up to now is        6.9 secs

     End of self-consistent calculation

          k = 0.0673 0.1166 0.1146 (   463 PWs)   bands (ev):

    -8.6278  -6.5324   2.0294   5.2312   5.6631   6.2644   6.5818   8.0227
    16.3926  17.0196  17.4767  18.2140

          k = 0.0673 0.2722 0.1146 (   474 PWs)   bands (ev):

    -7.1152  -5.1278   1.4348   2.5743   3.7279   4.2750   5.0835   9.1669
    13.5433  15.4748  16.6130  18.4147

          k = 0.0673 0.4277 0.1146 (   478 PWs)   bands (ev):

    -4.5688  -3.1191  -2.0430  -0.8591   3.3375   4.2806   6.2292   8.8330
    12.2913  13.3453  15.5255  17.8687

          k = 0.0673-0.3499 0.1146 (   479 PWs)   bands (ev):

    -5.9371  -4.0579  -0.5749   0.8074   3.6444   4.5570   4.9511   9.5590
    12.1841  14.4532  15.8754  18.0692

          k = 0.0673-0.1944 0.1146 (   469 PWs)   bands (ev):

    -8.0184  -5.9647   2.6719   3.5056   4.3028   5.2090   5.7959   8.5212
    15.1721  16.3695  17.4553  18.7148

          k = 0.0673-0.0389 0.1146 (   458 PWs)   bands (ev):

    -8.9347  -6.8185   1.6950   6.2756   6.6490   6.8337   7.1453   7.7548
    16.7045  17.3558  17.5729  17.8692

          k = 0.2020 0.3499 0.1146 (   478 PWs)   bands (ev):

    -5.0781  -3.2813  -0.4442   0.2764   1.9400   2.4452   5.8538  10.2625
    11.1782  13.8163  19.5258  19.6857

          k = 0.2020 0.5054 0.1146 (   477 PWs)   bands (ev):

    -3.7570  -2.3386  -1.5768  -0.7423   1.1054   1.8730   7.0682   9.6739
    10.8621  13.2171  19.3414  20.8933

          k = 0.2020-0.2722 0.1146 (   475 PWs)   bands (ev):

    -6.2284  -4.3127   0.5227   1.4915   3.0093   3.7495   4.6712   9.7235
    12.4565  14.7799  17.7030  19.6338

          k = 0.2020-0.1166 0.1146 (   471 PWs)   bands (ev):

    -7.7159  -5.6837   2.4433   3.0308   3.6510   5.0782   5.8411   8.7431
    14.3775  15.6164  16.8465  18.3016

          k = 0.3367 0.5832 0.1146 (   480 PWs)   bands (ev):

    -3.8093  -3.0066  -1.6308  -1.2305   2.0725   3.1247   6.8543   8.8902
    11.9525  13.0755  17.1662  19.3475

          k = 0.3367-0.1944 0.1146 (   475 PWs)   bands (ev):

    -5.3681  -3.5822  -1.5580  -0.1083   3.9944   4.8439   5.4975   9.1922
    12.1027  13.8885  15.0759  17.3965

     the Fermi energy is    10.5524 ev

!    total energy              =     -47.63371146 Ry
     estimated scf accuracy    <       0.00000018 Ry
     smearing contrib. (-TS)   =      -0.00000687 Ry
     internal energy E=F+TS    =     -47.63370460 Ry

     The total energy is F=E-TS. E is the sum of the following terms:
     one-electron contribution =      10.70452662 Ry
     hartree contribution      =       4.82209384 Ry
     xc contribution           =     -16.25358943 Ry
     ewald contribution        =     -46.90673563 Ry

     convergence has been achieved in   6 iterations

     Forces acting on atoms (cartesian axes, Ry/au):

     atom    1 type  1   force =    -0.00000000   -0.00000000    0.00000000
     atom    2 type  1   force =     0.00000000    0.00000000    0.00000000
     atom    3 type  1   force =     0.00000000    0.00000000    0.00000000
     atom    4 type  1   force =    -0.00000000   -0.00000000    0.00000000

     Total force =     0.000000     Total SCF correction =     0.000000


     Computing stress (Cartesian axis) and pressure

          total   stress  (Ry/bohr**3)                   (kbar)     P=     -581.78
  -0.00794037   0.00000000   0.00000000        -1168.07        0.00        0.00
   0.00000000  -0.00794037   0.00000000            0.00    -1168.07        0.00
   0.00000000   0.00000000   0.00401614            0.00        0.00      590.79

     Energy error            =      4.9E-01 Ry
     Gradient error          =      5.3E-22 Ry/Bohr
     Cell gradient error     =      1.2E+03 kbar

     number of scf cycles    =   2
     number of bfgs steps    =   1

     enthalpy           old  =     -47.1421035739 Ry
     enthalpy           new  =     -47.6337114639 Ry

     CASE: enthalpy          _new < enthalpy          _old

     new trust radius        =       0.4510486379 bohr
     new conv_thr            =       0.0000000100 Ry

     new unit-cell volume =    194.26963 a.u.^3 (    28.78779 Ang^3 )
     density =      2.77128 g/cm^3

CELL_PARAMETERS (alat=  4.00000000)
   1.173765045   0.000000000   0.000000000
  -0.586882522   1.016510347   0.000000000
   0.000000000   0.000000000   2.544086990

ATOMIC_POSITIONS (crystal)
C               -0.0000000000       -0.0000000000        0.2500000000
C                0.0000000000        0.0000000000        0.7500000000
C                0.3333330000        0.6666660000        0.2500000000
C                0.6666660000        0.3333330000        0.7500000000



     Writing config-only to output data dir ../results/graphene-base/graphene-base.save/ :
     XML data file
     NEW-OLD atomic charge density approx. for the potential

     Check: negative core charge=   -0.000130

     total cpu time spent up to now is        7.1 secs

     Self-consistent Calculation

     iteration #  1     ecut=    40.00 Ry     beta= 0.70
     Davidson diagonalization with overlap
     c_bands:  1 eigenvalues not converged
     c_bands:  1 eigenvalues not converged
     c_bands:  1 eigenvalues not converged
     c_bands:  1 eigenvalues not converged
     ethr =  1.00E-06,  avg # of iterations = 15.2

     total cpu time spent up to now is        7.9 secs

     total energy              =     -47.79261209 Ry
     estimated scf accuracy    <       0.01298279 Ry

     iteration #  2     ecut=    40.00 Ry     beta= 0.70
     Davidson diagonalization with overlap
     ethr =  8.11E-05,  avg # of iterations =  1.1

     total cpu time spent up to now is        8.1 secs

     total energy              =     -47.79224505 Ry
     estimated scf accuracy    <       0.00204261 Ry

     iteration #  3     ecut=    40.00 Ry     beta= 0.70
     Davidson diagonalization with overlap
     ethr =  1.28E-05,  avg # of iterations =  3.3

     total cpu time spent up to now is        8.4 secs

     total energy              =     -47.79255135 Ry
     estimated scf accuracy    <       0.00003625 Ry

     iteration #  4     ecut=    40.00 Ry     beta= 0.70
     Davidson diagonalization with overlap
     ethr =  2.27E-07,  avg # of iterations =  6.1

     total cpu time spent up to now is        8.7 secs

     total energy              =     -47.79257861 Ry
     estimated scf accuracy    <       0.00000820 Ry

     iteration #  5     ecut=    40.00 Ry     beta= 0.70
     Davidson diagonalization with overlap
     ethr =  5.13E-08,  avg # of iterations =  1.9

     total cpu time spent up to now is        9.0 secs

     total energy              =     -47.79257929 Ry
     estimated scf accuracy    <       0.00000164 Ry

     iteration #  6     ecut=    40.00 Ry     beta= 0.70
     Davidson diagonalization with overlap
     ethr =  1.03E-08,  avg # of iterations =  1.6

     total cpu time spent up to now is        9.3 secs

     total energy              =     -47.79257947 Ry
     estimated scf accuracy    <       0.00000010 Ry

     iteration #  7     ecut=    40.00 Ry     beta= 0.70
     Davidson diagonalization with overlap
     ethr =  6.37E-10,  avg # of iterations =  3.3

     total cpu time spent up to now is        9.5 secs

     End of self-consistent calculation

          k = 0.0710 0.1230 0.0983 (   463 PWs)   bands (ev):

    -9.8767  -8.9250   0.8574   4.4595   4.6158   4.7507   5.3064   5.4183
    17.5186  17.6899  18.4895  18.6297

          k = 0.0710 0.2869 0.0983 (   474 PWs)   bands (ev):

    -8.2471  -7.3652   0.7367   1.1786   2.7875   3.3584   3.6222   6.1332
    14.2813  15.7399  17.2628  18.1778

          k = 0.0710 0.4509 0.0983 (   478 PWs)   bands (ev):

    -5.4575  -4.7540  -3.3343  -2.7470   2.3872   2.6901   5.7752   7.6649
    10.9767  12.1530  16.6373  17.8081

          k = 0.0710-0.3689 0.0983 (   479 PWs)   bands (ev):

    -6.9726  -6.1519  -1.4103  -0.8541   2.7126   3.0096   4.2293   7.2213
    12.0900  13.8716  16.8536  17.9488

          k = 0.0710-0.2049 0.0983 (   469 PWs)   bands (ev):

    -9.2206  -8.2967   1.6338   2.8563   3.1455   4.2694   4.4688   5.1614
    16.4490  17.3100  17.8059  18.4623

          k = 0.0710-0.0410 0.0983 (   458 PWs)   bands (ev):

   -10.2069  -9.2407   0.4661   4.1200   5.6328   5.7956   5.9539   6.0851
    17.3680  17.5806  18.0604  18.2600

          k = 0.2130 0.3689 0.0983 (   478 PWs)   bands (ev):

    -6.0454  -5.2710  -1.1912  -0.8962   0.4171   0.6378   5.3176   8.1192
    11.3169  12.6950  20.2986  20.3212

          k = 0.2130 0.5329 0.0983 (   477 PWs)   bands (ev):

    -4.5840  -3.9303  -2.6497  -2.1941  -0.3777  -0.0039   6.8480   8.7579
    10.1697  11.3640  20.0234  20.1595

          k = 0.2130-0.2869 0.0983 (   475 PWs)   bands (ev):

    -7.2900  -6.4506  -0.2160   0.1937   1.8323   2.1267   3.9086   7.0440
    12.8700  14.2487  18.7725  19.6894

          k = 0.2130-0.1230 0.0983 (   471 PWs)   bands (ev):

    -8.8944  -7.9843   1.8136   2.0219   2.2412   4.2565   4.4756   5.4880
    15.5085  16.6417  16.9885  17.8115

          k = 0.3550 0.6148 0.0983 (   480 PWs)   bands (ev):

    -4.5515  -4.1829  -3.3458  -3.1132   1.0252   1.4147   6.6006   7.9317
    11.1045  11.1795  18.3343  19.5046

          k = 0.3550-0.2049 0.0983 (   475 PWs)   bands (ev):

    -6.3490  -5.5646  -2.5203  -1.9136   3.0542   3.3034   4.8842   7.4779
    11.3090  13.0923  16.0165  17.1747

     the Fermi energy is     9.4731 ev

!    total energy              =     -47.79257952 Ry
     estimated scf accuracy    <          2.8E-09 Ry
     smearing contrib. (-TS)   =      -0.00000000 Ry
     internal energy E=F+TS    =     -47.79257952 Ry

     The total energy is F=E-TS. E is the sum of the following terms:
     one-electron contribution =       3.89628534 Ry
     hartree contribution      =       7.59284512 Ry
     xc contribution           =     -16.53529756 Ry
     ewald contribution        =     -42.74641242 Ry

     convergence has been achieved in   7 iterations

     Forces acting on atoms (cartesian axes, Ry/au):

     atom    1 type  1   force =     0.00000000   -0.00000000    0.00000000
     atom    2 type  1   force =     0.00000000    0.00000000    0.00000000
     atom    3 type  1   force =    -0.00000000   -0.00000000    0.00000000
     atom    4 type  1   force =     0.00000000    0.00000000    0.00000000

     Total force =     0.000000     Total SCF correction =     0.000000


     Computing stress (Cartesian axis) and pressure

          total   stress  (Ry/bohr**3)                   (kbar)     P=     -312.50
  -0.00292750   0.00000000  -0.00000000         -430.65        0.00       -0.00
   0.00000000  -0.00292750  -0.00000000            0.00     -430.65       -0.00
   0.00000000   0.00000000  -0.00051810            0.00        0.00      -76.21

     Energy error            =      1.6E-01 Ry
     Gradient error          =      3.6E-22 Ry/Bohr
     Cell gradient error     =      4.3E+02 kbar

     number of scf cycles    =   3
     number of bfgs steps    =   2

     enthalpy           old  =     -47.6337114639 Ry
     enthalpy           new  =     -47.7925795209 Ry

     CASE: enthalpy          _new < enthalpy          _old

     new trust radius        =       0.0759758409 bohr
     new conv_thr            =       0.0000000100 Ry

     new unit-cell volume =    184.27275 a.u.^3 (    27.30640 Ang^3 )
     density =      2.92162 g/cm^3

CELL_PARAMETERS (alat=  4.00000000)
   1.141774308   0.000000000   0.000000000
  -0.570887154   0.988805556   0.000000000
  -0.000000000  -0.000000000   2.550292393

ATOMIC_POSITIONS (crystal)
C               -0.0000000000       -0.0000000000        0.2500000000
C                0.0000000000        0.0000000000        0.7500000000
C                0.3333330000        0.6666660000        0.2500000000
C                0.6666660000        0.3333330000        0.7500000000



     Writing config-only to output data dir ../results/graphene-base/graphene-base.save/ :
     XML data file
     NEW-OLD atomic charge density approx. for the potential

     Check: negative core charge=   -0.000119

     total cpu time spent up to now is        9.6 secs

     Self-consistent Calculation

     iteration #  1     ecut=    40.00 Ry     beta= 0.70
     Davidson diagonalization with overlap
     ethr =  1.00E-06,  avg # of iterations = 13.3

     total cpu time spent up to now is       10.5 secs

     total energy              =     -47.80669590 Ry
     estimated scf accuracy    <       0.00384597 Ry

     iteration #  2     ecut=    40.00 Ry     beta= 0.70
     Davidson diagonalization with overlap
     ethr =  2.40E-05,  avg # of iterations =  1.0

     total cpu time spent up to now is       10.8 secs

     total energy              =     -47.80636183 Ry
     estimated scf accuracy    <       0.00082722 Ry

     iteration #  3     ecut=    40.00 Ry     beta= 0.70
     Davidson diagonalization with overlap
     ethr =  5.17E-06,  avg # of iterations =  4.2

     total cpu time spent up to now is       11.2 secs

     total energy              =     -47.80654897 Ry
     estimated scf accuracy    <       0.00001927 Ry

     iteration #  4     ecut=    40.00 Ry     beta= 0.70
     Davidson diagonalization with overlap
     ethr =  1.20E-07,  avg # of iterations =  2.2

     total cpu time spent up to now is       11.6 secs

     total energy              =     -47.80655108 Ry
     estimated scf accuracy    <       0.00000245 Ry

     iteration #  5     ecut=    40.00 Ry     beta= 0.70
     Davidson diagonalization with overlap
     ethr =  1.53E-08,  avg # of iterations =  3.3

     total cpu time spent up to now is       12.0 secs

     total energy              =     -47.80655182 Ry
     estimated scf accuracy    <       0.00000006 Ry

     iteration #  6     ecut=    40.00 Ry     beta= 0.70
     Davidson diagonalization with overlap
     ethr =  3.85E-10,  avg # of iterations =  4.5

     total cpu time spent up to now is       12.3 secs

     total energy              =     -47.80655189 Ry
     estimated scf accuracy    <       0.00000002 Ry

     iteration #  7     ecut=    40.00 Ry     beta= 0.70
     Davidson diagonalization with overlap
     ethr =  1.49E-10,  avg # of iterations =  2.0

     total cpu time spent up to now is       12.5 secs

     End of self-consistent calculation

          k = 0.0730 0.1264 0.0980 (   463 PWs)   bands (ev):

    -9.8038  -8.8858   1.0294   4.5716   5.2743   5.4028   5.9279   6.0276
    18.5015  18.8234  19.4023  19.9985

          k = 0.0730 0.2950 0.0980 (   474 PWs)   bands (ev):

    -8.0947  -7.2480   1.2599   1.6720   3.0895   3.8604   4.1017   6.3798
    15.4022  16.8877  18.7196  19.4856

          k = 0.0730 0.4635 0.0980 (   478 PWs)   bands (ev):

    -5.1402  -4.4468  -3.0618  -2.4759   2.8342   3.1090   6.2963   8.1804
    11.6640  12.9291  18.1662  19.3240

          k = 0.0730-0.3792 0.0980 (   479 PWs)   bands (ev):

    -6.7547  -5.9678  -0.9905  -0.4653   3.1793   3.4486   4.6338   7.5901
    12.9876  14.8126  18.3646  19.4145

          k = 0.0730-0.2107 0.0980 (   469 PWs)   bands (ev):

    -9.1160  -8.2266   1.8591   3.4662   3.7348   4.8217   5.0060   5.3208
    17.7892  18.5742  19.1526  19.4172

          k = 0.0730-0.0421 0.0980 (   458 PWs)   bands (ev):

   -10.1499  -9.2168   0.6118   4.1937   6.3245   6.4699   6.6338   6.7512
    18.3003  18.6434  19.0106  19.3515

          k = 0.2190 0.3792 0.0980 (   478 PWs)   bands (ev):

    -5.7789  -5.0374  -0.6777  -0.4066   0.6897   0.8946   5.7984   8.5681
    12.2166  13.5542  21.1891  21.5814

          k = 0.2190 0.5478 0.0980 (   477 PWs)   bands (ev):

    -4.2220  -3.5830  -2.2715  -1.7974  -0.1397   0.2472   7.4506   9.3580
    10.9221  12.0819  20.9383  21.2449

          k = 0.2190-0.2950 0.0980 (   475 PWs)   bands (ev):

    -7.0894  -6.2853   0.2864   0.6812   2.2282   2.5129   4.2864   7.3781
    13.8839  15.2491  20.2698  20.7801

          k = 0.2190-0.1264 0.0980 (   471 PWs)   bands (ev):

    -8.7740  -7.8985   2.2702   2.3865   2.7644   4.8118   5.0086   5.6766
    16.7521  17.9892  18.3332  19.0380

          k = 0.3649 0.6321 0.0980 (   480 PWs)   bands (ev):

    -4.1225  -3.7930  -3.1178  -2.9082   1.4107   1.7762   7.1912   8.4934
    11.7623  11.9514  19.8749  20.9640

          k = 0.3649-0.2107 0.0980 (   475 PWs)   bands (ev):

    -6.0949  -5.3400  -2.1669  -1.5883   3.5248   3.7484   5.3371   7.9154
    12.0845  13.9376  17.5255  18.6526

     the Fermi energy is    10.0223 ev

!    total energy              =     -47.80655189 Ry
     estimated scf accuracy    <          8.4E-10 Ry
     smearing contrib. (-TS)   =      -0.00000000 Ry
     internal energy E=F+TS    =     -47.80655189 Ry

     The total energy is F=E-TS. E is the sum of the following terms:
     one-electron contribution =       3.76651411 Ry
     hartree contribution      =       8.03280944 Ry
     xc contribution           =     -16.78627955 Ry
     ewald contribution        =     -42.81959589 Ry

     convergence has been achieved in   7 iterations

     Forces acting on atoms (cartesian axes, Ry/au):

     atom    1 type  1   force =     0.00000000    0.00000000    0.00000000
     atom    2 type  1   force =    -0.00000000   -0.00000000   -0.00000000
     atom    3 type  1   force =     0.00000000   -0.00000000    0.00000000
     atom    4 type  1   force =    -0.00000000   -0.00000000   -0.00000000

     Total force =     0.000000     Total SCF correction =     0.000000


     Computing stress (Cartesian axis) and pressure

          total   stress  (Ry/bohr**3)                   (kbar)     P=       13.94
   0.00033969  -0.00000000   0.00000000           49.97       -0.00        0.00
  -0.00000000   0.00033969   0.00000000           -0.00       49.97        0.00
   0.00000000   0.00000000  -0.00039519            0.00        0.00      -58.13

     Energy error            =      1.4E-02 Ry
     Gradient error          =      3.7E-22 Ry/Bohr
     Cell gradient error     =      5.8E+01 kbar

     number of scf cycles    =   4
     number of bfgs steps    =   3

     enthalpy           old  =     -47.7925795209 Ry
     enthalpy           new  =     -47.8065518938 Ry

     CASE: enthalpy          _new < enthalpy          _old

     new trust radius        =       0.0258035703 bohr
     new conv_thr            =       0.0000000100 Ry

     new unit-cell volume =    183.69448 a.u.^3 (    27.22071 Ang^3 )
     density =      2.93082 g/cm^3

CELL_PARAMETERS (alat=  4.00000000)
   1.145437679   0.000000000  -0.000000000
  -0.572718839   0.991978128  -0.000000000
  -0.000000000  -0.000000000   2.526053698

ATOMIC_POSITIONS (crystal)
C               -0.0000000000       -0.0000000000        0.2500000000
C                0.0000000000        0.0000000000        0.7500000000
C                0.3333330000        0.6666660000        0.2500000000
C                0.6666660000        0.3333330000        0.7500000000



     Writing config-only to output data dir ../results/graphene-base/graphene-base.save/ :
     XML data file
     NEW-OLD atomic charge density approx. for the potential

     Check: negative core charge=   -0.000110

     total cpu time spent up to now is       12.6 secs

     Self-consistent Calculation

     iteration #  1     ecut=    40.00 Ry     beta= 0.70
     Davidson diagonalization with overlap
     ethr =  1.00E-06,  avg # of iterations =  6.7

     total cpu time spent up to now is       13.1 secs

     total energy              =     -47.80717783 Ry
     estimated scf accuracy    <       0.00004263 Ry

     iteration #  2     ecut=    40.00 Ry     beta= 0.70
     Davidson diagonalization with overlap
     ethr =  2.66E-07,  avg # of iterations =  1.1

     total cpu time spent up to now is       13.3 secs

     total energy              =     -47.80717655 Ry
     estimated scf accuracy    <       0.00000787 Ry

     iteration #  3     ecut=    40.00 Ry     beta= 0.70
     Davidson diagonalization with overlap
     ethr =  4.92E-08,  avg # of iterations =  2.0

     total cpu time spent up to now is       13.6 secs

     total energy              =     -47.80717823 Ry
     estimated scf accuracy    <       0.00000007 Ry

     iteration #  4     ecut=    40.00 Ry     beta= 0.70
     Davidson diagonalization with overlap
     ethr =  4.43E-10,  avg # of iterations =  4.9

     total cpu time spent up to now is       13.9 secs

     total energy              =     -47.80717833 Ry
     estimated scf accuracy    <       0.00000003 Ry

     iteration #  5     ecut=    40.00 Ry     beta= 0.70
     Davidson diagonalization with overlap
     ethr =  1.58E-10,  avg # of iterations =  2.2

     total cpu time spent up to now is       14.1 secs

     total energy              =     -47.80717833 Ry
     estimated scf accuracy    <       0.00000001 Ry

     iteration #  6     ecut=    40.00 Ry     beta= 0.70
     Davidson diagonalization with overlap
     ethr =  7.26E-11,  avg # of iterations =  1.0

     total cpu time spent up to now is       14.4 secs

     End of self-consistent calculation

          k = 0.0728 0.1260 0.0990 (   463 PWs)   bands (ev):

    -9.7079  -8.7355   1.0947   4.7683   5.3233   5.4624   5.9851   6.0941
    18.6901  18.7808  19.5205  19.9190

          k = 0.0728 0.2940 0.0990 (   474 PWs)   bands (ev):

    -8.0060  -7.1076   1.3170   1.7594   3.1388   3.9247   4.1872   6.5511
    15.3566  16.8871  18.6625  19.5223

          k = 0.0728 0.4620 0.0990 (   478 PWs)   bands (ev):

    -5.0667  -4.3315  -2.9801  -2.3586   2.9039   3.2027   6.3214   8.2608
    11.7236  12.9981  18.0880  19.3070

          k = 0.0728-0.3780 0.0990 (   479 PWs)   bands (ev):

    -6.6720  -5.8360  -0.9246  -0.3629   3.2472   3.5396   4.6716   7.7329
    12.9790  14.8546  18.2922  19.4080

          k = 0.0728-0.2100 0.0990 (   469 PWs)   bands (ev):

    -9.0230  -8.0803   1.9177   3.5170   3.8072   4.8828   5.0833   5.5085
    17.7148  18.5645  19.1217  19.5810

          k = 0.0728-0.0420 0.0990 (   458 PWs)   bands (ev):

   -10.0525  -9.0645   0.6803   4.3961   6.3701   6.5291   6.6809   6.8110
    18.5269  18.6362  19.0943  19.3233

          k = 0.2183 0.3780 0.0990 (   478 PWs)   bands (ev):

    -5.7006  -4.9121  -0.6183  -0.3281   0.7871   1.0057   5.8254   8.6959
    12.2015  13.5964  21.2908  21.5670

          k = 0.2183 0.5460 0.0990 (   477 PWs)   bands (ev):

    -4.1525  -3.4737  -2.1985  -1.6980  -0.0484   0.3616   7.4631   9.4250
    10.9496  12.1573  21.0123  21.2670

          k = 0.2183-0.2940 0.0990 (   475 PWs)   bands (ev):

    -7.0051  -6.1512   0.3460   0.7679   2.3041   2.6101   4.3255   7.5319
    13.8536  15.2689  20.2078  20.8987

          k = 0.2183-0.1260 0.0990 (   471 PWs)   bands (ev):

    -8.6824  -7.7542   2.3228   2.4420   2.8474   4.8713   5.0874   5.8591
    16.6908  17.9494  18.3003  19.0962

          k = 0.3638 0.6301 0.0990 (   480 PWs)   bands (ev):

    -4.0608  -3.7116  -3.0054  -2.7848   1.4844   1.8781   7.2063   8.5511
    11.8476  12.0029  19.8001  20.9544

          k = 0.3638-0.2100 0.0990 (   475 PWs)   bands (ev):

    -6.0155  -5.2133  -2.0951  -1.4775   3.5935   3.8385   5.3697   8.0329
    12.1070  14.0005  17.4496  18.6423

     the Fermi energy is    10.0498 ev

!    total energy              =     -47.80717833 Ry
     estimated scf accuracy    <          3.8E-10 Ry
     smearing contrib. (-TS)   =      -0.00000000 Ry
     internal energy E=F+TS    =     -47.80717833 Ry

     The total energy is F=E-TS. E is the sum of the following terms:
     one-electron contribution =       4.33018421 Ry
     hartree contribution      =       7.78928127 Ry
     xc contribution           =     -16.76457074 Ry
     ewald contribution        =     -43.16207306 Ry

     convergence has been achieved in   6 iterations

     Forces acting on atoms (cartesian axes, Ry/au):

     atom    1 type  1   force =    -0.00000000    0.00000000    0.00000000
     atom    2 type  1   force =     0.00000000   -0.00000000    0.00000000
     atom    3 type  1   force =    -0.00000000   -0.00000000   -0.00000000
     atom    4 type  1   force =     0.00000000    0.00000000    0.00000000

     Total force =     0.000000     Total SCF correction =     0.000000


     Computing stress (Cartesian axis) and pressure

          total   stress  (Ry/bohr**3)                   (kbar)     P=       -9.32
  -0.00003827   0.00000000  -0.00000000           -5.63        0.00       -0.00
   0.00000000  -0.00003827  -0.00000000            0.00       -5.63       -0.00
  -0.00000000  -0.00000000  -0.00011349           -0.00       -0.00      -16.69

     Energy error            =      6.3E-04 Ry
     Gradient error          =      3.5E-22 Ry/Bohr
     Cell gradient error     =      1.7E+01 kbar

     number of scf cycles    =   5
     number of bfgs steps    =   4

     enthalpy           old  =     -47.8065518938 Ry
     enthalpy           new  =     -47.8071783342 Ry

     CASE: enthalpy          _new < enthalpy          _old

     new trust radius        =       0.0090907675 bohr
     new conv_thr            =       0.0000000100 Ry

     new unit-cell volume =    183.03409 a.u.^3 (    27.12285 Ang^3 )
     density =      2.94139 g/cm^3

CELL_PARAMETERS (alat=  4.00000000)
   1.145298957   0.000000000  -0.000000000
  -0.572649479   0.991857992  -0.000000000
  -0.000000000  -0.000000000   2.517582106

ATOMIC_POSITIONS (crystal)
C               -0.0000000000       -0.0000000000        0.2500000000
C                0.0000000000        0.0000000000        0.7500000000
C                0.3333330000        0.6666660000        0.2500000000
C                0.6666660000        0.3333330000        0.7500000000



     Writing config-only to output data dir ../results/graphene-base/graphene-base.save/ :
     XML data file
     NEW-OLD atomic charge density approx. for the potential

     Check: negative core charge=   -0.000106

     total cpu time spent up to now is       14.8 secs

     Self-consistent Calculation

     iteration #  1     ecut=    40.00 Ry     beta= 0.70
     Davidson diagonalization with overlap
     ethr =  1.00E-06,  avg # of iterations =  3.8

     Threshold (ethr) on eigenvalues was too large:
     Diagonalizing with lowered threshold

     Davidson diagonalization with overlap
     ethr =  2.18E-08,  avg # of iterations =  3.3

     total cpu time spent up to now is       15.7 secs

     total energy              =     -47.80721597 Ry
     estimated scf accuracy    <       0.00000236 Ry

     iteration #  2     ecut=    40.00 Ry     beta= 0.70
     Davidson diagonalization with overlap
     ethr =  1.47E-08,  avg # of iterations =  1.2

     total cpu time spent up to now is       16.2 secs

     total energy              =     -47.80721596 Ry
     estimated scf accuracy    <       0.00000056 Ry

     iteration #  3     ecut=    40.00 Ry     beta= 0.70
     Davidson diagonalization with overlap
     ethr =  3.50E-09,  avg # of iterations =  2.0

     total cpu time spent up to now is       16.5 secs

     total energy              =     -47.80721603 Ry
     estimated scf accuracy    <       0.00000003 Ry

     iteration #  4     ecut=    40.00 Ry     beta= 0.70
     Davidson diagonalization with overlap
     ethr =  1.92E-10,  avg # of iterations =  3.4

     total cpu time spent up to now is       16.7 secs

     End of self-consistent calculation

          k = 0.0728 0.1260 0.0993 (   463 PWs)   bands (ev):

    -9.6696  -8.6784   1.1270   4.8457   5.3732   5.5157   6.0361   6.1481
    18.7781  18.8271  19.6209  19.9626

          k = 0.0728 0.2941 0.0993 (   474 PWs)   bands (ev):

    -7.9666  -7.0506   1.3628   1.8151   3.1714   3.9724   4.2419   6.6260
    15.3935  16.9418  18.7106  19.5937

          k = 0.0728 0.4621 0.0993 (   478 PWs)   bands (ev):

    -5.0251  -4.2749  -2.9371  -2.3024   2.9509   3.2574   6.3555   8.3148
    11.7788  13.0605  18.1322  19.3732

          k = 0.0728-0.3781 0.0993 (   479 PWs)   bands (ev):

    -6.6316  -5.7789  -0.8806  -0.3066   3.2945   3.5943   4.7049   7.8030
    13.0189  14.9150  18.3375  19.4749

          k = 0.0728-0.2100 0.0993 (   469 PWs)   bands (ev):

    -8.9843  -8.0232   1.9500   3.5648   3.8620   4.9318   5.1376   5.5852
    17.7513  18.6163  19.1745  19.6730

          k = 0.0728-0.0420 0.0993 (   458 PWs)   bands (ev):

   -10.0144  -9.0075   0.7125   4.4742   6.4201   6.5834   6.7310   6.8653
    18.6090  18.7038  19.1880  19.3748

          k = 0.2183 0.3781 0.0993 (   478 PWs)   bands (ev):

    -5.6595  -4.8551  -0.5722  -0.2760   0.8361   1.0591   5.8583   8.7645
    12.2391  13.6534  21.3665  21.6207

          k = 0.2183 0.5461 0.0993 (   477 PWs)   bands (ev):

    -4.1102  -3.4173  -2.1540  -1.6428  -0.0030   0.4162   7.4965   9.4780
    10.9960  12.2200  21.0792  21.3267

          k = 0.2183-0.2941 0.0993 (   475 PWs)   bands (ev):

    -6.9650  -6.0942   0.3917   0.8230   2.3511   2.6646   4.3580   7.6045
    13.8911  15.3243  20.2556  20.9828

          k = 0.2183-0.1260 0.0993 (   471 PWs)   bands (ev):

    -8.6434  -7.6971   2.3551   2.4882   2.9033   4.9198   5.1421   5.9354
    16.7274  17.9976  18.3532  19.1711

          k = 0.3638 0.6301 0.0993 (   480 PWs)   bands (ev):

    -4.0180  -3.6636  -2.9531  -2.7300   1.5301   1.9331   7.2401   8.5991
    11.9111  12.0586  19.8458  21.0173

          k = 0.3638-0.2100 0.0993 (   475 PWs)   bands (ev):

    -5.9747  -5.1562  -2.0519  -1.4211   3.6412   3.8931   5.4034   8.0968
    12.1527  14.0639  17.4937  18.7091

     the Fermi energy is    10.0977 ev

!    total energy              =     -47.80721605 Ry
     estimated scf accuracy    <          3.2E-09 Ry
     smearing contrib. (-TS)   =      -0.00000000 Ry
     internal energy E=F+TS    =     -47.80721605 Ry

     The total energy is F=E-TS. E is the sum of the following terms:
     one-electron contribution =       4.52634491 Ry
     hartree contribution      =       7.72312338 Ry
     xc contribution           =     -16.76858405 Ry
     ewald contribution        =     -43.28810029 Ry

     convergence has been achieved in   4 iterations

     Forces acting on atoms (cartesian axes, Ry/au):

     atom    1 type  1   force =    -0.00000000   -0.00000000   -0.00000000
     atom    2 type  1   force =     0.00000000    0.00000000    0.00000000
     atom    3 type  1   force =    -0.00000000   -0.00000000   -0.00000000
     atom    4 type  1   force =     0.00000000   -0.00000000    0.00000000

     Total force =     0.000000     Total SCF correction =     0.000000


     Computing stress (Cartesian axis) and pressure

          total   stress  (Ry/bohr**3)                   (kbar)     P=       -1.37
  -0.00001114   0.00000000  -0.00000000           -1.64        0.00       -0.00
   0.00000000  -0.00001114  -0.00000000            0.00       -1.64       -0.00
  -0.00000000  -0.00000000  -0.00000573           -0.00       -0.00       -0.84

     Energy error            =      3.8E-05 Ry
     Gradient error          =      2.5E-22 Ry/Bohr
     Cell gradient error     =      1.6E+00 kbar

     number of scf cycles    =   6
     number of bfgs steps    =   5

     enthalpy           old  =     -47.8071783342 Ry
     enthalpy           new  =     -47.8072160471 Ry

     CASE: enthalpy          _new < enthalpy          _old

     new trust radius        =       0.0004444116 bohr
     new conv_thr            =       0.0000000100 Ry

     new unit-cell volume =    182.97527 a.u.^3 (    27.11414 Ang^3 )
     density =      2.94234 g/cm^3

CELL_PARAMETERS (alat=  4.00000000)
   1.145208981   0.000000000  -0.000000000
  -0.572604490   0.991780070  -0.000000000
  -0.000000000  -0.000000000   2.517168608

ATOMIC_POSITIONS (crystal)
C               -0.0000000000       -0.0000000000        0.2500000000
C                0.0000000000        0.0000000000        0.7500000000
C                0.3333330000        0.6666660000        0.2500000000
C                0.6666660000        0.3333330000        0.7500000000



     Writing config-only to output data dir ../results/graphene-base/graphene-base.save/ :
     XML data file
     NEW-OLD atomic charge density approx. for the potential

     Check: negative core charge=   -0.000106

     total cpu time spent up to now is       16.8 secs

     Self-consistent Calculation

     iteration #  1     ecut=    40.00 Ry     beta= 0.70
     Davidson diagonalization with overlap
     ethr =  1.00E-06,  avg # of iterations =  2.0

     Threshold (ethr) on eigenvalues was too large:
     Diagonalizing with lowered threshold

     Davidson diagonalization with overlap
     ethr =  5.60E-10,  avg # of iterations =  2.6

     total cpu time spent up to now is       17.8 secs

     total energy              =     -47.80721628 Ry
     estimated scf accuracy    <       0.00000005 Ry

     iteration #  2     ecut=    40.00 Ry     beta= 0.70
     Davidson diagonalization with overlap
     ethr =  3.42E-10,  avg # of iterations =  2.0

     total cpu time spent up to now is       18.3 secs

     total energy              =     -47.80721628 Ry
     estimated scf accuracy    <       0.00000001 Ry

     iteration #  3     ecut=    40.00 Ry     beta= 0.70
     Davidson diagonalization with overlap
     ethr =  7.23E-11,  avg # of iterations =  2.1

     total cpu time spent up to now is       18.6 secs

     End of self-consistent calculation

          k = 0.0728 0.1260 0.0993 (   463 PWs)   bands (ev):

    -9.6675  -8.6755   1.1290   4.8498   5.3775   5.5201   6.0403   6.1523
    18.7844  18.8329  19.6282  19.9687

          k = 0.0728 0.2941 0.0993 (   474 PWs)   bands (ev):

    -7.9643  -7.0474   1.3664   1.8192   3.1739   3.9761   4.2459   6.6304
    15.3983  16.9475  18.7168  19.6006

          k = 0.0728 0.4621 0.0993 (   478 PWs)   bands (ev):

    -5.0222  -4.2713  -2.9342  -2.2989   2.9544   3.2612   6.3586   8.3189
    11.7834  13.0657  18.1385  19.3805

          k = 0.0728-0.3781 0.0993 (   479 PWs)   bands (ev):

    -6.6291  -5.7756  -0.8773  -0.3027   3.2981   3.5982   4.7076   7.8075
    13.0233  14.9205  18.3438  19.4821

          k = 0.0728-0.2101 0.0993 (   469 PWs)   bands (ev):

    -8.9821  -8.0202   1.9522   3.5688   3.8663   4.9357   5.1418   5.5895
    17.7567  18.6221  19.1807  19.6799

          k = 0.0728-0.0420 0.0993 (   458 PWs)   bands (ev):

   -10.0124  -9.0046   0.7145   4.4782   6.4244   6.5879   6.7353   6.8697
    18.6153  18.7100  19.1951  19.3808

          k = 0.2183 0.3781 0.0993 (   478 PWs)   bands (ev):

    -5.6568  -4.8516  -0.5685  -0.2721   0.8393   1.0624   5.8612   8.7691
    12.2433  13.6585  21.3726  21.6268

          k = 0.2183 0.5462 0.0993 (   477 PWs)   bands (ev):

    -4.1071  -3.4136  -2.1508  -1.6391  -0.0001   0.4196   7.4997   9.4823
    11.0003  12.2250  21.0849  21.3326

          k = 0.2183-0.2941 0.0993 (   475 PWs)   bands (ev):

    -6.9625  -6.0909   0.3953   0.8270   2.3545   2.6683   4.3606   7.6090
    13.8956  15.3297  20.2620  20.9894

          k = 0.2183-0.1260 0.0993 (   471 PWs)   bands (ev):

    -8.6412  -7.6941   2.3574   2.4919   2.9074   4.9237   5.1462   5.9397
    16.7325  18.0035  18.3594  19.1779

          k = 0.3638 0.6302 0.0993 (   480 PWs)   bands (ev):

    -4.0147  -3.6602  -2.9499  -2.7267   1.5334   1.9368   7.2433   8.6030
    11.9160  12.0634  19.8521  21.0241

          k = 0.3638-0.2101 0.0993 (   475 PWs)   bands (ev):

    -5.9721  -5.1528  -2.0488  -1.4174   3.6448   3.8970   5.4063   8.1012
    12.1570  14.0693  17.4999  18.7164

     the Fermi energy is    10.1022 ev

!    total energy              =     -47.80721628 Ry
     estimated scf accuracy    <          3.9E-10 Ry
     smearing contrib. (-TS)   =      -0.00000000 Ry
     internal energy E=F+TS    =     -47.80721628 Ry

     The total energy is F=E-TS. E is the sum of the following terms:
     one-electron contribution =       4.53596714 Ry
     hartree contribution      =       7.72098151 Ry
     xc contribution           =     -16.76947182 Ry
     ewald contribution        =     -43.29469311 Ry

     convergence has been achieved in   3 iterations

     Forces acting on atoms (cartesian axes, Ry/au):

     atom    1 type  1   force =    -0.00000000    0.00000000    0.00000000
     atom    2 type  1   force =     0.00000000   -0.00000000   -0.00000000
     atom    3 type  1   force =    -0.00000000   -0.00000000   -0.00000000
     atom    4 type  1   force =    -0.00000000    0.00000000    0.00000000

     Total force =     0.000000     Total SCF correction =     0.000000


     Computing stress (Cartesian axis) and pressure

          total   stress  (Ry/bohr**3)                   (kbar)     P=        0.03
  -0.00000011   0.00000000  -0.00000000           -0.02        0.00       -0.00
   0.00000000  -0.00000011  -0.00000000            0.00       -0.02       -0.00
  -0.00000000  -0.00000000   0.00000074           -0.00       -0.00        0.11

     Energy error            =      2.3E-07 Ry
     Gradient error          =      5.0E-22 Ry/Bohr
     Cell gradient error     =      1.1E-01 kbar

     bfgs converged in   7 scf cycles and   6 bfgs steps
     (criteria: energy <  1.0E-04 Ry, force <  1.0E-03 Ry/Bohr, cell <  5.0E-01 kbar)

     End of BFGS Geometry Optimization

     Final enthalpy           =     -47.8072162813 Ry

     File ../results/graphene-base/graphene-base.bfgs deleted, as requested
Begin final coordinates
     new unit-cell volume =    182.97527 a.u.^3 (    27.11414 Ang^3 )
     density =      2.94234 g/cm^3

CELL_PARAMETERS (alat=  4.00000000)
   1.145208981   0.000000000  -0.000000000
  -0.572604490   0.991780070  -0.000000000
  -0.000000000  -0.000000000   2.517168608

ATOMIC_POSITIONS (crystal)
C               -0.0000000000       -0.0000000000        0.2500000000
C                0.0000000000        0.0000000000        0.7500000000
C                0.3333330000        0.6666660000        0.2500000000
C                0.6666660000        0.3333330000        0.7500000000
End final coordinates



     Writing config-only to output data dir ../results/graphene-base/graphene-base.save/ :
     XML data file

     Final scf calculation at the relaxed structure.
     The G-vectors are recalculated for the final unit cell
     Results may differ from those at the preceding step.

     Parallelization info
     --------------------
     sticks:   dense  smooth     PW     G-vecs:    dense   smooth      PW
     Min         117     117     42                 3131     3131     646
     Max         118     118     43                 3132     3132     649
     Sum         235     235     85                 6263     6263    1295

     Using Slab Decomposition



     bravais-lattice index     =            4
     lattice parameter (alat)  =       4.0000  a.u.
     unit-cell volume          =     182.9753 (a.u.)^3
     number of atoms/cell      =            4
     number of atomic types    =            1
     number of electrons       =        16.00
     number of Kohn-Sham states=           12
     kinetic-energy cutoff     =      40.0000  Ry
     charge density cutoff     =     160.0000  Ry
     scf convergence threshold =      1.0E-08
     mixing beta               =       0.7000
     number of iterations used =            8  TF        mixing
     press convergence thresh. =      5.0E-01
     Exchange-correlation= LDA
                           (   1   1   0   0   0   0   0)

     celldm(1)=   4.000000  celldm(2)=   0.000000  celldm(3)=   2.000000
     celldm(4)=   0.000000  celldm(5)=   0.000000  celldm(6)=   0.000000

     crystal axes: (cart. coord. in units of alat)
               a(1) = (   1.145209   0.000000  -0.000000 )  
               a(2) = (  -0.572604   0.991780  -0.000000 )  
               a(3) = (  -0.000000  -0.000000   2.517169 )  

     reciprocal axes: (cart. coord. in units 2 pi/alat)
               b(1) = (  0.873203  0.504144  0.000000 )  
               b(2) = ( -0.000000  1.008288  0.000000 )  
               b(3) = (  0.000000  0.000000  0.397272 )  


     PseudoPot. # 1 for C  read from file:
     /home/edoardocabiati/.burai/.pseudopot/C.pz-n-rrkjus_psl.0.1.UPF
     MD5 check sum: a3cecbabebb5b3a1aff122f23eb09bb0
     Pseudo is Ultrasoft + core correction, Zval =  4.0
     Generated using "atomic" code by A. Dal Corso  v.5.0.2 svn rev. 9415
     Using radial grid of 1073 points,  4 beta functions with: 
                l(1) =   0
                l(2) =   0
                l(3) =   1
                l(4) =   1
     Q(r) pseudized with 0 coefficients 


     atomic species   valence    mass     pseudopotential
     C                 4.00    12.01100     C ( 1.00)

     24 Sym. Ops., with inversion, found (12 have fractional translation)



   Cartesian axes

     site n.     atom                  positions (alat units)
         1        C      tau(   1) = (  -0.0000000  -0.0000000   0.6292922  )
         2        C      tau(   2) = (   0.0000000   0.0000000   1.8878765  )
         3        C      tau(   3) = (   0.0000000   0.6611861   0.6292922  )
         4        C      tau(   4) = (   0.5726039   0.3305930   1.8878765  )

     number of k points=    12  Gaussian smearing, width (Ry)=  0.0100
                       cart. coord. in units 2pi/alat
        k(    1) = (   0.0727669   0.1260360   0.0993179), wk =   0.1111111
        k(    2) = (   0.0727669   0.2940840   0.0993179), wk =   0.2222222
        k(    3) = (   0.0727669   0.4621320   0.0993179), wk =   0.2222222
        k(    4) = (   0.0727669  -0.3781080   0.0993179), wk =   0.2222222
        k(    5) = (   0.0727669  -0.2100600   0.0993179), wk =   0.2222222
        k(    6) = (   0.0727669  -0.0420120   0.0993179), wk =   0.1111111
        k(    7) = (   0.2183008   0.3781080   0.0993179), wk =   0.1111111
        k(    8) = (   0.2183008   0.5461560   0.0993179), wk =   0.2222222
        k(    9) = (   0.2183008  -0.2940840   0.0993179), wk =   0.2222222
        k(   10) = (   0.2183008  -0.1260360   0.0993179), wk =   0.1111111
        k(   11) = (   0.3638346   0.6301800   0.0993179), wk =   0.1111111
        k(   12) = (   0.3638346  -0.2100600   0.0993179), wk =   0.1111111

     Dense  grid:     6263 G-vectors     FFT dimensions: (  20,  20,  48)

     Estimated max dynamical RAM per process >       6.24 MB

     Estimated total dynamical RAM >      12.47 MB

     Check: negative core charge=   -0.000047

     Initial potential from superposition of free atoms

     starting charge      15.9999, renormalised to      16.0000
     Starting wfcs are   16 randomized atomic wfcs

     total cpu time spent up to now is       19.0 secs

     Self-consistent Calculation

     iteration #  1     ecut=    40.00 Ry     beta= 0.70
     Davidson diagonalization with overlap
     c_bands:  4 eigenvalues not converged
     c_bands:  3 eigenvalues not converged
     c_bands:  1 eigenvalues not converged
     c_bands:  2 eigenvalues not converged
     c_bands:  4 eigenvalues not converged
     c_bands:  4 eigenvalues not converged
     c_bands:  2 eigenvalues not converged
     c_bands:  2 eigenvalues not converged
     c_bands:  2 eigenvalues not converged
     c_bands:  1 eigenvalues not converged
     c_bands:  2 eigenvalues not converged
     ethr =  1.00E-06,  avg # of iterations = 19.9

     total cpu time spent up to now is       20.9 secs

     total energy              =     -47.85939450 Ry
     estimated scf accuracy    <       0.42329970 Ry

     iteration #  2     ecut=    40.00 Ry     beta= 0.70
     Davidson diagonalization with overlap
     ethr =  2.65E-03,  avg # of iterations =  1.0

     total cpu time spent up to now is       21.2 secs

     total energy              =     -47.80817295 Ry
     estimated scf accuracy    <       0.10295176 Ry

     iteration #  3     ecut=    40.00 Ry     beta= 0.70
     Davidson diagonalization with overlap
     ethr =  6.43E-04,  avg # of iterations =  3.2

     total cpu time spent up to now is       21.5 secs

     total energy              =     -47.83981820 Ry
     estimated scf accuracy    <       0.00246533 Ry

     iteration #  4     ecut=    40.00 Ry     beta= 0.70
     Davidson diagonalization with overlap
     ethr =  1.54E-05,  avg # of iterations = 10.5

     total cpu time spent up to now is       22.0 secs

     total energy              =     -47.84121957 Ry
     estimated scf accuracy    <       0.00016066 Ry

     iteration #  5     ecut=    40.00 Ry     beta= 0.70
     Davidson diagonalization with overlap
     ethr =  1.00E-06,  avg # of iterations =  5.6

     total cpu time spent up to now is       22.5 secs

     total energy              =     -47.84131456 Ry
     estimated scf accuracy    <       0.00005770 Ry

     iteration #  6     ecut=    40.00 Ry     beta= 0.70
     Davidson diagonalization with overlap
     ethr =  3.61E-07,  avg # of iterations =  2.5

     total cpu time spent up to now is       22.8 secs

     total energy              =     -47.84132276 Ry
     estimated scf accuracy    <       0.00000355 Ry

     iteration #  7     ecut=    40.00 Ry     beta= 0.70
     Davidson diagonalization with overlap
     ethr =  2.22E-08,  avg # of iterations =  5.6

     total cpu time spent up to now is       23.2 secs

     total energy              =     -47.84132685 Ry
     estimated scf accuracy    <       0.00000109 Ry

     iteration #  8     ecut=    40.00 Ry     beta= 0.70
     Davidson diagonalization with overlap
     ethr =  6.82E-09,  avg # of iterations =  2.0

     total cpu time spent up to now is       23.5 secs

     total energy              =     -47.84132696 Ry
     estimated scf accuracy    <       0.00000006 Ry

     iteration #  9     ecut=    40.00 Ry     beta= 0.70
     Davidson diagonalization with overlap
     ethr =  3.56E-10,  avg # of iterations =  5.3

     total cpu time spent up to now is       23.9 secs

     End of self-consistent calculation

          k = 0.0728 0.1260 0.0993 (   789 PWs)   bands (ev):

    -9.6515  -8.6570   1.0907   4.8070   5.3631   5.5096   6.0166   6.1336
    18.7606  18.8057  19.6107  19.8958

          k = 0.0728 0.2941 0.0993 (   786 PWs)   bands (ev):

    -7.9485  -7.0318   1.3674   1.8213   3.1299   3.9581   4.2368   6.5828
    15.3302  16.8617  18.7091  19.5869

          k = 0.0728 0.4621 0.0993 (   778 PWs)   bands (ev):

    -5.0076  -4.2573  -2.9290  -2.2912   2.9407   3.2558   6.3187   8.2678
    11.7265  13.0042  18.1383  19.3838

          k = 0.0728-0.3781 0.0993 (   779 PWs)   bands (ev):

    -6.6142  -5.7600  -0.8724  -0.2971   3.2861   3.5910   4.6708   7.7564
    12.9692  14.8460  18.3433  19.4816

          k = 0.0728-0.2101 0.0993 (   791 PWs)   bands (ev):

    -8.9662  -8.0029   1.9132   3.5597   3.8637   4.9143   5.1288   5.5446
    17.6889  18.5595  19.1526  19.6149

          k = 0.0728-0.0420 0.0993 (   790 PWs)   bands (ev):

    -9.9960  -8.9858   0.6750   4.4359   6.3995   6.5668   6.7045   6.8518
    18.5896  18.6822  19.1801  19.3476

          k = 0.2183 0.3781 0.0993 (   777 PWs)   bands (ev):

    -5.6424  -4.8374  -0.5623  -0.2654   0.8331   1.0531   5.8114   8.7156
    12.1843  13.5778  21.3544  21.6119

          k = 0.2183 0.5462 0.0993 (   774 PWs)   bands (ev):

    -4.0953  -3.4008  -2.1452  -1.6313  -0.0061   0.4173   7.4549   9.4238
    10.9454  12.1500  21.0699  21.3198

          k = 0.2183-0.2941 0.0993 (   779 PWs)   bands (ev):

    -6.9468  -6.0771   0.3970   0.8315   2.3401   2.6625   4.3084   7.5590
    13.8329  15.2436  20.2495  20.9668

          k = 0.2183-0.1260 0.0993 (   788 PWs)   bands (ev):

    -8.6253  -7.6776   2.3102   2.4896   2.9069   4.9020   5.1393   5.8962
    16.6755  17.9545  18.3312  19.1451

          k = 0.3638 0.6302 0.0993 (   779 PWs)   bands (ev):

    -3.9997  -3.6485  -2.9446  -2.7209   1.5253   1.9352   7.1979   8.5458
    11.8430  12.0187  19.8476  21.0173

          k = 0.3638-0.2101 0.0993 (   778 PWs)   bands (ev):

    -5.9583  -5.1375  -2.0431  -1.4108   3.6270   3.8925   5.3691   8.0509
    12.1063  13.9997  17.5031  18.7214

     the Fermi energy is    10.0991 ev

!    total energy              =     -47.84132702 Ry
     estimated scf accuracy    <          2.2E-09 Ry
     smearing contrib. (-TS)   =      -0.00000000 Ry
     internal energy E=F+TS    =     -47.84132702 Ry

     The total energy is F=E-TS. E is the sum of the following terms:
     one-electron contribution =       4.49464144 Ry
     hartree contribution      =       7.73980819 Ry
     xc contribution           =     -16.78109056 Ry
     ewald contribution        =     -43.29468610 Ry

     convergence has been achieved in   9 iterations

     Forces acting on atoms (cartesian axes, Ry/au):

     atom    1 type  1   force =    -0.00000000   -0.00000000   -0.00000000
     atom    2 type  1   force =     0.00000000    0.00000000    0.00000000
     atom    3 type  1   force =     0.00000000    0.00000000    0.00000000
     atom    4 type  1   force =    -0.00000000    0.00000000   -0.00000000

     Total force =     0.000000     Total SCF correction =     0.000000


     Computing stress (Cartesian axis) and pressure

          total   stress  (Ry/bohr**3)                   (kbar)     P=      173.00
   0.00090060  -0.00000000   0.00000000          132.48       -0.00        0.00
  -0.00000000   0.00090060   0.00000000           -0.00      132.48        0.00
   0.00000000   0.00000000   0.00172683            0.00        0.00      254.03


     Writing all to output data dir ../results/graphene-base/graphene-base.save/ :
     XML data file, charge density, pseudopotentials, collected wavefunctions

     init_run     :      0.77s CPU      0.59s WALL (       2 calls)
     electrons    :     35.38s CPU     21.79s WALL (       8 calls)
     update_pot   :      0.08s CPU      0.07s WALL (       6 calls)
     forces       :      0.49s CPU      0.29s WALL (       8 calls)
     stress       :      1.84s CPU      1.23s WALL (       8 calls)

     Called by init_run:
     wfcinit      :      0.40s CPU      0.23s WALL (       2 calls)
     potinit      :      0.03s CPU      0.03s WALL (       2 calls)
     hinit0       :      0.32s CPU      0.31s WALL (       2 calls)

     Called by electrons:
     c_bands      :     31.15s CPU     19.03s WALL (      51 calls)
     sum_band     :      3.72s CPU      2.43s WALL (      51 calls)
     v_of_rho     :      0.11s CPU      0.08s WALL (      57 calls)
     newd         :      0.33s CPU      0.19s WALL (      57 calls)
     mix_rho      :      0.07s CPU      0.05s WALL (      51 calls)

     Called by c_bands:
     init_us_2    :      0.50s CPU      0.32s WALL (    1440 calls)
     cegterg      :     30.23s CPU     18.46s WALL (     612 calls)

     Called by *egterg:
     cdiaghg      :      1.73s CPU      0.93s WALL (    3200 calls)
     h_psi        :     20.91s CPU     13.05s WALL (    3320 calls)
     s_psi        :      1.48s CPU      0.80s WALL (    3320 calls)
     g_psi        :      0.21s CPU      0.17s WALL (    2684 calls)

     Called by h_psi:
     h_psi:calbec :      1.71s CPU      0.91s WALL (    3320 calls)
     vloc_psi     :     17.55s CPU     11.22s WALL (    3320 calls)
     add_vuspsi   :      1.51s CPU      0.80s WALL (    3320 calls)

     General routines
     calbec       :      2.60s CPU      1.44s WALL (    4412 calls)
     fft          :      0.24s CPU      0.21s WALL (     300 calls)
     ffts         :      0.02s CPU      0.01s WALL (      51 calls)
     fftw         :     17.92s CPU     11.53s WALL (   61604 calls)

     Parallel routines

     PWSCF        :     38.73s CPU     24.14s WALL


   This run was terminated on:  21:22:54   5Aug2024            

=------------------------------------------------------------------------------=
   JOB DONE.
=------------------------------------------------------------------------------=
