# --- log file ---

variable pre equal 112 # desired pressure (Atm)
variable tem equal 300 # desired temperature (K)

variable k1 equal 0.5 # spring constant
variable k2 equal 10 # spring constant

units real
atom_style molecular
boundary p p p
neighbor 1.0 bin
neigh_modify delay 3 one 6000
bond_style harmonic
angle_style harmonic
dihedral_style opls
improper_style harmonic
pair_style hybrid lj/cut 14 sg 15 cb 30 # Fluid-fluid interactions have a cutoff of 15 Å, fluid-solid interactions have a cutoff of 30 Å
# *--* C-C parameters *--*
bond_style harmonic
angle_style harmonic
dihedral_style opls
improper_style harmonic
# *--* C-C parameters *--*


# 2. Read the graphite platelet data file and define potentials parameters
read_data       ../geometry/carbonPlatelets/simulation_data/abpot_sys.data  extra/atom/types 1
Reading data file ...
  orthogonal box = (-30 -30 -30) to (30 30 30)
  1 by 2 by 2 MPI processor grid
  reading atoms ...
  480 atoms
  reading velocities ...
  480 velocities
  scanning bonds ...
  2 = max bonds/atom
  scanning angles ...
  3 = max angles/atom
  scanning dihedrals ...
  8 = max dihedrals/atom
  scanning impropers ...
  2 = max impropers/atom
  orthogonal box = (-30 -30 -30) to (30 30 30)
  1 by 2 by 2 MPI processor grid
  reading bonds ...
  676 bonds
  reading angles ...
  1268 angles
  reading dihedrals ...
  2394 dihedrals
  reading impropers ...
  396 impropers
Finding 1-2 1-3 1-4 neighbors ...
  special bond factors lj:    0        0        0       
  special bond factors coul:  0        0        0       
     3 = max # of 1-2 neighbors
     6 = max # of 1-3 neighbors
    18 = max # of 1-4 neighbors
    18 = max # of special neighbors
  special bonds CPU = 0.000 seconds
  read_data CPU = 0.020 seconds
include         PARM.lammps

#////////////////////////////////////////////////////////////////////////////////////////////////////////////////////////////////
#//     Filename: PARM.lammps
#//     File Type: LAMMPS input script
#//     Description: This script defines the parameters for the simulation of hydrogen absorption in graphite platelets.
#//     Author: Edoardo Cabiati
#//     Date: 2024-07-27
#////////////////////////////////////////////////////////////////////////////////////////////////////////////////////////////////

mass 2 2.016 # For now at least, in accordance with the paper by Wang and Johnson,
             # 1998, the hydrogen atoms are regarded as simple spherical atoms

# //////////////////////////////////////    C-C potentials    //////////////////////////////////////
pair_coeff 1 1 lj/cut 0.066 3.4
bond_coeff 1 469 1.4
angle_coeff 1 63 120
dihedral_coeff 1 0 7.25 0 0
improper_coeff 1 5 180
special_bonds lj 0.0 0.0 0.5
Finding 1-2 1-3 1-4 neighbors ...
  special bond factors lj:    0        0        0.5     
  special bond factors coul:  0        0        0       
     3 = max # of 1-2 neighbors
     6 = max # of 1-3 neighbors
    18 = max # of 1-4 neighbors
    18 = max # of special neighbors
  special bonds CPU = 0.000 seconds
# //////////////////////////////////////    C-C potentials    //////////////////////////////////////
# -------------------------------------------------------------------------------------------------
# //////////////////////////////////////    H-H potentials    //////////////////////////////////////
variable alpha equal 1.713          #|
variable sigma equal 1.567          #|
variable gamma equal 0.00993        #|
variable c6 equal 12.14             #|      The parameters are all in atomic units, the conversion to kcal/mol
variable c8 equal 215.2             #|      is performed in the pair_sg.cpp file
variable c9 equal 143.1             #|
variable c10 equal 4813.9           #|
variable rc equal 8.321             #|
pair_coeff 2 2 sg ${alpha} ${sigma} ${gamma} ${c6} ${c8} ${c9} ${c10} ${rc} # H-H potentials
pair_coeff 2 2 sg 1.713 ${sigma} ${gamma} ${c6} ${c8} ${c9} ${c10} ${rc} 
pair_coeff 2 2 sg 1.713 1.567 ${gamma} ${c6} ${c8} ${c9} ${c10} ${rc} 
pair_coeff 2 2 sg 1.713 1.567 0.00993 ${c6} ${c8} ${c9} ${c10} ${rc} 
pair_coeff 2 2 sg 1.713 1.567 0.00993 12.14 ${c8} ${c9} ${c10} ${rc} 
pair_coeff 2 2 sg 1.713 1.567 0.00993 12.14 215.2 ${c9} ${c10} ${rc} 
pair_coeff 2 2 sg 1.713 1.567 0.00993 12.14 215.2 143.1 ${c10} ${rc} 
pair_coeff 2 2 sg 1.713 1.567 0.00993 12.14 215.2 143.1 4813.9 ${rc} 
pair_coeff 2 2 sg 1.713 1.567 0.00993 12.14 215.2 143.1 4813.9 8.321 
#pair_coeff 2 2 sg 1.713 1.567 0.00993 12.14 215.2 143.1 4813.9 8.321 # H-H potentials
# //////////////////////////////////////    H-H potentials    //////////////////////////////////////
# -------------------------------------------------------------------------------------------------
# //////////////////////////////////////    C-H potentials    //////////////////////////////////////
variable sigma_CC equal 3.43 # Å
variable sigma_HH equal 3.075 # Å
variable sigma_CH_geo equal sqrt(${sigma_CC}*${sigma_HH}) # Å
variable sigma_CH_geo equal sqrt(3.43*${sigma_HH}) 
variable sigma_CH_geo equal sqrt(3.43*3.075) 
variable sigma_CH_arit equal 0.5*(${sigma_CC}+${sigma_HH}) # Å
variable sigma_CH_arit equal 0.5*(3.43+${sigma_HH}) 
variable sigma_CH_arit equal 0.5*(3.43+3.075) 

variable P_par equal 0.57 # Å^3
variable P_perp equal 1.995 # Å^3
variable P_h equal 0.81 # Å^3
variable E_h equal 2.337e5*(1/503.23) # K * 1/503.23 kcal/mol/K = kcal/mol
variable E_c equal 1.39254e5*(1/503.23) # K * 1/503.23 kcal/mol/K = kcal/mol

variable epsilon equal 4*v_E_h*v_E_c*v_P_h*(v_P_par+v_P_perp/2)/(v_sigma_CH_geo^6*(v_E_h+v_E_c)) # kcal/mol

pair_coeff 1 2 cb ${epsilon} ${sigma_CH_geo} ${P_par} ${P_perp} # C-H potential
pair_coeff 1 2 cb 0.750549668586509 ${sigma_CH_geo} ${P_par} ${P_perp} 
pair_coeff 1 2 cb 0.750549668586509 3.24765299870537 ${P_par} ${P_perp} 
pair_coeff 1 2 cb 0.750549668586509 3.24765299870537 0.57 ${P_perp} 
pair_coeff 1 2 cb 0.750549668586509 3.24765299870537 0.57 1.995 
#pair_coeff 1 2 lj/cut 0.3025 2.065
# //////////////////////////////////////    C-H potentials    //////////////////////////////////////

# 3. Add a single hydrogen atom to the system, close to the center of the first platelet
create_atoms    2 single 0 0 -2
Created 1 atoms
  using lattice units in orthogonal box = (-30 -30 -30) to (30 30 30)
  create_atoms CPU = 0.001 seconds

group           C type 1
480 atoms in group C
group           H2 type 2
1 atoms in group H2

# 4. Equilibration
timestep        0.05
fix             mytth1 C spring/self ${k2} # Apply a spring force to the carbon atoms
fix             mytth1 C spring/self 10 
velocity        all create ${tem} 48 rot yes mom yes dist gaussian # Initialize velocities
velocity        all create 300 48 rot yes mom yes dist gaussian 
fix             mynpt all npt temp ${tem} ${tem} 100 x ${pre} ${pre} 1000 y ${pre} ${pre} 1000 # Apply NPT ensemble to the system
fix             mynpt all npt temp 300 ${tem} 100 x ${pre} ${pre} 1000 y ${pre} ${pre} 1000 
fix             mynpt all npt temp 300 300 100 x ${pre} ${pre} 1000 y ${pre} ${pre} 1000 
fix             mynpt all npt temp 300 300 100 x 112 ${pre} 1000 y ${pre} ${pre} 1000 
fix             mynpt all npt temp 300 300 100 x 112 112 1000 y ${pre} ${pre} 1000 
fix             mynpt all npt temp 300 300 100 x 112 112 1000 y 112 ${pre} 1000 
fix             mynpt all npt temp 300 300 100 x 112 112 1000 y 112 112 1000 

thermo          1000
dump            dump all atom 10000 simulation_data/absorption_pot.lammpstrj

run             20000

CITE-CITE-CITE-CITE-CITE-CITE-CITE-CITE-CITE-CITE-CITE-CITE-CITE

Your simulation uses code contributions which should be cited:

- Type Label Framework: https://doi.org/10.1021/acs.jpcb.3c08419

@Article{Gissinger24,
 author = {Jacob R. Gissinger, Ilia Nikiforov, Yaser Afshar, Brendon Waters, Moon-ki Choi, Daniel S. Karls, Alexander Stukowski, Wonpil Im, Hendrik Heinz, Axel Kohlmeyer, and Ellad B. Tadmor},
 title = {Type Label Framework for Bonded Force Fields in LAMMPS},
 journal = {J. Phys. Chem. B},
 year =    2024,
 volume =  128,
 number =  13,
 pages =   {3282–-3297}
}

CITE-CITE-CITE-CITE-CITE-CITE-CITE-CITE-CITE-CITE-CITE-CITE-CITE

Generated 0 of 1 mixed pair_coeff terms from geometric mixing rule
Neighbor list info ...
  update: every = 1 steps, delay = 3 steps, check = yes
  max neighbors/atom: 6000, page size: 100000
  master list distance cutoff = 31
  ghost atom cutoff = 31
  binsize = 15.5, bins = 4 4 4
  4 neighbor lists, perpetual/occasional/extra = 4 0 0
  (1) pair lj/cut, perpetual, skip trim from (4)
      attributes: half, newton on, cut 15
      pair build: skip/trim
      stencil: none
      bin: none
  (2) pair sg, perpetual, skip trim from (4)
      attributes: half, newton on, cut 16
      pair build: skip/trim
      stencil: none
      bin: none
  (3) pair cb, perpetual, skip from (4)
      attributes: half, newton on
      pair build: skip
      stencil: none
      bin: none
  (4) neighbor class addition, perpetual
      attributes: half, newton on
      pair build: half/bin/newton
      stencil: half/bin/3d
      bin: standard
Per MPI rank memory allocation (min/avg/max) = 13.52 | 13.52 | 13.52 Mbytes
   Step          Temp          E_pair         E_mol          TotEng         Press          Volume    
         0   300            308.51847      19603.922      20341.677     -432.43112      216000       
      1000   530.43381      459.65169      18890.873      20109.463      725.21861      208274.27    
      2000   595.57688      351.65483      18909.209      20113.009     -955.70473      207733.27    
      3000   478.83784      365.53031      18825.371      19876.017     -464.55563      200391.24    
      4000   523.04317      414.43012      18699.518      19862.313      449.19084      191383.19    
      5000   420.75325      345.52063      18769.939      19717.469     -1012.4714      185542.51    
      6000   416.85346      393.2326       18628.94       19618.602      68.332757      175706.1     
      7000   417.4554       356.56113      18607.827      19561.678     -607.83024      169285.34    
      8000   346.7237       369.45784      18572.947      19438.494     -356.93797      161418.3     
      9000   334.54069      364.7263       18572.345      19415.729     -525.81912      155071.55    
     10000   290.55999      367.8371       18539.883      19323.45      -539.30745      148720.11    
     11000   291.13017      363.01224      18525.247      19304.805     -613.57389      142776.83    
     12000   303.74205      359.86382      18487.869      19282.324     -643.41625      137414.06    
     13000   272.9179       366.2879       18487.827      19244.602     -552.49858      131822.74    
     14000   283.39106      361.88915      18489.52       19256.882     -581.76125      126896.39    
     15000   269.29815      357.49361      18497.648      19240.45      -844.70939      122004.45    
     16000   294.93635      362.24987      18475.443      19259.684     -760.83487      117219.92    
     17000   286.4293       363.66169      18505.25       19278.732     -810.84414      112748.91    
     18000   296.8917       358.15738      18505.999      19288.946     -1001.0167      108387.35    
     19000   305.41642      363.46872      18504.373      19304.828     -784.46083      104104.02    
     20000   315.92109      359.32603      18518.613      19329.956     -871.73039      100253.63    
Loop time of 5.45169 on 4 procs for 20000 steps with 481 atoms

Performance: 15.848 ns/day, 1.514 hours/ns, 3668.588 timesteps/s, 1.765 Matom-step/s
99.1% CPU use with 4 MPI tasks x no OpenMP threads

MPI task timing breakdown:
Section |  min time  |  avg time  |  max time  |%varavg| %total
---------------------------------------------------------------
Pair    | 1.0542     | 1.4159     | 2.1136     |  34.9 | 25.97
Bond    | 1.7558     | 1.9405     | 2.1446     |  11.0 | 35.59
Neigh   | 0.031761   | 0.03223    | 0.032698   |   0.3 |  0.59
Comm    | 0.87947    | 1.7816     | 2.2287     |  39.7 | 32.68
Output  | 0.00064183 | 0.00071244 | 0.00089508 |   0.0 |  0.01
Modify  | 0.21826    | 0.21964    | 0.22122    |   0.3 |  4.03
Other   |            | 0.06114    |            |       |  1.12

Nlocal:         120.25 ave         129 max         111 min
Histogram: 1 1 0 0 0 0 0 0 1 1
Nghost:        4046.75 ave        4073 max        4023 min
Histogram: 2 0 0 0 0 0 0 0 1 1
Neighs:              0 ave           0 max           0 min
Histogram: 4 0 0 0 0 0 0 0 0 0

Total # of neighbors = 0
Ave neighs/atom = 0
Ave special neighs/atom = 15.567568
Neighbor list builds = 57
Dangerous builds = 0
unfix           mynpt
unfix           mytth1

# 5. Umbrella sampling
fix             mynvt all nvt temp ${tem} ${tem} 100
fix             mynvt all nvt temp 300 ${tem} 100
fix             mynvt all nvt temp 300 300 100
fix             mytth1 C spring/self ${k2}
fix             mytth1 C spring/self 10

variable        zave equal xcm(H2,z)
variable        cpt loop 101
label           loop
variable        zdes equal  -15+0.30*(${cpt}-1)
variable        zdes equal  -15+0.30*(1-1)
fix             mytth2 H2 spring tether ${k1} 5 5 ${zdes} 0
fix             mytth2 H2 spring tether 0.5 5 5 ${zdes} 0
fix             mytth2 H2 spring tether 0.5 5 5 -15 0
run             10000
Generated 0 of 1 mixed pair_coeff terms from geometric mixing rule
Per MPI rank memory allocation (min/avg/max) = 14.61 | 14.61 | 14.61 Mbytes
   Step          Temp          E_pair         E_mol          TotEng         Press     
     20000   315.92109      359.32603      18518.613      19329.956     -871.73039    
     21000   257.70897      309.74945      18620.621      19299.098     -3058.0165    
     22000   321.06358      409.52294      18466.808      19335.705      722.44313    
     23000   276.92126      461.33543      18453.199      19310.751      2411.9144    
     24000   320.54971      339.10673      18573.098      19370.844     -1862.7316    
     25000   274.95855      319.94005      18639.108      19352.456     -2777.0423    
     26000   306.64024      427.08813      18475.436      19341.262      1313.4554    
     27000   306.64499      439.74845      18466.275      19344.767      1567.7873    
     28000   333.16811      333.76917      18590.375      19400.837     -2113.8762    
     29000   317.27804      329.80164      18623.18       19406.939     -2177.5201    
     30000   286.42109      437.81738      18507.421      19355.047      1463.2567    
Loop time of 2.76143 on 4 procs for 10000 steps with 481 atoms

Performance: 15.644 ns/day, 1.534 hours/ns, 3621.318 timesteps/s, 1.742 Matom-step/s
97.3% CPU use with 4 MPI tasks x no OpenMP threads

MPI task timing breakdown:
Section |  min time  |  avg time  |  max time  |%varavg| %total
---------------------------------------------------------------
Pair    | 0.35448    | 0.64635    | 0.94865    |  26.6 | 23.41
Bond    | 0.80124    | 0.88743    | 0.9881     |   8.0 | 32.14
Neigh   | 0.06621    | 0.06622    | 0.066229   |   0.0 |  2.40
Comm    | 0.61745    | 1.0178     | 1.2643     |  24.5 | 36.86
Output  | 0.00032871 | 0.00036821 | 0.00046091 |   0.0 |  0.01
Modify  | 0.10017    | 0.10352    | 0.10709    |   1.0 |  3.75
Other   |            | 0.03973    |            |       |  1.44

Nlocal:         120.25 ave         128 max         112 min
Histogram: 2 0 0 0 0 0 0 0 0 2
Nghost:        4195.25 ave        4221 max        4170 min
Histogram: 1 1 0 0 0 0 0 0 1 1
Neighs:              0 ave           0 max           0 min
Histogram: 4 0 0 0 0 0 0 0 0 0

Total # of neighbors = 0
Ave neighs/atom = 0
Ave special neighs/atom = 15.567568
Neighbor list builds = 73
Dangerous builds = 0
fix             myat1 all ave/time 100 10 1000 v_zave v_zdes file simulation_data/abpot/${cpt}.dat
fix             myat1 all ave/time 100 10 1000 v_zave v_zdes file simulation_data/abpot/1.dat
run             50000
Generated 0 of 1 mixed pair_coeff terms from geometric mixing rule
Per MPI rank memory allocation (min/avg/max) = 14.61 | 14.61 | 14.61 Mbytes
   Step          Temp          E_pair         E_mol          TotEng         Press     
     30000   286.42109      437.81738      18507.421      19355.047      1463.2567    
     31000   315.25705      426.79214      18480.454      19358.312      1096.0539    
     32000   290.48377      326.50277      18621.621      19363.745     -2407.0632    
     33000   331.78083      346.41471      18555.298      19376.421     -1475.8094    
     34000   275.15598      443.88356      18477.082      19314.655      1797.1057    
     35000   332.64987      401.40138      18481.256      19358.609      450.40971    
     36000   289.43169      323.84941      18625.344      19363.309     -2501.4837    
     37000   331.50256      363.42322      18535.528      19373.261     -953.93518    
     38000   255.69985      446.64777      18492.239      19304.74       1774.3127    
     39000   306.42906      389.91905      18525.598      19353.952     -87.032361    
     40000   279.5253       328.09406      18635.094      19363.129     -2738.2774    
     41000   332.57116      380.98935      18520.177      19377.005     -133.84731    
     42000   269.47721      452.19503      18495.745      19333.505      2035.9776    
     43000   336.17896      363.51661      18566.392      19410.909     -918.16427    
     44000   306.70262      322.46987      18653.166      19414.463     -2448.1382    
     45000   320.9819       404.26407      18537.44       19400.961      480.4626     
     46000   287.00243      432.37327      18502.98       19345.993      1421.9797    
     47000   326.05424      356.28727      18559.942      19382.744     -1176.6294    
     48000   292.60336      328.1827       18619.486      19366.322     -2278.7145    
     49000   307.95285      403.61714      18498.662      19342.895      609.17807    
     50000   287.75502      422.70006      18481.345      19315.762      1130.7813    
     51000   296.6992       345.84997      18584.985      19355.349     -1504.505     
     52000   294.72746      334.4815       18611.754      19367.928     -1940.6102    
     53000   292.32257      416.08463      18516.834      19351.17       819.80511    
     54000   286.11019      417.33592      18526.706      19353.405      809.38348    
     55000   311.46118      340.07871      18605.356      19391.07      -1974.0131    
     56000   304.89526      346.15626      18613.193      19395.59      -1355.3751    
     57000   314.0641       420.87783      18510.108      19380.345      953.4437     
     58000   291.9144       401.32946      18542.691      19361.688      179.90441    
     59000   311.04079      340.95756      18596.502      19382.493     -1814.355     
     60000   287.408        351.62519      18588.174      19351.019     -1342.6177    
     61000   303.70154      417.96342      18467.445      19319.941      1101.9319    
     62000   275.58118      389.82488      18527.71       19311.833      42.360046    
     63000   303.99521      335.632        18571.943      19342.528     -1790.7423    
     64000   292.24742      371.08597      18556.488      19345.718     -561.00865    
     65000   310.74076      418.17156      18483.181      19345.957      943.41162    
     66000   305.33724      381.6787       18535.963      19354.515     -206.51096    
     67000   316.58799      350.2637       18586.174      19389.408     -1376.8077    
     68000   298.20827      377.15981      18578.366      19382.199     -503.82056    
     69000   301.79181      414.21411      18519.734      19365.748      851.34481    
     70000   286.05742      373.37224      18571.033      19353.693     -731.81424    
     71000   293.20815      354.52144      18559.993      19334.034     -1241.0915    
     72000   290.25789      385.14339      18511.897      19312.338     -135.84456    
     73000   301.12132      405.10319      18468.651      19304.596      433.15791    
     74000   294.66722      375.45823      18532.981      19330.045     -699.17537    
     75000   297.72361      360.83321      18565.653      19352.466     -993.5279     
     76000   316.56437      385.65072      18524.742      19363.329     -163.34064    
     77000   294.38004      399.54264      18536.627      19357.365      139.75103    
     78000   317.79401      371.49592      18546.788      19372.98      -792.90423    
     79000   285.7834       364.35436      18595.627      19368.877     -1022.4296    
     80000   308.33366      387.59033      18533.811      19362.562     -57.343672    
Loop time of 15.0634 on 4 procs for 50000 steps with 481 atoms

Performance: 14.339 ns/day, 1.674 hours/ns, 3319.305 timesteps/s, 1.597 Matom-step/s
94.2% CPU use with 4 MPI tasks x no OpenMP threads

MPI task timing breakdown:
Section |  min time  |  avg time  |  max time  |%varavg| %total
---------------------------------------------------------------
Pair    | 1.8731     | 3.3579     | 4.6685     |  54.8 | 22.29
Bond    | 4.2044     | 4.6331     | 5.1198     |  17.6 | 30.76
Neigh   | 0.27551    | 0.27638    | 0.27727    |   0.1 |  1.83
Comm    | 4.0111     | 5.8546     | 7.1388     |  47.7 | 38.87
Output  | 0.0041619  | 0.0062169  | 0.0070923  |   1.5 |  0.04
Modify  | 0.64148    | 0.68319    | 0.72797    |   4.9 |  4.54
Other   |            | 0.252      |            |       |  1.67

Nlocal:         120.25 ave         125 max         115 min
Histogram: 1 0 1 0 0 0 0 0 0 2
Nghost:        4153.25 ave        4174 max        4134 min
Histogram: 2 0 0 0 0 0 0 0 0 2
Neighs:              0 ave           0 max           0 min
Histogram: 4 0 0 0 0 0 0 0 0 0

Total # of neighbors = 0
Ave neighs/atom = 0
Ave special neighs/atom = 15.567568
Neighbor list builds = 263
Dangerous builds = 0
unfix           myat1
next            cpt
jump            SELF loop
variable        zdes equal  -15+0.30*(${cpt}-1)
variable        zdes equal  -15+0.30*(2-1)
fix             mytth2 H2 spring tether ${k1} 5 5 ${zdes} 0
fix             mytth2 H2 spring tether 0.5 5 5 ${zdes} 0
fix             mytth2 H2 spring tether 0.5 5 5 -14.7 0
run             10000
Generated 0 of 1 mixed pair_coeff terms from geometric mixing rule
Per MPI rank memory allocation (min/avg/max) = 14.61 | 14.61 | 14.61 Mbytes
   Step          Temp          E_pair         E_mol          TotEng         Press     
     80000   308.33366      387.59033      18533.811      19362.562     -57.343672    
     81000   283.0977       395.06477      18528.606      19328.724      21.726       
     82000   301.02759      372.18352      18538.933      19341.823     -691.47344    
     83000   277.47134      363.71744      18556.987      19317.708     -846.96011    
     84000   296.00815      386.38569      18499.471      19309.382     -155.68116    
     85000   277.55026      388.28781      18516.337      19301.741     -135.53511    
     86000   294.90702      373.41932      18535.46       19330.829     -614.14323    
     87000   275.1929       363.68348      18586.187      19343.614     -1114.7098    
     88000   307.25201      387.04606      18529.117      19355.776     -82.636523    
     89000   293.76024      389.18006      18542.44       19351.929     -66.617658    
     90000   301.54945      366.33053      18567.299      19365.083     -803.50866    
Loop time of 2.83881 on 4 procs for 10000 steps with 481 atoms

Performance: 15.218 ns/day, 1.577 hours/ns, 3522.608 timesteps/s, 1.694 Matom-step/s
95.9% CPU use with 4 MPI tasks x no OpenMP threads

MPI task timing breakdown:
Section |  min time  |  avg time  |  max time  |%varavg| %total
---------------------------------------------------------------
Pair    | 0.36807    | 0.65094    | 0.89312    |  23.4 | 22.93
Bond    | 0.81393    | 0.90722    | 1.0079     |   8.6 | 31.96
Neigh   | 0.047925   | 0.047959   | 0.047996   |   0.0 |  1.69
Comm    | 0.73222    | 1.0748     | 1.2979     |  20.4 | 37.86
Output  | 0.00032379 | 0.00036256 | 0.00046192 |   0.0 |  0.01
Modify  | 0.11125    | 0.11199    | 0.11275    |   0.2 |  3.95
Other   |            | 0.0455     |            |       |  1.60

Nlocal:         120.25 ave         129 max         111 min
Histogram: 1 1 0 0 0 0 0 0 0 2
Nghost:         4173.5 ave        4205 max        4142 min
Histogram: 1 0 1 0 0 0 0 1 0 1
Neighs:              0 ave           0 max           0 min
Histogram: 4 0 0 0 0 0 0 0 0 0

Total # of neighbors = 0
Ave neighs/atom = 0
Ave special neighs/atom = 15.567568
Neighbor list builds = 49
Dangerous builds = 0
fix             myat1 all ave/time 100 10 1000 v_zave v_zdes file simulation_data/abpot/${cpt}.dat
fix             myat1 all ave/time 100 10 1000 v_zave v_zdes file simulation_data/abpot/2.dat
run             50000
Generated 0 of 1 mixed pair_coeff terms from geometric mixing rule
Per MPI rank memory allocation (min/avg/max) = 14.61 | 14.61 | 14.61 Mbytes
   Step          Temp          E_pair         E_mol          TotEng         Press     
     90000   301.54945      366.33053      18567.299      19365.083     -803.50866    
     91000   299.93936      364.68996      18571.762      19365.602     -914.4669     
     92000   324.88779      389.51315      18513.12       19367.479      109.85296    
     93000   310.34603      385.6093       18551.5        19381.149     -104.10154    
     94000   314.18878      369.79435      18590.087      19409.419     -648.95728    
     95000   318.49843      367.24973      18590.423      19413.377     -741.14424    
     96000   333.94447      391.11186      18532.29       19401.205      44.874705    
     97000   315.79984      386.09164      18543.428      19381.362     -149.12873    
     98000   310.80522      370.30057      18557.661      19372.658     -415.24408    
     99000   294.60676      368.68482      18569.853      19360.058     -593.11055    
    100000   299.77049      384.23475      18535.409      19348.552     -37.795844    
    101000   299.85486      390.73252      18519.265      19339.026      17.172789    
    102000   291.28367      367.52349      18560.071      19344.359     -906.2009     
    103000   278.14256      372.69446      18578.543      19349.2       -778.32165    
    104000   309.31149      384.23838      18525.709      19352.507     -7.86017      
    105000   318.91724      385.7004       18536.495      19378.499     -65.167335    
    106000   314.66435      372.26098      18570.374      19392.853     -629.77009    
    107000   321.71708      366.97752      18571.085      19398.372     -728.11105    
    108000   310.33442      384.55298      18532.568      19361.144     -269.83444    
    109000   296.52818      391.4218       18521.262      19336.953      57.202731    
    110000   292.20877      363.93099      18552.617      19334.637     -821.84463    
    111000   309.48753      370.33621      18526.51       19339.657     -560.96013    
    112000   299.0275       391.97566      18503.898      19323.718      81.239082    
    113000   299.55455      384.24021      18525.171      19338.011     -260.25732    
    114000   305.9386       374.8298       18541.082      19353.646     -319.81951    
    115000   302.55669      374.15514      18561.627      19368.677     -610.74986    
    116000   289.58336      395.71457      18559.644      19369.691      86.124554    
    117000   321.1722       393.79953      18525.997      19379.326     -28.499611    
    118000   318.08912      362.94393      18563.302      19381.364     -904.83165    
    119000   311.95657      378.32272      18548.631      19373.298     -389.07508    
    120000   288.6552       400.25531      18519.817      19333.077      305.1991     
    121000   288.41346      374.84823      18533.813      19321.32      -422.24154    
    122000   278.83079      364.49265      18556.104      19319.544     -945.96908    
    123000   280.66874      383.09741      18533.854      19318.529     -294.47468    
    124000   288.70078      395.79783      18525.907      19334.774      222.07606    
    125000   298.6624       377.79592      18553.036      19358.155     -550.38376    
    126000   314.09263      363.72797      18553.296      19366.425     -971.8454     
    127000   308.46455      386.10837      18532.285      19359.741     -284.45486    
    128000   307.75589      405.10797      18515.021      19360.462      347.11923    
    129000   303.19212      370.38714      18556.247      19360.438     -777.69472    
    130000   304.81641      359.62936      18561.82       19357.577     -1091.81      
    131000   286.72416      391.28838      18525.581      19327.111     -66.133041    
    132000   289.1328       401.87149      18494.708      19310.267      197.20667    
    133000   281.55381      366.9533       18543.276      19313.074     -871.35942    
    134000   292.31396      364.00587      18535.61       19317.855     -948.68387    
    135000   295.65662      391.69453      18503.552      19318.268     -110.11606    
    136000   292.51672      394.55182      18524.519      19337.601      110.73815    
    137000   298.33282      365.90582      18562.514      19355.271     -911.51234    
    138000   303.14455      364.90847      18562.387      19361.032     -865.18781    
    139000   299.10406      395.30271      18523.646      19346.903      146.05639    
    140000   299.39919      396.79359      18518.541      19343.712      92.132556    
Loop time of 14.1209 on 4 procs for 50000 steps with 481 atoms

Performance: 15.297 ns/day, 1.569 hours/ns, 3540.860 timesteps/s, 1.703 Matom-step/s
96.0% CPU use with 4 MPI tasks x no OpenMP threads

MPI task timing breakdown:
Section |  min time  |  avg time  |  max time  |%varavg| %total
---------------------------------------------------------------
Pair    | 1.8206     | 3.2771     | 4.556      |  54.2 | 23.21
Bond    | 4.1001     | 4.5501     | 5.043      |  17.6 | 32.22
Neigh   | 0.19891    | 0.19924    | 0.19951    |   0.1 |  1.41
Comm    | 3.5511     | 5.3077     | 6.5298     |  48.1 | 37.59
Output  | 0.0023312  | 0.0032589  | 0.0036332  |   0.9 |  0.02
Modify  | 0.53746    | 0.55537    | 0.57153    |   2.0 |  3.93
Other   |            | 0.2281     |            |       |  1.62

Nlocal:         120.25 ave         126 max         114 min
Histogram: 1 0 1 0 0 0 0 0 1 1
Nghost:        4163.75 ave        4183 max        4142 min
Histogram: 1 1 0 0 0 0 0 0 0 2
Neighs:              0 ave           0 max           0 min
Histogram: 4 0 0 0 0 0 0 0 0 0

Total # of neighbors = 0
Ave neighs/atom = 0
Ave special neighs/atom = 15.567568
Neighbor list builds = 205
Dangerous builds = 0
unfix           myat1
next            cpt
jump            SELF loop
variable        zdes equal  -15+0.30*(${cpt}-1)
variable        zdes equal  -15+0.30*(3-1)
fix             mytth2 H2 spring tether ${k1} 5 5 ${zdes} 0
fix             mytth2 H2 spring tether 0.5 5 5 ${zdes} 0
fix             mytth2 H2 spring tether 0.5 5 5 -14.4 0
run             10000
Generated 0 of 1 mixed pair_coeff terms from geometric mixing rule
Per MPI rank memory allocation (min/avg/max) = 14.61 | 14.61 | 14.61 Mbytes
   Step          Temp          E_pair         E_mol          TotEng         Press     
    140000   299.39919      396.79359      18518.541      19343.712      92.132556    
    141000   293.85193      363.11849      18565.334      19348.893     -933.60111    
    142000   304.4519       365.92283      18546.009      19347.538     -879.96317    
    143000   299.15918      395.97181      18511.677      19335.682      343.52837    
    144000   298.55927      388.66127      18500.411      19316.248     -69.151047    
    145000   286.80971      357.13905      18539.647      19307.15      -1101.8812    
    146000   288.77537      370.88715      18506.67       19290.734     -495.29809    
    147000   289.71975      392.02428      18473.042      19279.594      243.83875    
    148000   293.2163       383.55598      18498.685      19301.771     -71.371753    
    149000   296.8018       363.01838      18542.587      19330.266     -751.12646    
    150000   285.62015      369.3057       18552.055      19330.023     -704.13706    
Loop time of 2.63522 on 4 procs for 10000 steps with 481 atoms

Performance: 16.393 ns/day, 1.464 hours/ns, 3794.755 timesteps/s, 1.825 Matom-step/s
98.5% CPU use with 4 MPI tasks x no OpenMP threads

MPI task timing breakdown:
Section |  min time  |  avg time  |  max time  |%varavg| %total
---------------------------------------------------------------
Pair    | 0.36067    | 0.64234    | 0.87963    |  23.2 | 24.38
Bond    | 0.80589    | 0.89644    | 0.99614    |   8.2 | 34.02
Neigh   | 0.034451   | 0.034497   | 0.034546   |   0.0 |  1.31
Comm    | 0.59842    | 0.9359     | 1.1694     |  21.8 | 35.51
Output  | 0.00052246 | 0.00056852 | 0.00067487 |   0.0 |  0.02
Modify  | 0.084268   | 0.085521   | 0.086713   |   0.3 |  3.25
Other   |            | 0.03995    |            |       |  1.52

Nlocal:         120.25 ave         129 max         111 min
Histogram: 1 1 0 0 0 0 0 0 1 1
Nghost:        4177.25 ave        4201 max        4151 min
Histogram: 1 1 0 0 0 0 0 0 0 2
Neighs:              0 ave           0 max           0 min
Histogram: 4 0 0 0 0 0 0 0 0 0

Total # of neighbors = 0
Ave neighs/atom = 0
Ave special neighs/atom = 15.567568
Neighbor list builds = 37
Dangerous builds = 0
fix             myat1 all ave/time 100 10 1000 v_zave v_zdes file simulation_data/abpot/${cpt}.dat
fix             myat1 all ave/time 100 10 1000 v_zave v_zdes file simulation_data/abpot/3.dat
run             50000
Generated 0 of 1 mixed pair_coeff terms from geometric mixing rule
Per MPI rank memory allocation (min/avg/max) = 14.61 | 14.61 | 14.61 Mbytes
   Step          Temp          E_pair         E_mol          TotEng         Press     
    150000   285.62015      369.3057       18552.055      19330.023     -704.13706    
    151000   293.44946      399.13241      18503.393      19322.389      445.43563    
    152000   294.87086      370.91574      18550.629      19343.443     -617.58163    
    153000   298.54278      362.2404       18560.703      19350.095     -881.59928    
    154000   305.52717      381.18555      18537.315      19355.645     -177.42503    
    155000   300.91137      391.0456       18523.892      19345.478      60.89691     
    156000   298.04298      372.25276      18548.017      19346.706     -566.04315    
    157000   304.45024      363.71643      18542.842      19342.163     -875.80977    
    158000   279.12655      382.15242      18535.089      19316.612     -182.17197    
    159000   283.3836       388.5211       18510.926      19304.909      214.26678    
    160000   278.66932      363.09746      18540.225      19302.039     -866.77085    
    161000   296.82616      364.75961      18518.523      19307.978     -789.70951    
    162000   287.2179       390.42401      18515.438      19316.81       138.18859    
    163000   304.81768      386.02959      18520.886      19343.045      0.47601256   
    164000   311.92831      367.68719      18555.235      19369.225     -817.17353    
    165000   306.54919      369.55637      18553.358      19361.522     -833.1064     
    166000   301.61237      400.41328      18521.639      19353.596      352.20248    
    167000   311.18491      381.55901      18527.54       19354.339     -193.91615    
    168000   298.34812      363.16624      18557.586      19347.625     -844.59011    
    169000   277.83363      371.72699      18560.344      19329.592     -453.90132    
    170000   291.04797      395.77845      18497.239      19309.446      273.30594    
    171000   291.84503      383.25795      18521.944      19322.77      -266.76835    
    172000   298.90776      357.4486       18547.813      19332.936     -1056.8577    
    173000   313.83985      376.77973      18529.957      19355.776     -408.75291    
    174000   304.76779      398.12038      18530.573      19364.752      267.74419    
    175000   316.89971      379.50378      18548.57       19381.491     -223.60485    
    176000   297.21037      357.63314      18604.306      19387.185     -1198.6418    
    177000   321.57031      380.88038      18535.658      19376.637     -195.0716     
    178000   295.0507       396.15891      18537.822      19356.136      183.55824    
    179000   303.87592      377.28813      18541.176      19353.247     -548.07242    
    180000   294.70552      359.33148      18562.188      19343.18      -962.40539    
    181000   309.47509      378.91434      18516.468      19338.176     -214.79771    
    182000   296.00732      389.79115      18511.575      19324.89       120.69473    
    183000   297.50599      364.09689      18555.365      19345.13      -724.44529    
    184000   304.99584      361.38122      18560.56       19358.326     -783.1463     
    185000   316.77972      384.06344      18535.908      19373.217     -311.60658    
    186000   323.41425      391.02415      18537.073      19390.835      84.937212    
    187000   318.85154      364.08188      18587.119      19407.411     -908.55785    
    188000   300.25761      365.4288       18597.508      19392.542     -806.35156    
    189000   318.36963      389.46012      18526.597      19371.577      84.198899    
    190000   303.3238       384.55867      18543.789      19362.34      -163.91396    
    191000   312.65078      364.67041      18545.611      19357.619     -962.47893    
    192000   310.39447      366.44812      18537.487      19348.044     -712.78551    
    193000   293.24739      392.58144      18519.713      19331.869      74.89871     
    194000   295.67532      384.78117      18519.337      19327.167     -33.752031    
    195000   308.21311      365.63473      18532.193      19338.815     -731.9871     
    196000   291.12092      372.98636      18548.24       19337.759     -550.01998    
    197000   301.31702      389.81022      18526.999      19347.93       91.07657     
    198000   294.20461      383.59908      18562.501      19367.045     -130.36251    
    199000   320.25228      363.41582      18569.067      19390.696     -804.78555    
    200000   310.60384      375.65676      18567.47       19387.535     -436.71026    
Loop time of 13.253 on 4 procs for 50000 steps with 481 atoms

Performance: 16.298 ns/day, 1.473 hours/ns, 3772.721 timesteps/s, 1.815 Matom-step/s
97.8% CPU use with 4 MPI tasks x no OpenMP threads

MPI task timing breakdown:
Section |  min time  |  avg time  |  max time  |%varavg| %total
---------------------------------------------------------------
Pair    | 1.7766     | 3.1775     | 4.3866     |  52.5 | 23.98
Bond    | 4.0326     | 4.4757     | 4.972      |  17.9 | 33.77
Neigh   | 0.13039    | 0.13057    | 0.13074    |   0.0 |  0.99
Comm    | 3.1083     | 4.8147     | 5.9901     |  48.7 | 36.33
Output  | 0.0032813  | 0.0036366  | 0.003823   |   0.3 |  0.03
Modify  | 0.44359    | 0.44527    | 0.44836    |   0.3 |  3.36
Other   |            | 0.2056     |            |       |  1.55

Nlocal:         120.25 ave         125 max         116 min
Histogram: 2 0 0 0 0 0 0 0 1 1
Nghost:         4143.5 ave        4166 max        4119 min
Histogram: 1 0 1 0 0 0 0 0 1 1
Neighs:              0 ave           0 max           0 min
Histogram: 4 0 0 0 0 0 0 0 0 0

Total # of neighbors = 0
Ave neighs/atom = 0
Ave special neighs/atom = 15.567568
Neighbor list builds = 141
Dangerous builds = 0
unfix           myat1
next            cpt
jump            SELF loop
variable        zdes equal  -15+0.30*(${cpt}-1)
variable        zdes equal  -15+0.30*(4-1)
fix             mytth2 H2 spring tether ${k1} 5 5 ${zdes} 0
fix             mytth2 H2 spring tether 0.5 5 5 ${zdes} 0
fix             mytth2 H2 spring tether 0.5 5 5 -14.1 0
run             10000
Generated 0 of 1 mixed pair_coeff terms from geometric mixing rule
Per MPI rank memory allocation (min/avg/max) = 14.61 | 14.61 | 14.61 Mbytes
   Step          Temp          E_pair         E_mol          TotEng         Press     
    200000   310.60384      375.65676      18567.47       19387.535     -436.71026    
    201000   319.45431      393.51455      18518.764      19369.35       212.56133    
    202000   303.66411      376.99132      18543.658      19355.129     -428.68622    
    203000   310.02306      367.45086      18533.919      19344.948     -614.45261    
    204000   308.65777      376.72108      18520.021      19338.366     -380.04174    
    205000   296.90183      387.2675       18512.261      19324.333     -98.769425    
    206000   299.06658      378.69581      18529.882      19336.479     -625.26709    
    207000   289.90765      368.58495      18559.737      19343.119     -592.01844    
    208000   301.54714      379.1533       18525.623      19336.227     -232.22946    
    209000   298.76286      384.94953      18529.038      19341.454     -82.940063    
    210000   305.34348      379.17881      18549.656      19365.717     -403.35723    
Loop time of 2.47967 on 4 procs for 10000 steps with 481 atoms

Performance: 17.422 ns/day, 1.378 hours/ns, 4032.794 timesteps/s, 1.940 Matom-step/s
99.4% CPU use with 4 MPI tasks x no OpenMP threads

MPI task timing breakdown:
Section |  min time  |  avg time  |  max time  |%varavg| %total
---------------------------------------------------------------
Pair    | 0.34948    | 0.61697    | 0.83696    |  22.3 | 24.88
Bond    | 0.79381    | 0.87857    | 0.97349    |   8.1 | 35.43
Neigh   | 0.015406   | 0.015428   | 0.015448   |   0.0 |  0.62
Comm    | 0.55415    | 0.86581    | 1.0767     |  20.8 | 34.92
Output  | 0.00031408 | 0.00034004 | 0.00040904 |   0.0 |  0.01
Modify  | 0.063556   | 0.066835   | 0.070111   |   1.2 |  2.70
Other   |            | 0.03571    |            |       |  1.44

Nlocal:         120.25 ave         128 max         113 min
Histogram: 2 0 0 0 0 0 0 0 0 2
Nghost:        4159.25 ave        4182 max        4137 min
Histogram: 2 0 0 0 0 0 0 0 0 2
Neighs:              0 ave           0 max           0 min
Histogram: 4 0 0 0 0 0 0 0 0 0

Total # of neighbors = 0
Ave neighs/atom = 0
Ave special neighs/atom = 15.567568
Neighbor list builds = 17
Dangerous builds = 0
fix             myat1 all ave/time 100 10 1000 v_zave v_zdes file simulation_data/abpot/${cpt}.dat
fix             myat1 all ave/time 100 10 1000 v_zave v_zdes file simulation_data/abpot/4.dat
run             50000
Generated 0 of 1 mixed pair_coeff terms from geometric mixing rule
Per MPI rank memory allocation (min/avg/max) = 14.61 | 14.61 | 14.61 Mbytes
   Step          Temp          E_pair         E_mol          TotEng         Press     
    210000   305.34348      379.17881      18549.656      19365.717     -403.35723    
    211000   328.69954      366.62487      18548.146      19385.071     -733.15141    
    212000   314.37683      386.48983      18560.492      19396.789      105.926      
    213000   314.70089      379.97794      18561.072      19391.32      -318.76684    
    214000   313.70931      370.04018      18562.271      19381.163     -551.0759     
    215000   312.74103      376.32003      18535.562      19359.349     -471.03724    
    216000   312.44355      375.29185      18514.515      19336.848     -333.80859    
    217000   292.71098      379.04068      18532.496      19330.344     -191.65745    
    218000   302.13061      369.56237      18540.104      19341.951     -605.15497    
    219000   282.7544       372.85099      18556.423      19333.836     -623.58994    
    220000   301.56835      380.86595      18529.94       19342.286     -117.19118    
    221000   308.06123      370.40488      18536.705      19347.881     -734.0879     
    222000   293.80883      373.83608      18561.096      19355.31      -578.78208    
    223000   312.31599      378.44622      18543.895      19369.2       -335.22249    
    224000   315.67169      372.5697       18548.941      19373.17      -576.54621    
    225000   312.29906      381.05752      18547.66       19375.552     -171.08743    
    226000   303.9528       368.47274      18566.07       19369.436     -758.87428    
    227000   298.90154      381.412        18536.094      19345.171     -232.13574    
    228000   283.65905      381.3255       18529.71       19316.892     -334.32968    
    229000   285.11569      370.57057      18541.495      19320.006     -610.36894    
    230000   308.74993      372.84898      18518.739      19333.344     -377.29355    
    231000   288.71898      374.73811      18540.275      19328.109     -395.38995    
    232000   303.41157      375.40603      18535.995      19345.519     -461.65364    
    233000   297.73278      374.34503      18555.602      19355.94      -425.30133    
    234000   305.17514      367.6552       18564.728      19369.024     -625.95182    
    235000   303.27592      373.27397      18557.248      19364.446     -522.87763    
    236000   301.56745      385.96909      18544.678      19362.127     -18.460932    
    237000   305.04623      366.7482       18563.248      19366.453     -687.77462    
    238000   311.86762      373.68577      18540.965      19360.868     -487.13776    
    239000   295.46106      375.49757      18551.185      19349.425     -301.81331    
    240000   293.04296      382.10647      18534.901      19336.29      -331.43439    
    241000   302.53744      374.34843      18528.766      19335.982     -476.12611    
    242000   293.65612      370.99336      18535.124      19326.278     -555.17183    
    243000   285.52709      376.76607      18532.716      19318.011     -336.35416    
    244000   280.35194      383.90313      18513.113      19298.141     -228.17708    
    245000   276.01941      370.19945      18525.45       19290.575     -521.3009     
    246000   291.828        365.80856      18515.063      19298.416     -659.25809    
    247000   288.80085      376.125        18523.148      19312.486     -375.40278    
    248000   279.0862       372.68059      18565.189      19337.183     -525.22538    
    249000   284.62595      377.74944      18563.445      19348.434     -383.15179    
    250000   305.61037      366.6882       18542.332      19346.284     -677.3881     
    251000   300.29534      377.97172      18542.743      19350.374     -249.42639    
    252000   294.52265      380.67086      18550.291      19352.362     -56.148474    
    253000   296.36485      370.50028      18549.53       19344.066     -821.50451    
    254000   299.8851       376.05755      18529.49       19334.62      -242.65913    
    255000   284.14615      373.32412      18536.596      19316.473     -397.96659    
    256000   304.4417       373.7697       18500.277      19309.638     -339.03728    
    257000   275.78827      377.52026      18530.556      19302.671     -340.18146    
    258000   280.44474      372.07994      18533.699      19307.036     -456.24685    
    259000   305.09316      376.19293      18503.044      19315.761     -354.58458    
    260000   299.40286      376.53031      18541.655      19346.568     -337.66301    
Loop time of 12.4992 on 4 procs for 50000 steps with 481 atoms

Performance: 17.281 ns/day, 1.389 hours/ns, 4000.258 timesteps/s, 1.924 Matom-step/s
99.4% CPU use with 4 MPI tasks x no OpenMP threads

MPI task timing breakdown:
Section |  min time  |  avg time  |  max time  |%varavg| %total
---------------------------------------------------------------
Pair    | 1.7193     | 3.0808     | 4.2364     |  51.4 | 24.65
Bond    | 3.941      | 4.3934     | 4.9087     |  18.3 | 35.15
Neigh   | 0.068402   | 0.068411   | 0.068422   |   0.0 |  0.55
Comm    | 2.7707     | 4.4309     | 5.5712     |  49.4 | 35.45
Output  | 0.0025452  | 0.0025754  | 0.0026095  |   0.0 |  0.02
Modify  | 0.33378    | 0.34561    | 0.35648    |   1.6 |  2.77
Other   |            | 0.1776     |            |       |  1.42

Nlocal:         120.25 ave         130 max         110 min
Histogram: 1 0 1 0 0 0 0 0 1 1
Nghost:        4180.25 ave        4207 max        4157 min
Histogram: 2 0 0 0 0 0 0 0 1 1
Neighs:              0 ave           0 max           0 min
Histogram: 4 0 0 0 0 0 0 0 0 0

Total # of neighbors = 0
Ave neighs/atom = 0
Ave special neighs/atom = 15.567568
Neighbor list builds = 76
Dangerous builds = 0
unfix           myat1
next            cpt
jump            SELF loop
variable        zdes equal  -15+0.30*(${cpt}-1)
variable        zdes equal  -15+0.30*(5-1)
fix             mytth2 H2 spring tether ${k1} 5 5 ${zdes} 0
fix             mytth2 H2 spring tether 0.5 5 5 ${zdes} 0
fix             mytth2 H2 spring tether 0.5 5 5 -13.8 0
run             10000
Generated 0 of 1 mixed pair_coeff terms from geometric mixing rule
Per MPI rank memory allocation (min/avg/max) = 14.61 | 14.61 | 14.61 Mbytes
   Step          Temp          E_pair         E_mol          TotEng         Press     
    260000   299.40286      376.53031      18541.655      19346.568     -337.66301    
    261000   312.3875       372.69376      18539.99       19359.645     -432.72424    
    262000   302.59022      381.55024      18547.592      19362.085     -377.43926    
    263000   300.9952       372.4061       18561.462      19364.528     -383.33933    
    264000   309.05367      373.70054      18527.377      19343.268     -542.37517    
    265000   295.18462      379.72047      18537.046      19339.114     -312.4095     
    266000   305.87118      378.13499      18509.686      19325.458     -316.75203    
    267000   289.82773      375.32364      18530.307      19320.313     -378.48827    
    268000   290.6798       375.66683      18524.591      19316.16      -480.98477    
    269000   300.88168      371.92206      18509.574      19311.995     -373.09252    
    270000   291.27705      382.86169      18528.355      19327.973     -197.68651    
Loop time of 2.48879 on 4 procs for 10000 steps with 481 atoms

Performance: 17.358 ns/day, 1.383 hours/ns, 4018.019 timesteps/s, 1.933 Matom-step/s
99.6% CPU use with 4 MPI tasks x no OpenMP threads

MPI task timing breakdown:
Section |  min time  |  avg time  |  max time  |%varavg| %total
---------------------------------------------------------------
Pair    | 0.34582    | 0.6187     | 0.84767    |  22.9 | 24.86
Bond    | 0.79592    | 0.87796    | 0.97226    |   7.8 | 35.28
Neigh   | 0.017933   | 0.017938   | 0.017944   |   0.0 |  0.72
Comm    | 0.54783    | 0.87051    | 1.0961     |  21.7 | 34.98
Output  | 0.00028638 | 0.00032306 | 0.00040238 |   0.0 |  0.01
Modify  | 0.067426   | 0.068217   | 0.06908    |   0.2 |  2.74
Other   |            | 0.03514    |            |       |  1.41

Nlocal:         120.25 ave         129 max         111 min
Histogram: 1 1 0 0 0 0 0 0 0 2
Nghost:         4164.5 ave        4194 max        4138 min
Histogram: 1 1 0 0 0 0 0 1 0 1
Neighs:              0 ave           0 max           0 min
Histogram: 4 0 0 0 0 0 0 0 0 0

Total # of neighbors = 0
Ave neighs/atom = 0
Ave special neighs/atom = 15.567568
Neighbor list builds = 20
Dangerous builds = 0
fix             myat1 all ave/time 100 10 1000 v_zave v_zdes file simulation_data/abpot/${cpt}.dat
fix             myat1 all ave/time 100 10 1000 v_zave v_zdes file simulation_data/abpot/5.dat
run             50000
Generated 0 of 1 mixed pair_coeff terms from geometric mixing rule
Per MPI rank memory allocation (min/avg/max) = 14.61 | 14.61 | 14.61 Mbytes
   Step          Temp          E_pair         E_mol          TotEng         Press     
    270000   291.27705      382.86169      18528.355      19327.973     -197.68651    
    271000   295.72933      368.39451      18561.6        19353.121     -502.80185    
    272000   317.38715      370.14512      18547.385      19371.644     -637.96089    
    273000   323.77334      384.50516      18524.295      19372.051     -68.494966    
    274000   306.24257      372.59599      18552.708      19363.472     -615.71514    
    275000   312.4983       378.155        18525.18       19350.454     -182.31061    
    276000   305.87975      370.41777      18524.287      19332.354     -504.71109    
    277000   281.74769      373.08094      18552.527      19328.729     -601.09626    
    278000   282.52799      377.33899      18534.401      19315.978     -168.0739     
    279000   292.59915      373.5917       18534.74       19326.98      -541.58221    
    280000   287.1256       371.88925      18546.861      19329.567     -495.1927     
    281000   288.19296      381.17122      18538.651      19332.166     -172.34549    
    282000   320.7441       370.67472      18509.934      19339.526     -474.7874     
    283000   302.72546      381.89542      18522.994      19338.025     -116.68551    
    284000   293.52791      379.08491      18547.637      19346.699     -141.54891    
    285000   288.28378      370.83868      18563.356      19346.668     -594.27175    
    286000   305.49862      382.0961       18526.106      19345.306     -152.82787    
    287000   297.43645      374.15617      18540.476      19340.201     -379.87121    
    288000   311.97791      377.75711      18515.034      19339.166     -445.5712     
    289000   297.53169      377.95231      18534.211      19337.868     -307.72194    
    290000   298.94912      377.64882      18526          19331.381     -470.46597    
    291000   290.41414      377.3274       18529.613      19322.462     -362.47533    
    292000   304.6718       378.62936      18499.166      19313.717     -206.83992    
    293000   289.60959      372.07892      18517.652      19304.101     -346.97478    
    294000   281.56571      374.44894      18526.479      19303.789     -564.80492    
    295000   296.19797      378.43271      18500.764      19302.993     -389.24296    
    296000   293.99912      379.14327      18518.575      19318.368     -113.19141    
    297000   306.57824      369.72068      18536.631      19345.001     -563.09154    
    298000   302.81793      369.56159      18553.999      19356.829     -678.55437    
    299000   307.14752      385.80032      18527.109      19352.372      21.252756    
    300000   317.62324      376.63162      18520.112      19351.195     -359.69446    
    301000   303.85292      374.0794       18536.285      19345.114     -572.85823    
    302000   287.01152      369.81794      18549.243      19329.713     -610.15678    
    303000   301.95078      383.55238      18505.058      19320.639     -153.12228    
    304000   292.30569      379.60753      18507.316      19305.151     -233.70152    
    305000   282.16011      367.92692      18521.321      19292.96      -597.72183    
    306000   280.4075       376.97743      18508.642      19286.823     -369.11319    
    307000   274.89161      378.31401      18514.059      19285.685     -224.39691    
    308000   288.85734      377.31887      18516.653      19307.266     -409.57575    
    309000   308.78115      372.16125      18518.567      19332.529     -635.41069    
    310000   310.97329      376.52659      18527.376      19348.839     -308.93171    
    311000   310.38533      379.57904      18534.394      19358.069     -335.05307    
    312000   298.08209      379.09212      18555.698      19361.282     -327.89118    
    313000   303.59636      372.70632      18552.583      19359.672     -515.72477    
    314000   296.49534      378.14543      18547.128      19349.495     -343.12522    
    315000   295.04499      383.00859      18527.525      19332.681     -336.111      
    316000   290.37329      378.71799      18534.791      19328.972     -243.31613    
    317000   295.56887      371.81337      18525.894      19320.604     -479.22937    
    318000   284.36375      381.03669      18522.627      19310.528     -211.52469    
    319000   293.22986      376.31418      18517.497      19313.361     -288.21607    
    320000   295.30134      374.06325      18539.433      19336.01      -414.68515    
Loop time of 12.5894 on 4 procs for 50000 steps with 481 atoms

Performance: 17.157 ns/day, 1.399 hours/ns, 3971.591 timesteps/s, 1.910 Matom-step/s
99.3% CPU use with 4 MPI tasks x no OpenMP threads

MPI task timing breakdown:
Section |  min time  |  avg time  |  max time  |%varavg| %total
---------------------------------------------------------------
Pair    | 1.7355     | 3.0915     | 4.2455     |  51.1 | 24.56
Bond    | 3.9591     | 4.4048     | 4.9105     |  18.4 | 34.99
Neigh   | 0.12051    | 0.12059    | 0.12065    |   0.0 |  0.96
Comm    | 2.7887     | 4.4402     | 5.5572     |  48.8 | 35.27
Output  | 0.0018323  | 0.0024365  | 0.0026705  |   0.7 |  0.02
Modify  | 0.34237    | 0.35016    | 0.35659    |   1.0 |  2.78
Other   |            | 0.1797     |            |       |  1.43

Nlocal:         120.25 ave         128 max         112 min
Histogram: 1 0 0 1 0 0 0 1 0 1
Nghost:         4173.5 ave        4200 max        4150 min
Histogram: 1 1 0 0 0 0 0 1 0 1
Neighs:              0 ave           0 max           0 min
Histogram: 4 0 0 0 0 0 0 0 0 0

Total # of neighbors = 0
Ave neighs/atom = 0
Ave special neighs/atom = 15.567568
Neighbor list builds = 134
Dangerous builds = 0
unfix           myat1
next            cpt
jump            SELF loop
variable        zdes equal  -15+0.30*(${cpt}-1)
variable        zdes equal  -15+0.30*(6-1)
fix             mytth2 H2 spring tether ${k1} 5 5 ${zdes} 0
fix             mytth2 H2 spring tether 0.5 5 5 ${zdes} 0
fix             mytth2 H2 spring tether 0.5 5 5 -13.5 0
run             10000
Generated 0 of 1 mixed pair_coeff terms from geometric mixing rule
Per MPI rank memory allocation (min/avg/max) = 14.61 | 14.61 | 14.61 Mbytes
   Step          Temp          E_pair         E_mol          TotEng         Press     
    320000   295.30134      374.06325      18539.433      19336.01      -414.68515    
    321000   301.85382      375.01185      18556.024      19362.925     -538.56808    
    322000   297.40356      375.43454      18571.274      19372.23      -250.34281    
    323000   310.99052      381.71586      18542.228      19368.905     -219.73301    
    324000   304.57832      368.1448       18553.141      19357.073     -615.16879    
    325000   294.29147      370.04841      18553.866      19344.983     -480.00242    
    326000   307.52558      380.26409      18510.307      19330.575     -301.84408    
    327000   311.55627      372.68202      18505.91       19324.363     -459.88118    
    328000   296.4126       372.73622      18528.612      19325.452     -428.76969    
    329000   299.13657      369.79504      18527.704      19325.501     -706.89959    
    330000   289.51799      380.70195      18521.489      19316.43      -195.16526    
Loop time of 2.49406 on 4 procs for 10000 steps with 481 atoms

Performance: 17.321 ns/day, 1.386 hours/ns, 4009.528 timesteps/s, 1.929 Matom-step/s
99.7% CPU use with 4 MPI tasks x no OpenMP threads

MPI task timing breakdown:
Section |  min time  |  avg time  |  max time  |%varavg| %total
---------------------------------------------------------------
Pair    | 0.34014    | 0.61744    | 0.84841    |  23.3 | 24.76
Bond    | 0.79426    | 0.87638    | 0.97292    |   7.7 | 35.14
Neigh   | 0.029368   | 0.029408   | 0.029448   |   0.0 |  1.18
Comm    | 0.53993    | 0.8691     | 1.1088     |  22.4 | 34.85
Output  | 0.00041837 | 0.00044556 | 0.00050712 |   0.0 |  0.02
Modify  | 0.064176   | 0.066344   | 0.068547   |   0.7 |  2.66
Other   |            | 0.03494    |            |       |  1.40

Nlocal:         120.25 ave         129 max         111 min
Histogram: 1 0 1 0 0 0 0 0 1 1
Nghost:         4173.5 ave        4196 max        4151 min
Histogram: 2 0 0 0 0 0 0 0 0 2
Neighs:              0 ave           0 max           0 min
Histogram: 4 0 0 0 0 0 0 0 0 0

Total # of neighbors = 0
Ave neighs/atom = 0
Ave special neighs/atom = 15.567568
Neighbor list builds = 33
Dangerous builds = 0
fix             myat1 all ave/time 100 10 1000 v_zave v_zdes file simulation_data/abpot/${cpt}.dat
fix             myat1 all ave/time 100 10 1000 v_zave v_zdes file simulation_data/abpot/6.dat
run             50000
Generated 0 of 1 mixed pair_coeff terms from geometric mixing rule
Per MPI rank memory allocation (min/avg/max) = 14.61 | 14.61 | 14.61 Mbytes
   Step          Temp          E_pair         E_mol          TotEng         Press     
    330000   289.51799      380.70195      18521.489      19316.43      -195.16526    
    331000   286.83916      374.32716      18540.19       19324.924     -422.30478    
    332000   316.11329      371.40986      18519.792      19343.493     -468.09076    
    333000   318.4383       373.56041      18543.723      19372.902     -446.88307    
    334000   312.7327       380.43989      18559.547      19387.442     -144.67       
    335000   315.98485      373.68597      18551.705      19377.498     -527.1008     
    336000   321.19771      374.68855      18528.13       19362.385     -457.12381    
    337000   300.77196      374.42139      18539.308      19344.07      -350.75066    
    338000   316.61611      380.07858      18502.732      19335.822     -165.91531    
    339000   306.24578      375.2583       18517.272      19330.703     -249.49087    
    340000   290.84736      373.77218      18534.765      19324.679     -535.40476    
    341000   290.36884      375.99607      18531.861      19323.314     -336.12374    
    342000   299.28634      375.97587      18521.963      19326.154     -246.32644    
    343000   286.61393      372.40768      18548.984      19331.476     -350.83495    
    344000   315.89059      369.89476      18528.7        19350.567     -503.66405    
    345000   314.5261       381.65591      18538.002      19369.678     -200.93531    
    346000   310.03108      372.1916       18557.374      19373.154     -533.24229    
    347000   318.44291      378.07563      18546.455      19380.155     -387.38626    
    348000   294.79191      371.6962       18570.21       19363.691     -484.81406    
    349000   305.8418       376.15423      18527.499      19341.248     -358.19394    
    350000   307.02424      374.7147       18518.61       19332.612     -300.27257    
    351000   287.66063      368.33633      18549.851      19329.769     -554.76765    
    352000   296.73784      370.3923       18535.103      19330.065     -552.32692    
    353000   279.22154      381.41816      18551.225      19332.151     -85.863632    
    354000   296.91646      371.43143      18535.809      19332.065     -489.27714    
    355000   303.86386      372.38618      18540.562      19347.713     -466.59142    
    356000   304.17031      375.24408      18543.559      19354.006     -323.5303     
    357000   315.8119       375.67011      18541.004      19368.534     -445.49958    
    358000   288.99983      380.99847      18576.68       19371.176     -288.81302    
    359000   328.94035      373.20438      18539.329      19383.177     -484.72362    
    360000   327.40329      371.83623      18548.495      19388.776     -530.50254    
    361000   294.91357      380.26418      18564.216      19366.44      -206.14764    
    362000   309.15996      376.885        18521.749      19340.977     -376.24501    
    363000   292.41187      373.58735      18536.592      19328.559     -486.83626    
    364000   278.70885      372.60855      18554.023      19325.405     -556.14544    
    365000   289.42921      378.18387      18522.714      19315.01      -314.82325    
    366000   292.03549      378.41392      18531.433      19327.688     -239.27959    
    367000   297.41557      368.79071      18538.782      19333.111     -745.75906    
    368000   312.76015      373.84239      18530.715      19352.051     -344.29156    
    369000   304.16783      377.05931      18549.467      19361.726     -221.40501    
    370000   303.93725      383.41132      18553.665      19371.946     -187.08037    
    371000   321.2845       372.31403      18544.966      19376.971     -562.07017    
    372000   330.17017      380.38469      18518.074      19370.862     -313.42309    
    373000   307.3344       380.89088      18536.187      19356.809     -231.64661    
    374000   303.58583      374.22325      18547.177      19355.767     -433.76983    
    375000   301.31679      378.3403       18543.917      19353.378     -187.75047    
    376000   294.74326      371.8343       18554.545      19348.095     -536.10851    
    377000   285.70311      375.76253      18563.533      19348.076     -537.89181    
    378000   281.59967      379.72381      18563.262      19345.896     -112.21091    
    379000   295.90285      370.25796      18550.214      19343.846     -636.81692    
    380000   310.66773      377.11825      18527.621      19349.239     -57.640486    
Loop time of 12.524 on 4 procs for 50000 steps with 481 atoms

Performance: 17.247 ns/day, 1.392 hours/ns, 3992.333 timesteps/s, 1.920 Matom-step/s
99.4% CPU use with 4 MPI tasks x no OpenMP threads

MPI task timing breakdown:
Section |  min time  |  avg time  |  max time  |%varavg| %total
---------------------------------------------------------------
Pair    | 1.7166     | 3.0805     | 4.2457     |  51.6 | 24.60
Bond    | 3.9312     | 4.3844     | 4.8874     |  18.1 | 35.01
Neigh   | 0.12276    | 0.12278    | 0.12279    |   0.0 |  0.98
Comm    | 2.7606     | 4.4176     | 5.5566     |  49.4 | 35.27
Output  | 0.0017422  | 0.0024203  | 0.0026913  |   0.8 |  0.02
Modify  | 0.32977    | 0.34075    | 0.35154    |   1.6 |  2.72
Other   |            | 0.1756     |            |       |  1.40

Nlocal:         120.25 ave         129 max         111 min
Histogram: 1 1 0 0 0 0 0 0 1 1
Nghost:           4163 ave        4187 max        4138 min
Histogram: 1 1 0 0 0 0 0 0 0 2
Neighs:              0 ave           0 max           0 min
Histogram: 4 0 0 0 0 0 0 0 0 0

Total # of neighbors = 0
Ave neighs/atom = 0
Ave special neighs/atom = 15.567568
Neighbor list builds = 137
Dangerous builds = 0
unfix           myat1
next            cpt
jump            SELF loop
variable        zdes equal  -15+0.30*(${cpt}-1)
variable        zdes equal  -15+0.30*(7-1)
fix             mytth2 H2 spring tether ${k1} 5 5 ${zdes} 0
fix             mytth2 H2 spring tether 0.5 5 5 ${zdes} 0
fix             mytth2 H2 spring tether 0.5 5 5 -13.2 0
run             10000
Generated 0 of 1 mixed pair_coeff terms from geometric mixing rule
Per MPI rank memory allocation (min/avg/max) = 14.61 | 14.61 | 14.61 Mbytes
   Step          Temp          E_pair         E_mol          TotEng         Press     
    380000   310.66773      377.11825      18527.621      19349.239     -57.640486    
    381000   285.38609      377.88533      18558.274      19344.486     -354.0643     
    382000   292.27679      371.14652      18556.016      19345.349     -493.00577    
    383000   318.07173      374.56643      18519.28       19348.94      -257.20175    
    384000   296.68798      377.629        18544.012      19346.139     -248.16842    
    385000   317.80918      377.43924      18520.729      19352.886     -168.78961    
    386000   313.1516       377.05453      18527.866      19352.975     -363.74512    
    387000   277.71867      374.76291      18574.017      19346.137     -493.87243    
    388000   284.91503      382.48703      18552.425      19342.566     -162.52261    
    389000   314.87509      377.55623      18518.838      19346.914     -257.3278     
    390000   290.66267      372.23156      18556.961      19345.07      -380.61953    
Loop time of 2.48668 on 4 procs for 10000 steps with 481 atoms

Performance: 17.373 ns/day, 1.381 hours/ns, 4021.425 timesteps/s, 1.934 Matom-step/s
99.6% CPU use with 4 MPI tasks x no OpenMP threads

MPI task timing breakdown:
Section |  min time  |  avg time  |  max time  |%varavg| %total
---------------------------------------------------------------
Pair    | 0.3428     | 0.61477    | 0.84326    |  22.9 | 24.72
Bond    | 0.78787    | 0.87561    | 0.97264    |   7.8 | 35.21
Neigh   | 0.021507   | 0.021515   | 0.021524   |   0.0 |  0.87
Comm    | 0.54972    | 0.87413    | 1.1048     |  21.9 | 35.15
Output  | 0.00025642 | 0.00029152 | 0.00035983 |   0.0 |  0.01
Modify  | 0.063942   | 0.065228   | 0.066422   |   0.4 |  2.62
Other   |            | 0.03514    |            |       |  1.41

Nlocal:         120.25 ave         126 max         114 min
Histogram: 1 0 0 1 0 0 0 1 0 1
Nghost:        4171.25 ave        4197 max        4149 min
Histogram: 1 1 0 0 0 0 0 1 0 1
Neighs:              0 ave           0 max           0 min
Histogram: 4 0 0 0 0 0 0 0 0 0

Total # of neighbors = 0
Ave neighs/atom = 0
Ave special neighs/atom = 15.567568
Neighbor list builds = 24
Dangerous builds = 0
fix             myat1 all ave/time 100 10 1000 v_zave v_zdes file simulation_data/abpot/${cpt}.dat
fix             myat1 all ave/time 100 10 1000 v_zave v_zdes file simulation_data/abpot/7.dat
run             50000
Generated 0 of 1 mixed pair_coeff terms from geometric mixing rule
Per MPI rank memory allocation (min/avg/max) = 14.61 | 14.61 | 14.61 Mbytes
   Step          Temp          E_pair         E_mol          TotEng         Press     
    390000   290.66267      372.23156      18556.961      19345.07      -380.61953    
    391000   296.29829      375.15109      18542.133      19341.224     -408.40781    
    392000   302.15144      379.29476      18515.909      19327.519     -126.10231    
    393000   296.31865      374.67035      18521.335      19319.975     -260.55443    
    394000   297.02761      369.43044      18530.079      19324.494     -414.06255    
    395000   296.34466      371.68019      18526.791      19322.478     -421.07343    
    396000   307.17189      377.3411       18505.24       19322.079     -191.71282    
    397000   300.2143       374.69963      18543.619      19347.862     -367.32943    
    398000   310.71925      366.75337      18553.986      19365.313     -684.73153    
    399000   312.4447       376.26048      18549.074      19372.377     -250.05712    
    400000   303.60294      382.4804       18551.389      19368.261     -208.7174     
    401000   312.94609      376.94519      18547.076      19371.781     -334.56642    
    402000   294.51817      371.05223      18562.784      19355.23      -672.45735    
    403000   295.40345      378.63171      18540.813      19342.105     -353.18859    
    404000   289.3401       380.37594      18527.154      19321.514     -235.61387    
    405000   286.88732      373.92146      18521.742      19306.139     -472.53212    
    406000   287.42371      370.35187      18529.496      19311.091     -536.70981    
    407000   283.62331      375.205        18537.057      19318.067     -464.9115     
    408000   300.75611      382.3871       18519.079      19331.785     -297.6561     
    409000   302.14024      374.57243      18529.189      19336.06      -399.05443    
    410000   314.21142      367.1331       18534.764      19351.467     -787.1121     
    411000   297.14392      377.47045      18551.969      19354.589     -338.79089    
    412000   299.36079      376.9232       18548.081      19353.326     -367.46636    
    413000   296.6564       373.58479      18549.719      19347.756     -527.72002    
    414000   307.15522      373.61158      18531.173      19344.259     -551.47334    
    415000   275.8886       376.23395      18539.062      19310.035     -285.05       
    416000   277.05959      378.91462      18520.562      19295.89      -234.50178    
    417000   295.9925       374.7652       18505.386      19303.653     -518.685      
    418000   294.89898      369.78158      18514.199      19305.919     -534.68289    
    419000   284.90111      383.65609      18531.115      19322.404     -201.75252    
    420000   316.6106       373.15489      18510.947      19337.105     -473.16348    
    421000   293.96158      375.42638      18546.453      19342.476     -450.01587    
    422000   293.08593      376.63156      18550.432      19346.408     -328.50696    
    423000   304.05125      375.66013      18543.015      19353.708     -498.92061    
    424000   310.15819      379.99948      18520.744      19344.515     -370.967      
    425000   297.5367       374.92331      18541.618      19342.253     -414.63927    
    426000   302.58774      380.01515      18525.251      19338.205     -222.71076    
    427000   277.46662      374.08464      18543.387      19314.467     -515.15777    
    428000   291.95657      378.76392      18508.206      19304.698     -316.62759    
    429000   294.40851      374.1409       18497.285      19292.663     -385.64035    
    430000   272.87489      372.27459      18518.119      19280.82      -412.53892    
    431000   282.92695      376.86732      18513.355      19295.031     -375.60523    
    432000   291.1498       377.65823      18519.607      19313.839     -447.79665    
    433000   283.76073      375.2375       18543.131      19324.371     -427.3368     
    434000   289.30235      381.04749      18536.529      19331.507     -175.1225     
    435000   301.68229      373.92359      18522.792      19328.36      -540.36181    
    436000   305.98136      379.37344      18514.517      19331.685     -302.67283    
    437000   302.01267      384.53612      18521.33       19337.983     -243.48666    
    438000   298.17488      374.12598      18541.453      19342.204     -589.70033    
    439000   305.99178      375.86738      18528.437      19342.114     -310.64217    
    440000   301.80958      379.12452      18523.573      19334.523     -486.06058    
Loop time of 12.7363 on 4 procs for 50000 steps with 481 atoms

Performance: 16.959 ns/day, 1.415 hours/ns, 3925.792 timesteps/s, 1.888 Matom-step/s
99.0% CPU use with 4 MPI tasks x no OpenMP threads

MPI task timing breakdown:
Section |  min time  |  avg time  |  max time  |%varavg| %total
---------------------------------------------------------------
Pair    | 1.7441     | 3.1208     | 4.2996     |  51.9 | 24.50
Bond    | 3.9762     | 4.4277     | 4.9229     |  17.9 | 34.76
Neigh   | 0.112      | 0.11206    | 0.11212    |   0.0 |  0.88
Comm    | 2.8639     | 4.5395     | 5.7008     |  49.3 | 35.64
Output  | 0.00193    | 0.0025287  | 0.0027436  |   0.7 |  0.02
Modify  | 0.34573    | 0.34953    | 0.35405    |   0.5 |  2.74
Other   |            | 0.1842     |            |       |  1.45

Nlocal:         120.25 ave         128 max         112 min
Histogram: 1 0 1 0 0 0 0 0 1 1
Nghost:         4167.5 ave        4197 max        4143 min
Histogram: 1 1 0 0 0 0 1 0 0 1
Neighs:              0 ave           0 max           0 min
Histogram: 4 0 0 0 0 0 0 0 0 0

Total # of neighbors = 0
Ave neighs/atom = 0
Ave special neighs/atom = 15.567568
Neighbor list builds = 123
Dangerous builds = 0
unfix           myat1
next            cpt
jump            SELF loop
variable        zdes equal  -15+0.30*(${cpt}-1)
variable        zdes equal  -15+0.30*(8-1)
fix             mytth2 H2 spring tether ${k1} 5 5 ${zdes} 0
fix             mytth2 H2 spring tether 0.5 5 5 ${zdes} 0
fix             mytth2 H2 spring tether 0.5 5 5 -12.9 0
run             10000
Generated 0 of 1 mixed pair_coeff terms from geometric mixing rule
Per MPI rank memory allocation (min/avg/max) = 14.61 | 14.61 | 14.61 Mbytes
   Step          Temp          E_pair         E_mol          TotEng         Press     
    440000   301.80958      379.12452      18523.573      19334.523     -486.06058    
    441000   296.30085      380.47972      18530.483      19334.907     -329.54091    
    442000   308.25036      377.81664      18509.341      19328.199     -184.46111    
    443000   302.82559      369.54568      18504.851      19307.676     -622.1406     
    444000   296.83896      382.35876      18489.368      19296.441     -197.80361    
    445000   291.55034      382.78249      18494.56       19294.49      -226.81788    
    446000   297.95667      370.15828      18499.744      19296.215     -633.17589    
    447000   298.18492      373.49472      18519.662      19319.796     -363.30935    
    448000   312.91242      376.95897      18514.138      19338.809     -322.39455    
    449000   312.10527      381.41721      18517.178      19345.152     -218.34037    
    450000   318.18741      371.41633      18526.444      19353.119     -564.83235    
Loop time of 2.51084 on 4 procs for 10000 steps with 481 atoms

Performance: 17.205 ns/day, 1.395 hours/ns, 3982.731 timesteps/s, 1.916 Matom-step/s
99.1% CPU use with 4 MPI tasks x no OpenMP threads

MPI task timing breakdown:
Section |  min time  |  avg time  |  max time  |%varavg| %total
---------------------------------------------------------------
Pair    | 0.34781    | 0.62075    | 0.85496    |  23.1 | 24.72
Bond    | 0.78713    | 0.88093    | 0.98032    |   8.3 | 35.08
Neigh   | 0.019864   | 0.019872   | 0.019881   |   0.0 |  0.79
Comm    | 0.55676    | 0.88906    | 1.1117     |  22.0 | 35.41
Output  | 0.00037371 | 0.00041388 | 0.00050604 |   0.0 |  0.02
Modify  | 0.062445   | 0.063872   | 0.065327   |   0.5 |  2.54
Other   |            | 0.03594    |            |       |  1.43

Nlocal:         120.25 ave         128 max         112 min
Histogram: 1 0 0 0 1 0 1 0 0 1
Nghost:        4166.75 ave        4186 max        4144 min
Histogram: 1 1 0 0 0 0 0 0 0 2
Neighs:              0 ave           0 max           0 min
Histogram: 4 0 0 0 0 0 0 0 0 0

Total # of neighbors = 0
Ave neighs/atom = 0
Ave special neighs/atom = 15.567568
Neighbor list builds = 22
Dangerous builds = 0
fix             myat1 all ave/time 100 10 1000 v_zave v_zdes file simulation_data/abpot/${cpt}.dat
fix             myat1 all ave/time 100 10 1000 v_zave v_zdes file simulation_data/abpot/8.dat
run             50000
Generated 0 of 1 mixed pair_coeff terms from geometric mixing rule
Per MPI rank memory allocation (min/avg/max) = 14.61 | 14.61 | 14.61 Mbytes
   Step          Temp          E_pair         E_mol          TotEng         Press     
    450000   318.18741      371.41633      18526.444      19353.119     -564.83235    
    451000   323.00105      376.48318      18515.367      19353.996     -400.3337     
    452000   303.11312      378.99014      18520.242      19332.923     -394.13872    
    453000   285.03926      381.55528      18540.076      19329.462     -335.90993    
    454000   304.89453      373.0745       18512.473      19321.787     -458.53505    
    455000   291.80451      373.47462      18519.776      19310.761     -530.62518    
    456000   286.80122      379.76242      18515.307      19305.421     -379.34666    
    457000   305.34042      382.22116      18502.364      19321.463     -195.23449    
    458000   302.38429      376.20086      18536.139      19344.988     -505.18516    
    459000   307.91048      376.6019       18551.52       19368.677     -364.15482    
    460000   320.84177      381.02179      18533.465      19373.544     -198.84286    
    461000   314.02417      379.59311      18533.957      19362.853     -322.01618    
    462000   303.60651      375.79449      18542.075      19352.267     -484.62923    
    463000   284.58902      376.07992      18549.756      19333.022     -456.06291    
    464000   290.03924      377.38289      18530.888      19323.256     -359.75357    
    465000   296.03808      377.51496      18519.873      19320.956     -194.47449    
    466000   289.64944      375.54235      18525.778      19315.748     -554.00386    
    467000   283.43389      376.01464      18538.901      19320.45      -428.24663    
    468000   307.73637      381.58101      18514.702      19336.589     -172.68666    
    469000   307.23289      373.25761      18541.183      19354.026     -447.34734    
    470000   324.68174      377.38667      18532.207      19374.144     -410.7549     
    471000   339.36559      380.35639      18525.18       19391.097     -196.82712    
    472000   325.56637      378.56574      18561.361      19405.743     -254.96348    
    473000   339.22472      368.87673      18565.482      19419.718     -534.57215    
    474000   354.44101      379.71874      18539.559      19426.408     -249.45794    
[...]
   5949000   311.31906      375.0368       18486.009      19306.477     -181.59916    
   5950000   288.40072      365.84489      18519.027      19297.512     -708.60576    
   5951000   292.34661      377.27941      18490.628      19286.193     -253.36951    
   5952000   287.71069      377.09336      18494.441      19283.188     -299.62725    
   5953000   295.12418      367.21156      18518.098      19307.57      -569.84266    
   5954000   318.33662      369.82653      18518.524      19343.823     -612.618      
   5955000   319.5401       374.74832      18512.749      19344.692     -297.88635    
   5956000   326.98598      375.43725      18507.334      19350.619     -243.42734    
   5957000   309.60105      370.45132      18530.119      19343.544     -451.43728    
   5958000   305.25449      367.87134      18524.993      19329.619     -569.55995    
   5959000   315.86644      383.86593      18484.435      19320.239      57.66797     
   5960000   301.33837      370.35358      18499.67       19301.175     -373.39259    
Loop time of 12.4178 on 4 procs for 50000 steps with 481 atoms

Performance: 17.394 ns/day, 1.380 hours/ns, 4026.483 timesteps/s, 1.937 Matom-step/s
98.9% CPU use with 4 MPI tasks x no OpenMP threads

MPI task timing breakdown:
Section |  min time  |  avg time  |  max time  |%varavg| %total
---------------------------------------------------------------
Pair    | 1.8507     | 3.1092     | 4.036      |  51.1 | 25.04
Bond    | 4.0138     | 4.4485     | 4.9417     |  17.7 | 35.82
Neigh   | 0.08305    | 0.083078   | 0.083097   |   0.0 |  0.67
Comm    | 2.9448     | 4.2117     | 5.9084     |  54.3 | 33.92
Output  | 0.0017469  | 0.0026876  | 0.0030559  |   1.0 |  0.02
Modify  | 0.3697     | 0.37474    | 0.37871    |   0.5 |  3.02
Other   |            | 0.1879     |            |       |  1.51

Nlocal:         120.25 ave         129 max         112 min
Histogram: 2 0 0 0 0 0 0 0 1 1
Nghost:        4186.25 ave        4214 max        4157 min
Histogram: 1 0 1 0 0 0 0 0 1 1
Neighs:              0 ave           0 max           0 min
Histogram: 4 0 0 0 0 0 0 0 0 0

Total # of neighbors = 0
Ave neighs/atom = 0
Ave special neighs/atom = 15.567568
Neighbor list builds = 87
Dangerous builds = 0
unfix           myat1
next            cpt
jump            SELF loop
variable        zdes equal  -15+0.30*(${cpt}-1)
variable        zdes equal  -15+0.30*(100-1)
fix             mytth2 H2 spring tether ${k1} 5 5 ${zdes} 0
fix             mytth2 H2 spring tether 0.5 5 5 ${zdes} 0
fix             mytth2 H2 spring tether 0.5 5 5 14.7 0
run             10000
Generated 0 of 1 mixed pair_coeff terms from geometric mixing rule
Per MPI rank memory allocation (min/avg/max) = 14.61 | 14.61 | 14.61 Mbytes
   Step          Temp          E_pair         E_mol          TotEng         Press     
   5960000   301.33837      370.35358      18499.67       19301.175     -373.39259    
   5961000   288.46593      370.76304      18511.117      19294.614     -472.26378    
   5962000   293.22238      373.37255      18508.006      19300.917     -221.49469    
   5963000   295.87072      375.91623      18501.333      19300.578     -204.44857    
   5964000   293.50137      375.16274      18515.389      19310.49      -324.78306    
   5965000   289.01622      370.67613      18545.209      19329.406     -493.32295    
   5966000   304.97925      374.30034      18542.216      19352.878     -480.08919    
   5967000   310.65503      380.15077      18539.215      19363.848      12.886111    
   5968000   331.07527      374.04972      18513.871      19361.62      -431.4364     
   5969000   310.58169      368.64974      18538.55       19351.577     -515.16964    
   5970000   307.19748      377.47597      18513.269      19330.28      -333.04512    
Loop time of 2.50539 on 4 procs for 10000 steps with 481 atoms

Performance: 17.243 ns/day, 1.392 hours/ns, 3991.401 timesteps/s, 1.920 Matom-step/s
98.5% CPU use with 4 MPI tasks x no OpenMP threads

MPI task timing breakdown:
Section |  min time  |  avg time  |  max time  |%varavg| %total
---------------------------------------------------------------
Pair    | 0.36865    | 0.62604    | 0.81123    |  23.1 | 24.99
Bond    | 0.79845    | 0.89219    | 0.99498    |   8.5 | 35.61
Neigh   | 0.012163   | 0.012168   | 0.012171   |   0.0 |  0.49
Comm    | 0.59937    | 0.86103    | 1.2133     |  24.7 | 34.37
Output  | 0.00032417 | 0.00035701 | 0.00043338 |   0.0 |  0.01
Modify  | 0.074628   | 0.07587    | 0.077436   |   0.4 |  3.03
Other   |            | 0.03774    |            |       |  1.51

Nlocal:         120.25 ave         125 max         116 min
Histogram: 2 0 0 0 0 0 0 0 1 1
Nghost:         4161.5 ave        4191 max        4133 min
Histogram: 1 0 0 1 0 0 1 0 0 1
Neighs:              0 ave           0 max           0 min
Histogram: 4 0 0 0 0 0 0 0 0 0

Total # of neighbors = 0
Ave neighs/atom = 0
Ave special neighs/atom = 15.567568
Neighbor list builds = 13
Dangerous builds = 0
fix             myat1 all ave/time 100 10 1000 v_zave v_zdes file simulation_data/abpot/${cpt}.dat
fix             myat1 all ave/time 100 10 1000 v_zave v_zdes file simulation_data/abpot/100.dat
run             50000
Generated 0 of 1 mixed pair_coeff terms from geometric mixing rule
Per MPI rank memory allocation (min/avg/max) = 14.61 | 14.61 | 14.61 Mbytes
   Step          Temp          E_pair         E_mol          TotEng         Press     
   5970000   307.19748      377.47597      18513.269      19330.28      -333.04512    
   5971000   308.37268      381.15002      18497.528      19319.894      9.4904539    
   5972000   281.85678      368.14653      18542.709      19314.133     -609.22199    
   5973000   313.0758       377.13993      18483.146      19308.231     -312.13446    
   5974000   287.30545      375.66594      18510.731      19297.47      -204.09651    
   5975000   301.04536      374.39252      18497.147      19302.272     -274.96478    
   5976000   292.96176      375.57692      18513.895      19308.638     -259.75002    
   5977000   303.52173      365.30248      18508.573      19308.151     -524.2526     
   5978000   310.70184      376.13726      18510.808      19331.494     -184.00577    
   5979000   311.85015      380.32273      18521.612      19348.126     -91.213826    
   5980000   307.16261      361.86963      18552.906      19354.261     -849.92747    
   5981000   324.48702      373.90243      18514.255      19352.43      -366.94229    
   5982000   313.0998       380.06163      18510.675      19338.716     -86.154292    
   5983000   288.46395      372.96017      18529.878      19315.569     -395.33294    
   5984000   294.40402      370.45948      18509.306      19300.995     -613.19974    
   5985000   296.24862      370.22939      18509.126      19303.225     -416.80143    
   5986000   291.99582      381.50875      18504.476      19303.769     -109.13751    
   5987000   303.08831      373.04653      18495.764      19302.466     -275.17499    
   5988000   302.95822      371.2433       18506.317      19311.03      -570.36056    
   5989000   303.45847      371.64052      18511.712      19317.538     -229.07521    
   5990000   300.89016      383.55908      18504.289      19318.358     -93.755449    
   5991000   323.26636      373.93579      18507.826      19344.287     -296.62767    
   5992000   304.31907      368.75008      18558.309      19362.476     -652.37497    
   5993000   303.8038       377.19928      18550.272      19362.15      -189.10143    
   5994000   319.06257      376.17397      18517.599      19350.284     -204.13778    
   5995000   292.43679      373.48561      18531.006      19322.907     -311.08075    
   5996000   291.77863      368.23714      18522.204      19307.914     -682.98552    
   5997000   293.26709      380.83862      18501.331      19301.773     -65.135006    
   5998000   278.60364      374.78119      18525.452      19298.856     -284.73353    
   5999000   294.51209      371.41539      18512.439      19305.239     -362.46946    
   6000000   301.94178      372.51018      18506.409      19310.934     -507.79468    
   6001000   290.37911      376.06565      18520.698      19312.235     -284.24441    
   6002000   305.02206      377.40851      18510.137      19323.968     -205.85787    
   6003000   302.37293      369.21865      18532.695      19334.546     -529.89318    
   6004000   320.69098      368.9244       18514.16       19341.925     -473.05813    
   6005000   313.05633      384.14924      18525.126      19357.193     -4.5057352    
   6006000   316.05198      368.03342      18534.476      19354.713     -583.18992    
   6007000   313.07298      369.84161      18517.489      19335.272     -415.27279    
   6008000   302.35535      376.05092      18506.433      19315.091     -290.79616    
   6009000   297.0609       373.20675      18503.575      19301.813     -319.58011    
   6010000   285.81766      375.30609      18513.364      19297.615     -305.55978    
   6011000   288.88725      367.65456      18515.219      19296.21      -471.04721    
   6012000   304.47408      375.29585      18496.879      19307.813     -349.26347    
   6013000   289.03134      377.15746      18522.656      19313.356     -204.20251    
   6014000   304.32278      373.17706      18515.341      19323.94      -438.1357     
   6015000   308.28176      373.60883      18532.781      19347.476     -379.97623    
   6016000   313.21806      373.50817      18541.337      19362.994     -392.16821    
   6017000   319.76577      379.04368      18518.712      19355.273     -109.33394    
   6018000   318.7582       375.75981      18515.813      19347.649     -321.37801    
   6019000   284.88433      371.03237      18531.337      19309.979     -515.11498    
   6020000   294.40907      378.4392       18488.661      19288.337     -157.5874     
Loop time of 12.6527 on 4 procs for 50000 steps with 481 atoms

Performance: 17.071 ns/day, 1.406 hours/ns, 3951.719 timesteps/s, 1.901 Matom-step/s
98.5% CPU use with 4 MPI tasks x no OpenMP threads

MPI task timing breakdown:
Section |  min time  |  avg time  |  max time  |%varavg| %total
---------------------------------------------------------------
Pair    | 1.8652     | 3.1355     | 4.0614     |  51.3 | 24.78
Bond    | 4.0405     | 4.4807     | 4.9787     |  17.6 | 35.41
Neigh   | 0.076958   | 0.077028   | 0.077103   |   0.0 |  0.61
Comm    | 3.0603     | 4.3524     | 6.06       |  54.0 | 34.40
Output  | 0.001857   | 0.0028239  | 0.0031733  |   1.1 |  0.02
Modify  | 0.40621    | 0.41133    | 0.41799    |   0.7 |  3.25
Other   |            | 0.1929     |            |       |  1.52

Nlocal:         120.25 ave         130 max         111 min
Histogram: 2 0 0 0 0 0 0 0 1 1
Nghost:        4189.25 ave        4215 max        4162 min
Histogram: 1 1 0 0 0 0 0 0 0 2
Neighs:              0 ave           0 max           0 min
Histogram: 4 0 0 0 0 0 0 0 0 0

Total # of neighbors = 0
Ave neighs/atom = 0
Ave special neighs/atom = 15.567568
Neighbor list builds = 82
Dangerous builds = 0
unfix           myat1
next            cpt
jump            SELF loop
variable        zdes equal  -15+0.30*(${cpt}-1)
variable        zdes equal  -15+0.30*(101-1)
fix             mytth2 H2 spring tether ${k1} 5 5 ${zdes} 0
fix             mytth2 H2 spring tether 0.5 5 5 ${zdes} 0
fix             mytth2 H2 spring tether 0.5 5 5 15 0
run             10000
Generated 0 of 1 mixed pair_coeff terms from geometric mixing rule
Per MPI rank memory allocation (min/avg/max) = 14.61 | 14.61 | 14.61 Mbytes
   Step          Temp          E_pair         E_mol          TotEng         Press     
   6020000   294.40907      378.4392       18488.661      19288.337     -157.5874     
   6021000   282.42357      372.05762      18512.553      19288.699     -368.41174    
   6022000   292.47411      375.28729      18505.743      19299.499     -280.69125    
   6023000   296.42133      372.26895      18501.932      19298.317     -361.03887    
   6024000   300.12728      372.49413      18509.942      19311.855     -390.29297    
   6025000   305.89838      381.0305       18506.129      19324.835     -208.60402    
   6026000   317.02087      373.95699      18503.08       19330.626     -302.76483    
   6027000   306.56676      373.79373      18524.954      19337.38      -233.29647    
   6028000   306.89394      376.9467       18517.542      19333.589     -201.83547    
   6029000   303.56483      374.84966      18515.493      19324.68      -351.04023    
   6030000   285.90703      373.5303       18515.274      19297.876     -399.35838    
Loop time of 2.46682 on 4 procs for 10000 steps with 481 atoms

Performance: 17.512 ns/day, 1.370 hours/ns, 4053.808 timesteps/s, 1.950 Matom-step/s
99.1% CPU use with 4 MPI tasks x no OpenMP threads

MPI task timing breakdown:
Section |  min time  |  avg time  |  max time  |%varavg| %total
---------------------------------------------------------------
Pair    | 0.36257    | 0.61846    | 0.8027     |  23.1 | 25.07
Bond    | 0.79418    | 0.88707    | 0.99187    |   8.3 | 35.96
Neigh   | 0.021127   | 0.021137   | 0.02115    |   0.0 |  0.86
Comm    | 0.56645    | 0.82219    | 1.1777     |  25.4 | 33.33
Output  | 0.00025696 | 0.00028497 | 0.00036104 |   0.0 |  0.01
Modify  | 0.074612   | 0.081708   | 0.088682   |   2.3 |  3.31
Other   |            | 0.03596    |            |       |  1.46

Nlocal:         120.25 ave         126 max         115 min
Histogram: 2 0 0 0 0 0 0 0 0 2
Nghost:        4154.75 ave        4182 max        4130 min
Histogram: 1 1 0 0 0 0 0 1 0 1
Neighs:              0 ave           0 max           0 min
Histogram: 4 0 0 0 0 0 0 0 0 0

Total # of neighbors = 0
Ave neighs/atom = 0
Ave special neighs/atom = 15.567568
Neighbor list builds = 23
Dangerous builds = 0
fix             myat1 all ave/time 100 10 1000 v_zave v_zdes file simulation_data/abpot/${cpt}.dat
fix             myat1 all ave/time 100 10 1000 v_zave v_zdes file simulation_data/abpot/101.dat
run             50000
Generated 0 of 1 mixed pair_coeff terms from geometric mixing rule
Per MPI rank memory allocation (min/avg/max) = 14.61 | 14.61 | 14.61 Mbytes
   Step          Temp          E_pair         E_mol          TotEng         Press     
   6030000   285.90703      373.5303       18515.274      19297.876     -399.35838    
   6031000   294.10652      374.27526      18492.583      19287.662     -235.47766    
   6032000   283.22919      371.9629       18503.05       19280.254     -451.21651    
   6033000   292.07659      371.26682      18488.034      19277.201     -359.36558    
   6034000   314.31134      376.53756      18467.526      19293.777     -149.76849    
   6035000   299.92256      371.00861      18507.201      19307.336     -590.49087    
   6036000   298.86512      370.54494      18515.728      19313.885     -290.01682    
   6037000   294.31991      372.68019      18524.907      19318.697     -300.37505    
   6038000   291.77081      369.13802      18536.471      19323.072     -388.41297    
   6039000   310.04672      372.93811      18508.171      19324.721     -353.85507    
   6040000   293.49957      370.50793      18528.135      19318.579     -426.37419    
   6041000   293.25104      372.45904      18529.957      19321.996     -579.14017    
   6042000   295.16024      373.71463      18518.455      19314.482     -348.68563    
   6043000   279.32156      373.8569       18535.401      19308.908     -270.49751    
   6044000   291.21126      367.14139      18516.342      19300.146     -451.7781     
   6045000   286.78309      375.72742      18487.105      19273.159     -270.21162    
   6046000   282.63144      376.41173      18480.401      19261.199     -135.97426    
   6047000   280.16288      368.91004      18499.046      19268.81      -489.34407    
   6048000   289.34181      372.98694      18497.226      19284.2       -266.87113    
   6049000   294.18501      373.62491      18502.088      19296.629     -456.02874    
   6050000   286.51301      373.00132      18528.128      19311.069     -296.13254    
   6051000   293.51865      370.32113      18531.441      19321.726     -573.17402    
   6052000   294.95081      370.98303      18523.643      19316.639     -503.23214    
   6053000   305.37168      375.91251      18507.209      19320.044     -172.94624    
   6054000   305.27554      372.85887      18515.453      19325.096     -366.14742    
   6055000   307.66832      370.99241      18513.066      19324.267     -481.05931    
   6056000   310.14539      370.53481      18495.407      19309.695     -391.21512    
   6057000   294.39647      375.12318      18495.872      19292.214     -233.25186    
   6058000   286.56466      373.38432      18492.795      19276.193     -387.34933    
   6059000   274.64874      366.00577      18512.774      19271.744     -613.0197     
   6060000   291.69174      372.05253      18495.619      19285.021     -288.82936    
   6061000   287.95853      376.79983      18513.089      19301.896     -175.93109    
   6062000   301.43637      367.45385      18522.241      19320.986     -555.92383    
   6063000   322.52027      370.11616      18503.716      19335.291     -492.16275    
   6064000   303.47621      376.62798      18526.348      19337.187     -303.66019    
   6065000   296.42944      374.05222      18521.552      19319.732     -211.32959    
   6066000   313.45705      370.82298      18505.004      19324.318     -379.3284     
   6067000   292.8999       373.76541      18524.415      19317.258     -276.80744    
   6068000   293.78336      371.43705      18507.418      19299.197     -508.27484    
   6069000   290.15785      381.30693      18493.976      19290.438     -69.623827    
   6070000   282.54232      368.41002      18513.363      19286.032     -500.71207    
   6071000   295.87191      368.18636      18492.548      19284.065     -524.24       
   6072000   295.70163      376.9676       18490.266      19290.32      -183.84016    
   6073000   308.96033      374.18089      18497.196      19313.434     -271.4255     
   6074000   299.88512      369.8084       18538.783      19337.664     -429.01878    
   6075000   300.32209      371.90896      18539.449      19341.055     -456.50257    
   6076000   308.19755      378.96083      18521.617      19341.543     -303.0181     
   6077000   299.19667      380.1232       18527.877      19336.088     -127.56632    
   6078000   304.58973      365.27332      18523.048      19324.124     -687.07771    
   6079000   317.09749      374.93313      18479.993      19308.626     -190.96545    
   6080000   301.85423      377.72017      18481.838      19291.447     -211.67295    
Loop time of 12.272 on 4 procs for 50000 steps with 481 atoms

Performance: 17.601 ns/day, 1.364 hours/ns, 4074.308 timesteps/s, 1.960 Matom-step/s
99.0% CPU use with 4 MPI tasks x no OpenMP threads

MPI task timing breakdown:
Section |  min time  |  avg time  |  max time  |%varavg| %total
---------------------------------------------------------------
Pair    | 1.8226     | 3.0827     | 3.9885     |  50.6 | 25.12
Bond    | 3.9741     | 4.4293     | 4.9284     |  18.1 | 36.09
Neigh   | 0.066067   | 0.066078   | 0.066089   |   0.0 |  0.54
Comm    | 2.8824     | 4.144      | 5.8517     |  54.6 | 33.77
Output  | 0.0016591  | 0.0024942  | 0.002808   |   1.0 |  0.02
Modify  | 0.36198    | 0.36447    | 0.36816    |   0.4 |  2.97
Other   |            | 0.1831     |            |       |  1.49

Nlocal:         120.25 ave         130 max         111 min
Histogram: 2 0 0 0 0 0 0 0 1 1
Nghost:        4177.25 ave        4205 max        4148 min
Histogram: 1 0 1 0 0 0 0 0 1 1
Neighs:              0 ave           0 max           0 min
Histogram: 4 0 0 0 0 0 0 0 0 0

Total # of neighbors = 0
Ave neighs/atom = 0
Ave special neighs/atom = 15.567568
Neighbor list builds = 72
Dangerous builds = 0
unfix           myat1
next            cpt
jump            SELF loop

Total wall time: 0:25:48
