
     Program PWSCF v.7.3.1 starts on  7Aug2024 at 12:33:55 

     This program is part of the open-source Quantum ESPRESSO suite
     for quantum simulation of materials; please cite
         "P. Giannozzi et al., J. Phys.:Condens. Matter 21 395502 (2009);
         "P. Giannozzi et al., J. Phys.:Condens. Matter 29 465901 (2017);
         "P. Giannozzi et al., J. Chem. Phys. 152 154105 (2020);
          URL http://www.quantum-espresso.org", 
     in publications or presentations arising from this work. More details at
     http://www.quantum-espresso.org/quote

     Parallel version (MPI & OpenMP), running on       4 processor cores
     Number of MPI processes:                 2
     Threads/MPI process:                     2

     MPI processes distributed on     1 nodes
     3901 MiB available memory on the printing compute node when the environment starts

     Reading input from hydrogen_absorption6.in

     Current dimensions of program PWSCF are:
     Max number of different atomic species (ntypx) = 10
     Max number of k-points (npk) =  40000
     Max angular momentum in pseudopotentials (lmaxx) =  4

     IMPORTANT: XC functional enforced from input :
     Exchange-correlation= LDA
                           (   1   1   0   0   0   0   0)
     Any further DFT definition will be discarded
     Please, verify this is what you really want


     R & G space division:  proc/nbgrp/npool/nimage =       2
     Subspace diagonalization in iterative solution of the eigenvalue problem:
     a serial algorithm will be used


     Parallelization info
     --------------------
     sticks:   dense  smooth     PW     G-vecs:    dense   smooth      PW
     Min         882     351     84                59496    14997    1857
     Max         883     352     85                59501    15000    1858
     Sum        1765     703    169               118997    29997    3715

     Using Slab Decomposition


     Title: 
     6H2_absorption_C                                                           


     bravais-lattice index     =            4
     lattice parameter (alat)  =       8.0000  a.u.
     unit-cell volume          =     880.6989 (a.u.)^3
     number of atoms/cell      =           36
     number of atomic types    =            2
     number of electrons       =       108.00
     number of Kohn-Sham states=           65
     kinetic-energy cutoff     =      40.0000  Ry
     charge density cutoff     =     400.0000  Ry
     scf convergence threshold =      1.0E-06
     mixing beta               =       0.0500
     number of iterations used =            8  local-TF  mixing
     energy convergence thresh.=      1.0E-04
     force convergence thresh. =      1.0E-03
     press convergence thresh. =      5.0E-01
     Exchange-correlation= LDA
                           (   1   1   0   0   0   0   0)
     nstep                     =           50


     celldm(1)=   8.000004  celldm(2)=   0.000000  celldm(3)=   1.986214
     celldm(4)=   0.000000  celldm(5)=   0.000000  celldm(6)=   0.000000

     crystal axes: (cart. coord. in units of alat)
               a(1) = (   1.000000   0.000000   0.000000 )  
               a(2) = (  -0.500000   0.866025   0.000000 )  
               a(3) = (   0.000000   0.000000   1.986214 )  

     reciprocal axes: (cart. coord. in units 2 pi/alat)
               b(1) = (  1.000000  0.577350 -0.000000 )  
               b(2) = (  0.000000  1.154701  0.000000 )  
               b(3) = (  0.000000 -0.000000  0.503470 )  


     PseudoPot. # 1 for C  read from file:
     /home/edoardocabiati/.burai/.pseudopot/C.pz-n-rrkjus_psl.0.1.UPF
     MD5 check sum: a3cecbabebb5b3a1aff122f23eb09bb0
     Pseudo is Ultrasoft + core correction, Zval =  4.0
     Generated using "atomic" code by A. Dal Corso  v.5.0.2 svn rev. 9415
     Using radial grid of 1073 points,  4 beta functions with: 
                l(1) =   0
                l(2) =   0
                l(3) =   1
                l(4) =   1
     Q(r) pseudized with 0 coefficients 


     PseudoPot. # 2 for H  read from file:
     /home/edoardocabiati/.burai/.pseudopot/H.pz-rrkjus_psl.0.1.UPF
     MD5 check sum: 1467ebfaa2880178e80d097b970df8c7
     Pseudo is Ultrasoft, Zval =  1.0
     Generated using "atomic" code by A. Dal Corso  v.5.0.2 svn rev. 9415
     Using radial grid of  929 points,  2 beta functions with: 
                l(1) =   0
                l(2) =   0
     Q(r) pseudized with 0 coefficients 


     atomic species   valence    mass     pseudopotential
     C                 4.00    12.01100     C ( 1.00)
     H                 1.00     1.00784     H ( 1.00)

     No symmetry found



   Cartesian axes

     site n.     atom                  positions (alat units)
         1        C      tau(   1) = (   0.0000039  -0.0000409   0.3522978  )
         2        C      tau(   2) = (  -0.0000038  -0.0000509   0.8197181  )
         3        C      tau(   3) = (  -0.0000183   0.0000392   1.7098782  )
         4        C      tau(   4) = (  -0.0000303   0.2886302   0.3440591  )
         5        C      tau(   5) = (   0.2500694   0.1443432   0.8297332  )
         6        C      tau(   6) = (  -0.0000169   0.2887832   1.7148228  )
         7        C      tau(   7) = (   0.5000310   0.0000323   0.3522036  )
         8        C      tau(   8) = (   0.5000575  -0.0001029   0.8197827  )
         9        C      tau(   9) = (   0.4999930   0.0000117   1.7125059  )
        10        C      tau(  10) = (   0.5000014   0.2886465   0.3440516  )
        11        C      tau(  11) = (   0.7500625   0.1442031   0.8281523  )
        12        C      tau(  12) = (   0.4999549   0.2887452   1.7153831  )
        13        C      tau(  13) = (  -0.2499519   0.4330132   0.3523383  )
        14        C      tau(  14) = (  -0.2498875   0.4329190   0.8168950  )
        15        C      tau(  15) = (  -0.2500296   0.4330938   1.7145959  )
        16        C      tau(  16) = (  -0.2499911   0.7216375   0.3456185  )
        17        C      tau(  17) = (   0.0001859   0.5773607   0.8237994  )
        18        C      tau(  18) = (  -0.2499748   0.7217615   1.7289054  )
        19        C      tau(  19) = (   0.2499931   0.4329440   0.3520959  )
        20        C      tau(  20) = (   0.2501224   0.4330531   0.8219465  )
        21        C      tau(  21) = (   0.2499371   0.4330409   1.7341894  )
        22        C      tau(  22) = (   0.2499556   0.7216332   0.3456049  )
        23        C      tau(  23) = (   0.5001088   0.5773850   0.8238656  )
        24        C      tau(  24) = (   0.2499425   0.7215672   1.7204350  )
        25        H      tau(  25) = (   0.2553107   1.0961922   1.3526327  )
        26        H      tau(  26) = (   0.2405363   0.9328617   1.3521174  )
        27        H      tau(  27) = (  -0.0206128   0.5843907   1.3411487  )
        28        H      tau(  28) = (   0.1464855   0.5231213   1.2850011  )
        29        H      tau(  29) = (   0.4860665   0.5843698   1.3453052  )
        30        H      tau(  30) = (   0.3327070   0.5029733   1.2716514  )
        31        H      tau(  31) = (   0.1687051   0.1378554   1.3648465  )
        32        H      tau(  32) = (   0.3320643   0.1634127   1.3606225  )
        33        H      tau(  33) = (  -0.3496911   0.6385869   1.2561559  )
        34        H      tau(  34) = (  -0.1713801   0.6723504   1.2473330  )
        35        H      tau(  35) = (   0.3500000   0.7794229   1.2910394  )
        36        H      tau(  36) = (   0.2000000   0.7794229   1.2910394  )

     number of k points=     1  Gaussian smearing, width (Ry)=  0.0100
                       cart. coord. in units 2pi/alat
        k(    1) = (   0.0000000   0.0000000   0.0000000), wk =   2.0000000

     Dense  grid:   118997 G-vectors     FFT dimensions: (  54,  54, 108)

     Smooth grid:    29997 G-vectors     FFT dimensions: (  36,  36,  64)

     Estimated max dynamical RAM per process >     149.99 MB

     Estimated total dynamical RAM >     299.97 MB

     Check: negative core charge=   -0.000003

     Initial potential from superposition of free atoms

     starting charge     107.9990, renormalised to     108.0000
     Starting wfcs are  108 randomized atomic wfcs

     total cpu time spent up to now is        3.2 secs

     Self-consistent Calculation

     iteration #  1     ecut=    40.00 Ry     beta= 0.05
     Davidson diagonalization with overlap
     ethr =  1.00E-02,  avg # of iterations =  5.0

     total cpu time spent up to now is       10.7 secs

     total energy              =    -297.07661786 Ry
     estimated scf accuracy    <       5.88639528 Ry

     iteration #  2     ecut=    40.00 Ry     beta= 0.05
     Davidson diagonalization with overlap
     ethr =  5.45E-03,  avg # of iterations =  1.0

     total cpu time spent up to now is       12.8 secs

     total energy              =    -294.95000044 Ry
     estimated scf accuracy    <       5.83145141 Ry

     iteration #  3     ecut=    40.00 Ry     beta= 0.05
     Davidson diagonalization with overlap
     ethr =  5.40E-03,  avg # of iterations =  1.0

     total cpu time spent up to now is       15.3 secs

     total energy              =    -293.84813632 Ry
     estimated scf accuracy    <       2.03589938 Ry

     iteration #  4     ecut=    40.00 Ry     beta= 0.05
     Davidson diagonalization with overlap
     ethr =  1.89E-03,  avg # of iterations =  2.0

     total cpu time spent up to now is       18.0 secs

     total energy              =    -294.32146876 Ry
     estimated scf accuracy    <       0.08175594 Ry

     iteration #  5     ecut=    40.00 Ry     beta= 0.05
     Davidson diagonalization with overlap
     ethr =  7.57E-05,  avg # of iterations = 12.0

     total cpu time spent up to now is       20.8 secs

     total energy              =    -294.36431047 Ry
     estimated scf accuracy    <       0.16392399 Ry

     iteration #  6     ecut=    40.00 Ry     beta= 0.05
     Davidson diagonalization with overlap
     ethr =  7.57E-05,  avg # of iterations =  1.0

     total cpu time spent up to now is       22.5 secs

     total energy              =    -294.24600894 Ry
     estimated scf accuracy    <       0.19177451 Ry

     iteration #  7     ecut=    40.00 Ry     beta= 0.05
     Davidson diagonalization with overlap
     ethr =  7.57E-05,  avg # of iterations =  3.0

     total cpu time spent up to now is       24.7 secs

     total energy              =    -294.28042402 Ry
     estimated scf accuracy    <       0.00279366 Ry

     iteration #  8     ecut=    40.00 Ry     beta= 0.05
     Davidson diagonalization with overlap
     ethr =  2.59E-06,  avg # of iterations =  6.0

     total cpu time spent up to now is       27.8 secs

     total energy              =    -294.28286473 Ry
     estimated scf accuracy    <       0.00298982 Ry

     iteration #  9     ecut=    40.00 Ry     beta= 0.05
     Davidson diagonalization with overlap
     ethr =  2.59E-06,  avg # of iterations =  1.0

     total cpu time spent up to now is       29.4 secs

     total energy              =    -294.28203861 Ry
     estimated scf accuracy    <       0.00264584 Ry

     iteration # 10     ecut=    40.00 Ry     beta= 0.05
     Davidson diagonalization with overlap
     ethr =  2.45E-06,  avg # of iterations =  2.0

     total cpu time spent up to now is       31.5 secs

     total energy              =    -294.28226028 Ry
     estimated scf accuracy    <       0.00056407 Ry

     iteration # 11     ecut=    40.00 Ry     beta= 0.05
     Davidson diagonalization with overlap
     ethr =  5.22E-07,  avg # of iterations =  2.0

     total cpu time spent up to now is       33.4 secs

     total energy              =    -294.28227116 Ry
     estimated scf accuracy    <       0.00054580 Ry

     iteration # 12     ecut=    40.00 Ry     beta= 0.05
     Davidson diagonalization with overlap
     ethr =  5.05E-07,  avg # of iterations =  1.0

     total cpu time spent up to now is       35.3 secs

     total energy              =    -294.28207804 Ry
     estimated scf accuracy    <       0.00045107 Ry

     iteration # 13     ecut=    40.00 Ry     beta= 0.05
     Davidson diagonalization with overlap
     ethr =  4.18E-07,  avg # of iterations =  2.0

     total cpu time spent up to now is       37.9 secs

     total energy              =    -294.28215602 Ry
     estimated scf accuracy    <       0.00008384 Ry

     iteration # 14     ecut=    40.00 Ry     beta= 0.05
     Davidson diagonalization with overlap
     ethr =  7.76E-08,  avg # of iterations =  4.0

     total cpu time spent up to now is       41.9 secs

     total energy              =    -294.28216365 Ry
     estimated scf accuracy    <       0.00008463 Ry

     iteration # 15     ecut=    40.00 Ry     beta= 0.05
     Davidson diagonalization with overlap
     ethr =  7.76E-08,  avg # of iterations =  1.0

     total cpu time spent up to now is       45.8 secs

     total energy              =    -294.28213675 Ry
     estimated scf accuracy    <       0.00006321 Ry

     iteration # 16     ecut=    40.00 Ry     beta= 0.05
     Davidson diagonalization with overlap
     ethr =  5.85E-08,  avg # of iterations =  4.0

     total cpu time spent up to now is       48.5 secs

     total energy              =    -294.28214262 Ry
     estimated scf accuracy    <       0.00003056 Ry

     iteration # 17     ecut=    40.00 Ry     beta= 0.05
     Davidson diagonalization with overlap
     ethr =  2.83E-08,  avg # of iterations =  2.0

     total cpu time spent up to now is       50.6 secs

     total energy              =    -294.28214777 Ry
     estimated scf accuracy    <       0.00001417 Ry

     iteration # 18     ecut=    40.00 Ry     beta= 0.05
     Davidson diagonalization with overlap
     ethr =  1.31E-08,  avg # of iterations =  2.0

     total cpu time spent up to now is       55.4 secs

     total energy              =    -294.28214374 Ry
     estimated scf accuracy    <       0.00001488 Ry

     iteration # 19     ecut=    40.00 Ry     beta= 0.05
     Davidson diagonalization with overlap
     ethr =  1.31E-08,  avg # of iterations =  2.0

     total cpu time spent up to now is       58.1 secs

     total energy              =    -294.28214263 Ry
     estimated scf accuracy    <       0.00000695 Ry

     iteration # 20     ecut=    40.00 Ry     beta= 0.05
     Davidson diagonalization with overlap
     ethr =  6.43E-09,  avg # of iterations =  2.0

     total cpu time spent up to now is       60.4 secs

     total energy              =    -294.28214427 Ry
     estimated scf accuracy    <       0.00000160 Ry

     iteration # 21     ecut=    40.00 Ry     beta= 0.05
     Davidson diagonalization with overlap
     ethr =  1.48E-09,  avg # of iterations =  2.0

     total cpu time spent up to now is       63.7 secs

     End of self-consistent calculation

          k = 0.0000 0.0000 0.0000 (  3715 PWs)   bands (ev):

   -10.3427  -8.9055  -7.5839  -4.4163  -2.8180  -2.7417  -2.7396  -2.5383
    -2.5253  -2.4969  -1.8709  -1.6545  -1.5344  -0.7055  -0.6744  -0.5827
    -0.4874  -0.3846  -0.3659   0.0722   0.0797   0.1462   0.7429   3.0196
     4.4222   6.2012   6.6044   6.6698   6.6916   6.7514   7.5009   7.5860
     7.6200   7.6302   7.6547   7.7018   7.7671   8.0010   9.2223   9.2528
     9.3557   9.9059  10.3761  11.5520  11.9171  11.9812  12.0832  12.1119
    12.5556  12.5677  12.8344  12.8827  13.4227  14.5846  16.6459  16.6850
    17.1723  17.3911  17.9934  18.3179  18.5910  18.8415  19.1366  20.0014
    22.2939

     the Fermi energy is    15.9200 ev

!    total energy              =    -294.28214490 Ry
     estimated scf accuracy    <       0.00000091 Ry
     smearing contrib. (-TS)   =      -0.00000000 Ry
     internal energy E=F+TS    =    -294.28214490 Ry

     The total energy is F=E-TS. E is the sum of the following terms:
     one-electron contribution =      17.20064510 Ry
     hartree contribution      =      77.88559343 Ry
     xc contribution           =    -119.92085747 Ry
     ewald contribution        =    -269.44752596 Ry

     convergence has been achieved in  21 iterations

     Forces acting on atoms (cartesian axes, Ry/au):

     atom    1 type  1   force =     0.00729935   -0.01213133   -0.00785158
     atom    2 type  1   force =     0.00433376    0.00845086    0.00797688
     atom    3 type  1   force =    -0.03125158   -0.05711221   -0.02542325
     atom    4 type  1   force =     0.00256704    0.01829213   -0.04242067
     atom    5 type  1   force =    -0.00131398   -0.00142485    0.04718748
     atom    6 type  1   force =     0.05567126    0.06831886    0.00198409
     atom    7 type  1   force =    -0.00858417   -0.01055861   -0.00756832
     atom    8 type  1   force =    -0.00196571    0.00970166    0.00319494
     atom    9 type  1   force =     0.01081424   -0.05004744   -0.02967189
     atom   10 type  1   force =     0.00493205    0.02334314   -0.04241856
     atom   11 type  1   force =    -0.00301593    0.02916952    0.04964010
     atom   12 type  1   force =    -0.06260481    0.06691788    0.01416747
     atom   13 type  1   force =    -0.00676789   -0.00479654    0.00488936
     atom   14 type  1   force =     0.00186792   -0.02482193    0.01100508
     atom   15 type  1   force =    -0.00287759    0.06531961    0.02818637
     atom   16 type  1   force =    -0.00086881    0.00516791   -0.03453300
     atom   17 type  1   force =    -0.00129564   -0.00010935    0.01832187
     atom   18 type  1   force =     0.00452845   -0.03064488    0.09489408
     atom   19 type  1   force =     0.00036195   -0.00039094    0.00572781
     atom   20 type  1   force =     0.00067064   -0.00816759    0.01065133
     atom   21 type  1   force =     0.00058573   -0.04780405    0.12595245
     atom   22 type  1   force =     0.00307629   -0.00862901   -0.03098462
     atom   23 type  1   force =    -0.00180081   -0.00039455    0.01825187
     atom   24 type  1   force =     0.01548672    0.04036507    0.09453387
     atom   25 type  2   force =    -0.00212423    0.37801622   -0.02862450
     atom   26 type  2   force =    -0.02410131    0.14637165    0.08889006
     atom   27 type  2   force =    -0.06660937   -0.03391517    0.05238855
     atom   28 type  2   force =    -0.02889948   -0.13830445   -0.03278335
     atom   29 type  2   force =     0.07321576   -0.07743623    0.07439380
     atom   30 type  2   force =     0.03433902   -0.19662356   -0.05447631
     atom   31 type  2   force =    -0.15717692   -0.02304587   -0.01259495
     atom   32 type  2   force =     0.16259292    0.03214271   -0.02323583
     atom   33 type  2   force =    -0.00425486   -0.00876062   -0.03832785
     atom   34 type  2   force =     0.03389480    0.06166175   -0.04501657
     atom   35 type  2   force =     0.35062574   -0.03374740   -0.12224291
     atom   36 type  2   force =    -0.36135055   -0.18437239   -0.17406330

     Total force =     0.840508     Total SCF correction =     0.004097


     Computing stress (Cartesian axis) and pressure

          total   stress  (Ry/bohr**3)                   (kbar)     P=     3431.46
   0.03227580  -0.00001777  -0.00001703         4747.93       -2.61       -2.50
  -0.00001777   0.03326568   0.00021640           -2.61     4893.55       31.83
  -0.00001703   0.00021640   0.00443827           -2.50       31.83      652.89


     BFGS Geometry Optimization
     Energy error            =      0.0E+00 Ry
     Gradient error          =      3.8E-01 Ry/Bohr
     Cell gradient error     =      4.9E+03 kbar

     number of scf cycles    =   1
     number of bfgs steps    =   0

     enthalpy           new  =    -294.2821448959 Ry

     new trust radius        =       0.5000000000 bohr
     new conv_thr            =       0.0000010000 Ry

     new unit-cell volume =   1044.54370 a.u.^3 (   154.78541 Ang^3 )
     density =      3.22224 g/cm^3

CELL_PARAMETERS (alat=  8.00000437)
   1.081733025  -0.000044992  -0.000043120
  -0.540905477   0.939001658   0.000496143
  -0.000085645   0.001088449   2.008537850

ATOMIC_POSITIONS (crystal)
C               -0.0000197583       -0.0000472688        0.1773214454    0   0   1
C               -0.0000332330       -0.0000587998        0.4127545589    0   0   1
C                0.0000043586        0.0000453183        0.8607108548    0   0   1
C                0.1666103791        0.3332814083        0.1729531076    0   0   1
C                0.3334059508        0.1666731310        0.4180468569    0   0   1
C                0.1667121410        0.3334581567        0.8633749880    0   0   1
C                0.5000496492        0.0000372771        0.1772758099    0   0   1
C                0.4999980619       -0.0001188737        0.4127565996    0   0   1
C                0.4999997820        0.0000135241        0.8620067385    0   0   1
C                0.6666515428        0.3333002179        0.1729493330    0   0   1
C                0.8333181566        0.1665114042        0.4172665147    0   0   1
C                0.6666620457        0.3334142715        0.8637347466    0   0   1
C                0.0000483305        0.5000005365        0.1774230476    0   0   1
C                0.0000584330        0.4998918334        0.4113525060    0   0   1
C                0.0000171813        0.5000936263        0.8634278199    0   0   1
C                0.1666464640        0.8332751803        0.1737884955    0   0   1
C                0.3335252847        0.6666786730        0.4148753287    0   0   1
C                0.1667343348        0.8334183530        0.8710574509    0   0   1
C                0.4999534232        0.4999206517        0.1773063602    0   0   1
C                0.5001457261        0.5000466231        0.4138935462    0   0   1
C                0.4999533334        0.5000325136        0.8739158063    0   0   1
C                0.6665906946        0.8332702328        0.1738043071    0   0   1
C                0.8334621594        0.6667068137        0.4149082278    0   0   1
C                0.6665395860        0.8331940839        0.8667905509    0   0   1
H                0.8909340837        1.2713004643        0.6808279394
H                0.7798890590        1.0793158935        0.6813175980
H                0.3156939996        0.6743004529        0.6755624872
H                0.4471328058        0.6020263848        0.6467509308
H                0.8238134937        0.6736400050        0.6777954404
H                0.6220962435        0.5779088280        0.6398914412
H                0.2461373577        0.1588447436        0.6870793778
H                0.4287043370        0.1891626568        0.6848848814
H                0.0188792929        0.7372485068        0.6321928870
H                0.2176815081        0.7772648648        0.6277081447
H                0.8041928003        0.8995065990        0.6492207301
H                0.6440769049        0.8973043990        0.6488903873



     Writing config-only to output data dir ../results/6h2_abs/6H2abs_C.save/ :
     XML data file
     NEW-OLD atomic charge density approx. for the potential

     Check: negative core charge=   -0.000002

     total cpu time spent up to now is       69.2 secs

     Self-consistent Calculation

     iteration #  1     ecut=    40.00 Ry     beta= 0.05
     Davidson diagonalization with overlap
     c_bands:  1 eigenvalues not converged
     ethr =  1.00E-06,  avg # of iterations = 20.0

     total cpu time spent up to now is       81.1 secs

     total energy              =    -297.68681203 Ry
     estimated scf accuracy    <       0.22171618 Ry

     iteration #  2     ecut=    40.00 Ry     beta= 0.05
     Davidson diagonalization with overlap
     ethr =  2.05E-04,  avg # of iterations =  1.0

     total cpu time spent up to now is       83.4 secs

     total energy              =    -297.56330616 Ry
     estimated scf accuracy    <       0.20700780 Ry

     iteration #  3     ecut=    40.00 Ry     beta= 0.05
     Davidson diagonalization with overlap
     ethr =  1.92E-04,  avg # of iterations =  2.0

     total cpu time spent up to now is       85.6 secs

     total energy              =    -297.59701229 Ry
     estimated scf accuracy    <       0.00604638 Ry

     iteration #  4     ecut=    40.00 Ry     beta= 0.05
     Davidson diagonalization with overlap
     ethr =  5.60E-06,  avg # of iterations = 11.0

     total cpu time spent up to now is       89.7 secs

     total energy              =    -297.60128736 Ry
     estimated scf accuracy    <       0.00496594 Ry

     iteration #  5     ecut=    40.00 Ry     beta= 0.05
     Davidson diagonalization with overlap
     ethr =  4.60E-06,  avg # of iterations =  2.0

     total cpu time spent up to now is       91.8 secs

     total energy              =    -297.59837723 Ry
     estimated scf accuracy    <       0.00767565 Ry

     iteration #  6     ecut=    40.00 Ry     beta= 0.05
     Davidson diagonalization with overlap
     ethr =  4.60E-06,  avg # of iterations =  9.0

     total cpu time spent up to now is       94.1 secs

     total energy              =    -297.59962788 Ry
     estimated scf accuracy    <       0.00103674 Ry

     iteration #  7     ecut=    40.00 Ry     beta= 0.05
     Davidson diagonalization with overlap
     ethr =  9.60E-07,  avg # of iterations =  2.0

     total cpu time spent up to now is       97.8 secs

     total energy              =    -297.59929487 Ry
     estimated scf accuracy    <       0.00144095 Ry

     iteration #  8     ecut=    40.00 Ry     beta= 0.05
     Davidson diagonalization with overlap
     ethr =  9.60E-07,  avg # of iterations =  1.0

     total cpu time spent up to now is       99.9 secs

     total energy              =    -297.59921172 Ry
     estimated scf accuracy    <       0.00056066 Ry

     iteration #  9     ecut=    40.00 Ry     beta= 0.05
     Davidson diagonalization with overlap
     ethr =  5.19E-07,  avg # of iterations =  2.0

     total cpu time spent up to now is      102.5 secs

     total energy              =    -297.59929709 Ry
     estimated scf accuracy    <       0.00021918 Ry

     iteration # 10     ecut=    40.00 Ry     beta= 0.05
     Davidson diagonalization with overlap
     ethr =  2.03E-07,  avg # of iterations =  1.0

     total cpu time spent up to now is      105.1 secs

     total energy              =    -297.59920145 Ry
     estimated scf accuracy    <       0.00022404 Ry

     iteration # 11     ecut=    40.00 Ry     beta= 0.05
     Davidson diagonalization with overlap
     ethr =  2.03E-07,  avg # of iterations =  2.0

     total cpu time spent up to now is      109.4 secs

     total energy              =    -297.59922930 Ry
     estimated scf accuracy    <       0.00008220 Ry

     iteration # 12     ecut=    40.00 Ry     beta= 0.05
     Davidson diagonalization with overlap
     ethr =  7.61E-08,  avg # of iterations =  2.0

     total cpu time spent up to now is      111.7 secs

     total energy              =    -297.59922799 Ry
     estimated scf accuracy    <       0.00004005 Ry

     iteration # 13     ecut=    40.00 Ry     beta= 0.05
     Davidson diagonalization with overlap
     ethr =  3.71E-08,  avg # of iterations =  2.0

     total cpu time spent up to now is      114.5 secs

     total energy              =    -297.59923081 Ry
     estimated scf accuracy    <       0.00001895 Ry

     iteration # 14     ecut=    40.00 Ry     beta= 0.05
     Davidson diagonalization with overlap
     ethr =  1.75E-08,  avg # of iterations =  2.0

     total cpu time spent up to now is      117.5 secs

     total energy              =    -297.59922660 Ry
     estimated scf accuracy    <       0.00001247 Ry

     iteration # 15     ecut=    40.00 Ry     beta= 0.05
     Davidson diagonalization with overlap
     ethr =  1.15E-08,  avg # of iterations =  3.0

     total cpu time spent up to now is      120.0 secs

     total energy              =    -297.59922969 Ry
     estimated scf accuracy    <       0.00000489 Ry

     iteration # 16     ecut=    40.00 Ry     beta= 0.05
     Davidson diagonalization with overlap
     ethr =  4.53E-09,  avg # of iterations =  1.0

     total cpu time spent up to now is      122.6 secs

     total energy              =    -297.59922929 Ry
     estimated scf accuracy    <       0.00000328 Ry

     iteration # 17     ecut=    40.00 Ry     beta= 0.05
     Davidson diagonalization with overlap
     ethr =  3.04E-09,  avg # of iterations =  2.0

     total cpu time spent up to now is      125.9 secs

     total energy              =    -297.59922960 Ry
     estimated scf accuracy    <       0.00000120 Ry

     iteration # 18     ecut=    40.00 Ry     beta= 0.05
     Davidson diagonalization with overlap
     ethr =  1.12E-09,  avg # of iterations =  2.0

     total cpu time spent up to now is      129.7 secs

     End of self-consistent calculation

          k = 0.0000 0.0000 0.0000 (  3715 PWs)   bands (ev):

   -10.8756  -9.2916  -8.1630  -4.5893  -4.2082  -4.1915  -4.1497  -3.8492
    -3.8260  -3.7512  -2.6701  -2.5824  -2.4965  -2.4070  -2.3637  -2.3126
    -1.8718  -1.8292  -1.7902  -1.7526  -1.7210  -1.6676   0.1764   2.0167
     3.4571   4.4345   4.4995   4.5188   4.5646   4.9594   5.4322   5.5380
     5.5519   5.5763   5.6955   5.7359   6.5502   6.9072   7.1747   7.1768
     7.3155   7.8895   8.3179   8.9314   8.9509   9.4521   9.4744   9.4873
     9.6793   9.7963   9.9038   9.9636  11.4248  12.4145  14.1319  14.1592
    14.5390  14.7119  15.1043  15.3278  15.6825  16.1671  16.3364  17.2889
    19.6318

     the Fermi energy is    13.2044 ev

!    total energy              =    -297.59923340 Ry
     estimated scf accuracy    <       0.00000011 Ry
     smearing contrib. (-TS)   =      -0.00000000 Ry
     internal energy E=F+TS    =    -297.59923340 Ry

     The total energy is F=E-TS. E is the sum of the following terms:
     one-electron contribution =      16.53262700 Ry
     hartree contribution      =      67.86602325 Ry
     xc contribution           =    -114.40615626 Ry
     ewald contribution        =    -267.59172738 Ry

     convergence has been achieved in  18 iterations

     Forces acting on atoms (cartesian axes, Ry/au):

     atom    1 type  1   force =     0.00656271   -0.00868370   -0.01586369
     atom    2 type  1   force =     0.00246366    0.00403580    0.01761903
     atom    3 type  1   force =    -0.02444976   -0.03964575    0.01085237
     atom    4 type  1   force =     0.00278426    0.01250176   -0.04110429
     atom    5 type  1   force =    -0.00141799    0.00283555    0.04149155
     atom    6 type  1   force =     0.04120330    0.05465829    0.02123242
     atom    7 type  1   force =    -0.00731617   -0.00688887   -0.01517902
     atom    8 type  1   force =    -0.00045386    0.00506047    0.01235921
     atom    9 type  1   force =     0.01040248   -0.03836312    0.00142156
     atom   10 type  1   force =     0.00376114    0.01642762   -0.04060220
     atom   11 type  1   force =    -0.00212066    0.03016939    0.04339926
     atom   12 type  1   force =    -0.04750085    0.05580343    0.03285483
     atom   13 type  1   force =    -0.00582233    0.00005096   -0.00479306
     atom   14 type  1   force =     0.00170659   -0.02403882    0.01583339
     atom   15 type  1   force =    -0.00397996    0.05927593    0.04060369
     atom   16 type  1   force =    -0.00108827    0.00223926   -0.03704061
     atom   17 type  1   force =     0.00032068    0.00173967    0.02511210
     atom   18 type  1   force =     0.00552019   -0.03569531    0.04709157
     atom   19 type  1   force =     0.00022208    0.00405235   -0.00389983
     atom   20 type  1   force =    -0.00000948   -0.01012622    0.00873552
     atom   21 type  1   force =     0.00105341   -0.02954684    0.06005755
     atom   22 type  1   force =     0.00269739   -0.01092860   -0.03343127
     atom   23 type  1   force =    -0.00228629    0.00187739    0.02408572
     atom   24 type  1   force =     0.00974491    0.02616951    0.09769554
     atom   25 type  2   force =    -0.00535313    0.22377167   -0.03707930
     atom   26 type  2   force =    -0.00953688    0.12246735    0.04034293
     atom   27 type  2   force =    -0.03621017   -0.02575638    0.02369759
     atom   28 type  2   force =    -0.00814197   -0.09785638   -0.02337684
     atom   29 type  2   force =     0.03942573   -0.06107415    0.03765423
     atom   30 type  2   force =     0.01425710   -0.13440813   -0.03453991
     atom   31 type  2   force =    -0.06308527   -0.00975684   -0.01539205
     atom   32 type  2   force =     0.06611895    0.01253700   -0.01971133
     atom   33 type  2   force =     0.01742050   -0.00489336   -0.02696678
     atom   34 type  2   force =     0.00448743    0.03542203   -0.02820789
     atom   35 type  2   force =     0.14292906   -0.01690308   -0.09556923
     atom   36 type  2   force =    -0.15430854   -0.11652986   -0.12938275

     Total force =     0.483774     Total SCF correction =     0.000731


     Computing stress (Cartesian axis) and pressure

          total   stress  (Ry/bohr**3)                   (kbar)     P=     1337.76
   0.01130570  -0.00003903   0.00000509         1663.13       -5.74        0.75
  -0.00003903   0.01204382   0.00010905           -5.74     1771.71       16.04
   0.00000509   0.00010905   0.00393214            0.75       16.04      578.44

     Energy error            =      3.3E+00 Ry
     Gradient error          =      2.2E-01 Ry/Bohr
     Cell gradient error     =      1.8E+03 kbar

     number of scf cycles    =   2
     number of bfgs steps    =   1

     enthalpy           old  =    -294.2821448959 Ry
     enthalpy           new  =    -297.5992333965 Ry

     CASE: enthalpy          _new < enthalpy          _old

     new trust radius        =       0.8000000000 bohr
     new conv_thr            =       0.0000010000 Ry

     new unit-cell volume =   1291.47177 a.u.^3 (   191.37637 Ang^3 )
     density =      2.60615 g/cm^3

CELL_PARAMETERS (alat=  8.00000437)
   1.125923391  -0.001519981   0.000437911
  -0.564276007   0.993318470   0.001712623
   0.000930969   0.004739212   2.257105818

ATOMIC_POSITIONS (crystal)
C               -0.0000206460       -0.0000493245        0.1759513204    0   0   1
C               -0.0000322470       -0.0000565167        0.4143031674    0   0   1
C                0.0000049659        0.0000467246        0.8627614090    0   0   1
C                0.1666080789        0.3332760819        0.1702010730    0   0   1
C                0.3334082727        0.1666785076        0.4206669432    0   0   1
C                0.1667133292        0.3334609080        0.8655169777    0   0   1
C                0.5000487998        0.0000353102        0.1759668301    0   0   1
C                0.4999987535       -0.0001172722        0.4139296845    0   0   1
C                0.4999998616        0.0000137083        0.8632276172    0   0   1
C                0.6666492707        0.3332949566        0.1702495707    0   0   1
C                0.8333205853        0.1665170280        0.4199968372    0   0   1
C                0.6666638843        0.3334185289        0.8666480622    0   0   1
C                0.0000480623        0.4999999154        0.1767465622    0   0   1
C                0.0000593191        0.4998938851        0.4126054701    0   0   1
C                0.0000194535        0.5000988878        0.8666422440    0   0   1
C                0.1666443912        0.8332703805        0.1711749978    0   0   1
C                0.3335266900        0.6666819271        0.4168311931    0   0   1
C                0.1667369701        0.8334244552        0.8725367646    0   0   1
C                0.4999532050        0.4999201464        0.1766926940    0   0   1
C                0.5001462149        0.5000477551        0.4144192664    0   0   1
C                0.4999566943        0.5000402960        0.8756241804    0   0   1
C                0.6665888238        0.8332659007        0.1714388463    0   0   1
C                0.8334635073        0.6667099348        0.4167596106    0   0   1
C                0.6665450531        0.8332067435        0.8735589144    0   0   1
H                0.9029113699        1.2973251111        0.6780094775
H                0.7891395134        1.0985838941        0.6823173043
H                0.3105614548        0.6705123643        0.6761380374
H                0.4405930585        0.5884017455        0.6454932901
H                0.8226734213        0.6644064374        0.6790282845
H                0.6137092459        0.5597465734        0.6382519810
H                0.2431526957        0.1582526993        0.6859296328
H                0.4319494072        0.1897086747        0.6836701667
H                0.0227781452        0.7367166066        0.6307665316
H                0.2182244473        0.7812303041        0.6263965290
H                0.8099046847        0.8979570764        0.6436741743
H                0.6285403456        0.8826995722        0.6416874416



     Writing config-only to output data dir ../results/6h2_abs/6H2abs_C.save/ :
     XML data file
     NEW-OLD atomic charge density approx. for the potential

     Check: negative core charge=   -0.000004

     total cpu time spent up to now is      135.6 secs

     Self-consistent Calculation

     iteration #  1     ecut=    40.00 Ry     beta= 0.05
     Davidson diagonalization with overlap
     ethr =  1.00E-06,  avg # of iterations = 19.0

     total cpu time spent up to now is      144.7 secs

     total energy              =    -298.76456536 Ry
     estimated scf accuracy    <       0.12776507 Ry

     iteration #  2     ecut=    40.00 Ry     beta= 0.05
     Davidson diagonalization with overlap
     ethr =  1.18E-04,  avg # of iterations =  1.0

     total cpu time spent up to now is      146.4 secs

     total energy              =    -298.70336572 Ry
     estimated scf accuracy    <       0.11899550 Ry

     iteration #  3     ecut=    40.00 Ry     beta= 0.05
     Davidson diagonalization with overlap
     ethr =  1.10E-04,  avg # of iterations =  2.0

     total cpu time spent up to now is      148.4 secs

     total energy              =    -298.72097905 Ry
     estimated scf accuracy    <       0.00451728 Ry

     iteration #  4     ecut=    40.00 Ry     beta= 0.05
     Davidson diagonalization with overlap
     ethr =  4.18E-06,  avg # of iterations =  3.0

     total cpu time spent up to now is      152.4 secs

     total energy              =    -298.72220027 Ry
     estimated scf accuracy    <       0.00442145 Ry

     iteration #  5     ecut=    40.00 Ry     beta= 0.05
     Davidson diagonalization with overlap
     ethr =  4.09E-06,  avg # of iterations =  1.0

     total cpu time spent up to now is      155.5 secs

     total energy              =    -298.72129495 Ry
     estimated scf accuracy    <       0.00414989 Ry

     iteration #  6     ecut=    40.00 Ry     beta= 0.05
     Davidson diagonalization with overlap
     ethr =  3.84E-06,  avg # of iterations =  2.0

     total cpu time spent up to now is      158.0 secs

     total energy              =    -298.72099583 Ry
     estimated scf accuracy    <       0.00190522 Ry

     iteration #  7     ecut=    40.00 Ry     beta= 0.05
     Davidson diagonalization with overlap
     ethr =  1.76E-06,  avg # of iterations =  4.0

     total cpu time spent up to now is      161.6 secs

     total energy              =    -298.72117144 Ry
     estimated scf accuracy    <       0.00051870 Ry

     iteration #  8     ecut=    40.00 Ry     beta= 0.05
     Davidson diagonalization with overlap
     ethr =  4.80E-07,  avg # of iterations =  1.0

     total cpu time spent up to now is      163.1 secs

     total energy              =    -298.72104524 Ry
     estimated scf accuracy    <       0.00038615 Ry

     iteration #  9     ecut=    40.00 Ry     beta= 0.05
     Davidson diagonalization with overlap
     ethr =  3.58E-07,  avg # of iterations =  2.0

     total cpu time spent up to now is      164.9 secs

     total energy              =    -298.72112454 Ry
     estimated scf accuracy    <       0.00012330 Ry

     iteration # 10     ecut=    40.00 Ry     beta= 0.05
     Davidson diagonalization with overlap
     ethr =  1.14E-07,  avg # of iterations =  2.0

     total cpu time spent up to now is      166.6 secs

     total energy              =    -298.72113711 Ry
     estimated scf accuracy    <       0.00006284 Ry

     iteration # 11     ecut=    40.00 Ry     beta= 0.05
     Davidson diagonalization with overlap
     ethr =  5.82E-08,  avg # of iterations =  1.0

     total cpu time spent up to now is      168.1 secs

     total energy              =    -298.72113037 Ry
     estimated scf accuracy    <       0.00006080 Ry

     iteration # 12     ecut=    40.00 Ry     beta= 0.05
     Davidson diagonalization with overlap
     ethr =  5.63E-08,  avg # of iterations =  1.0

     total cpu time spent up to now is      169.7 secs

     total energy              =    -298.72111675 Ry
     estimated scf accuracy    <       0.00003863 Ry

     iteration # 13     ecut=    40.00 Ry     beta= 0.05
     Davidson diagonalization with overlap
     ethr =  3.58E-08,  avg # of iterations =  2.0

     total cpu time spent up to now is      171.4 secs

     total energy              =    -298.72112468 Ry
     estimated scf accuracy    <       0.00000579 Ry

     iteration # 14     ecut=    40.00 Ry     beta= 0.05
     Davidson diagonalization with overlap
     ethr =  5.36E-09,  avg # of iterations =  4.0

     total cpu time spent up to now is      173.2 secs

     total energy              =    -298.72112674 Ry
     estimated scf accuracy    <       0.00000656 Ry

     iteration # 15     ecut=    40.00 Ry     beta= 0.05
     Davidson diagonalization with overlap
     ethr =  5.36E-09,  avg # of iterations =  2.0

     total cpu time spent up to now is      174.8 secs

     total energy              =    -298.72112840 Ry
     estimated scf accuracy    <       0.00000853 Ry

     iteration # 16     ecut=    40.00 Ry     beta= 0.05
     Davidson diagonalization with overlap
     ethr =  5.36E-09,  avg # of iterations =  2.0

     total cpu time spent up to now is      176.6 secs

     total energy              =    -298.72112996 Ry
     estimated scf accuracy    <       0.00000794 Ry

     iteration # 17     ecut=    40.00 Ry     beta= 0.05
     Davidson diagonalization with overlap
     ethr =  5.36E-09,  avg # of iterations =  1.0

     total cpu time spent up to now is      178.1 secs

     total energy              =    -298.72113105 Ry
     estimated scf accuracy    <       0.00000613 Ry

     iteration # 18     ecut=    40.00 Ry     beta= 0.05
     Davidson diagonalization with overlap
     ethr =  5.36E-09,  avg # of iterations =  1.0

     total cpu time spent up to now is      179.7 secs

     total energy              =    -298.72113148 Ry
     estimated scf accuracy    <       0.00000563 Ry

     iteration # 19     ecut=    40.00 Ry     beta= 0.05
     Davidson diagonalization with overlap
     ethr =  5.21E-09,  avg # of iterations =  1.0

     total cpu time spent up to now is      181.2 secs

     total energy              =    -298.72113085 Ry
     estimated scf accuracy    <       0.00000454 Ry

     iteration # 20     ecut=    40.00 Ry     beta= 0.05
     Davidson diagonalization with overlap
     ethr =  4.20E-09,  avg # of iterations =  4.0

     total cpu time spent up to now is      182.9 secs

     End of self-consistent calculation

          k = 0.0000 0.0000 0.0000 (  3715 PWs)   bands (ev):

   -11.7140 -10.7692 -10.1323  -5.9497  -5.7282  -5.6808  -5.5272  -5.3090
    -5.2909  -5.1756  -5.0300  -4.9386  -4.7399  -4.4768  -4.4141  -4.3838
    -4.3615  -4.2930  -4.2763  -4.0859  -4.0579  -4.0325  -1.0652   0.8592
     1.3234   2.2165   2.2806   2.5663   2.6627   2.6740   2.7001   2.7759
     2.8069   2.8906   3.0709   3.1483   3.5600   3.9322   5.0261   5.2245
     5.2598   5.3652   5.9995   6.0834   6.1850   6.3754   6.4745   6.4790
     6.6729   6.9124   7.1060   7.3633   7.9651   8.5528  10.6292  10.7299
    10.9718  11.1721  11.5234  11.6887  11.9437  12.2211  12.3798  13.2048
    14.9250

     the Fermi energy is     9.8630 ev

!    total energy              =    -298.72113886 Ry
     estimated scf accuracy    <       0.00000049 Ry
     smearing contrib. (-TS)   =      -0.00000000 Ry
     internal energy E=F+TS    =    -298.72113886 Ry

     The total energy is F=E-TS. E is the sum of the following terms:
     one-electron contribution =     -26.31990476 Ry
     hartree contribution      =      77.64236085 Ry
     xc contribution           =    -110.36430540 Ry
     ewald contribution        =    -239.67928955 Ry

     convergence has been achieved in  20 iterations

     Forces acting on atoms (cartesian axes, Ry/au):

     atom    1 type  1   force =     0.00457880    0.01522407   -0.00927747
     atom    2 type  1   force =    -0.00251345   -0.01426085    0.01089990
     atom    3 type  1   force =    -0.00954770   -0.01423287    0.00903249
     atom    4 type  1   force =    -0.00033051   -0.00861348    0.02528876
     atom    5 type  1   force =     0.00234215    0.01775261   -0.02144810
     atom    6 type  1   force =     0.02506791    0.01552774   -0.00162411
     atom    7 type  1   force =    -0.00034304    0.01556612   -0.00856359
     atom    8 type  1   force =    -0.00211478   -0.01302083    0.00841408
     atom    9 type  1   force =     0.00823817   -0.00907605    0.00592855
     atom   10 type  1   force =    -0.00174635   -0.00569518    0.02532964
     atom   11 type  1   force =     0.00136736    0.03544754   -0.02502698
     atom   12 type  1   force =    -0.03366356    0.01426037    0.00740027
     atom   13 type  1   force =     0.00011596    0.01767921   -0.00741062
     atom   14 type  1   force =    -0.00187053   -0.03403324    0.01346216
     atom   15 type  1   force =    -0.00164483    0.05187887    0.02039546
     atom   16 type  1   force =    -0.00306621   -0.01617332    0.02478456
     atom   17 type  1   force =     0.00233261    0.01982761   -0.02101700
     atom   18 type  1   force =    -0.00182551   -0.03824362   -0.01082424
     atom   19 type  1   force =     0.00323430    0.01670049   -0.00656773
     atom   20 type  1   force =    -0.00263775   -0.02288410    0.00604722
     atom   21 type  1   force =     0.00398882   -0.00496341    0.01508161
     atom   22 type  1   force =    -0.00007015   -0.01953799    0.02546034
     atom   23 type  1   force =     0.00167669    0.02002845   -0.02009048
     atom   24 type  1   force =     0.00252217    0.00107569    0.00303341
     atom   25 type  2   force =    -0.01255632    0.08905872   -0.01490749
     atom   26 type  2   force =    -0.00464177    0.07259607    0.01178758
     atom   27 type  2   force =    -0.01465113   -0.01348949   -0.00380162
     atom   28 type  2   force =    -0.02228582   -0.05143197    0.00637017
     atom   29 type  2   force =     0.01602851   -0.04246330    0.00053147
     atom   30 type  2   force =     0.03326278   -0.07560884    0.00690152
     atom   31 type  2   force =     0.01171093   -0.00518024    0.00296794
     atom   32 type  2   force =    -0.00960153   -0.00084968    0.00195178
     atom   33 type  2   force =    -0.02554375   -0.01402074    0.00378428
     atom   34 type  2   force =     0.03352735    0.01910574    0.00101247
     atom   35 type  2   force =     0.02358149   -0.00006021   -0.03987745
     atom   36 type  2   force =    -0.02292131   -0.01788990   -0.04542877

     Total force =     0.200073     Total SCF correction =     0.001069


     Computing stress (Cartesian axis) and pressure

          total   stress  (Ry/bohr**3)                   (kbar)     P=      313.96
   0.00367051   0.00007867  -0.00001322          539.95       11.57       -1.94
   0.00007867   0.00268245   0.00003890           11.57      394.60        5.72
  -0.00001322   0.00003890   0.00004987           -1.94        5.72        7.34

     Energy error            =      1.1E+00 Ry
     Gradient error          =      8.9E-02 Ry/Bohr
     Cell gradient error     =      5.4E+02 kbar

     number of scf cycles    =   3
     number of bfgs steps    =   2

     enthalpy           old  =    -297.5992333965 Ry
     enthalpy           new  =    -298.7211388633 Ry

     CASE: enthalpy          _new < enthalpy          _old

     new trust radius        =       0.3050617144 bohr
     new conv_thr            =       0.0000008906 Ry

     new unit-cell volume =   1369.82953 a.u.^3 (   202.98779 Ang^3 )
     density =      2.45708 g/cm^3

CELL_PARAMETERS (alat=  8.00000437)
   1.173597738   0.001676516   0.000056118
  -0.585345372   0.995526715   0.002960365
   0.000062272   0.006836403   2.288036423

ATOMIC_POSITIONS (crystal)
C               -0.0000234602       -0.0000536982        0.1748349752    0   0   1
C               -0.0000289542       -0.0000514094        0.4156117195    0   0   1
C                0.0000076447        0.0000508414        0.8643237328    0   0   1
C                0.1666146278        0.3332854058        0.1722908701    0   0   1
C                0.3334028066        0.1666708039        0.4188590931    0   0   1
C                0.1667131559        0.3334608820        0.8658567756    0   0   1
C                0.5000461950        0.0000312564        0.1749288194    0   0   1
C                0.5000012788       -0.0001133679        0.4149618335    0   0   1
C                0.5000015439        0.0000162348        0.8643431515    0   0   1
C                0.6666558377        0.3333043131        0.1723555778    0   0   1
C                0.8333141403        0.1665078844        0.4178596208    0   0   1
C                0.6666663978        0.3334226400        0.8678983447    0   0   1
C                0.0000459192        0.4999966644        0.1758512257    0   0   1
C                0.0000633070        0.4999000104        0.4140541683    0   0   1
C                0.0000257164        0.5001086796        0.8690436992    0   0   1
C                0.1666508527        0.8332796185        0.1731780448    0   0   1
C                0.3335211269        0.6666738994        0.4151718834    0   0   1
C                0.1667345594        0.8334213730        0.8710058903    0   0   1
C                0.4999513102        0.4999172759        0.1758829685    0   0   1
C                0.5001480279        0.5000505565        0.4150085365    0   0   1
C                0.4999617250        0.5000484617        0.8762712091    0   0   1
C                0.6665955229        0.8332755328        0.1735309854    0   0   1
C                0.8334581905        0.6667022635        0.4151623041    0   0   1
C                0.6665472039        0.8332110233        0.8745778563    0   0   1
H                0.9090568969        1.3146740753        0.6762336530
H                0.7971786403        1.1156949272        0.6828453910
H                0.3067915829        0.6674293569        0.6754346222
H                0.4314353038        0.5770310758        0.6460785198
H                0.8202539653        0.6547081516        0.6786767103
H                0.6111370381        0.5433131551        0.6389934396
H                0.2471545545        0.1574828217        0.6860480685
H                0.4275539164        0.1889790045        0.6837768332
H                0.0176988230        0.7337673201        0.6311294298
H                0.2252644301        0.7849703205        0.6265992943
H                0.8094901335        0.8982664861        0.6397746427
H                0.6272937099        0.8792670822        0.6373505769



     Writing config-only to output data dir ../results/6h2_abs/6H2abs_C.save/ :
     XML data file
     NEW-OLD atomic charge density approx. for the potential

     Check: negative core charge=   -0.000005

     total cpu time spent up to now is      186.8 secs

     Self-consistent Calculation

     iteration #  1     ecut=    40.00 Ry     beta= 0.05
     Davidson diagonalization with overlap
     ethr =  1.00E-06,  avg # of iterations = 15.0

     total cpu time spent up to now is      192.1 secs

     total energy              =    -298.86217192 Ry
     estimated scf accuracy    <       0.02510261 Ry

     iteration #  2     ecut=    40.00 Ry     beta= 0.05
     Davidson diagonalization with overlap
     ethr =  2.32E-05,  avg # of iterations =  1.0

     total cpu time spent up to now is      193.6 secs

     total energy              =    -298.84850322 Ry
     estimated scf accuracy    <       0.02340240 Ry

     iteration #  3     ecut=    40.00 Ry     beta= 0.05
     Davidson diagonalization with overlap
     ethr =  2.17E-05,  avg # of iterations =  2.0

     total cpu time spent up to now is      196.0 secs

     total energy              =    -298.85227404 Ry
     estimated scf accuracy    <       0.00057748 Ry

     iteration #  4     ecut=    40.00 Ry     beta= 0.05
     Davidson diagonalization with overlap
     ethr =  5.35E-07,  avg # of iterations =  4.0

     total cpu time spent up to now is      197.9 secs

     total energy              =    -298.85240935 Ry
     estimated scf accuracy    <       0.00044052 Ry

     iteration #  5     ecut=    40.00 Ry     beta= 0.05
     Davidson diagonalization with overlap
     ethr =  4.08E-07,  avg # of iterations =  1.0

     total cpu time spent up to now is      199.4 secs

     total energy              =    -298.85228551 Ry
     estimated scf accuracy    <       0.00038001 Ry

     iteration #  6     ecut=    40.00 Ry     beta= 0.05
     Davidson diagonalization with overlap
     ethr =  3.52E-07,  avg # of iterations =  2.0

     total cpu time spent up to now is      201.5 secs

     total energy              =    -298.85232684 Ry
     estimated scf accuracy    <       0.00005086 Ry

     iteration #  7     ecut=    40.00 Ry     beta= 0.05
     Davidson diagonalization with overlap
     ethr =  4.71E-08,  avg # of iterations =  2.0

     total cpu time spent up to now is      203.2 secs

     total energy              =    -298.85232888 Ry
     estimated scf accuracy    <       0.00004878 Ry

     iteration #  8     ecut=    40.00 Ry     beta= 0.05
     Davidson diagonalization with overlap
     ethr =  4.52E-08,  avg # of iterations =  1.0

     total cpu time spent up to now is      205.2 secs

     total energy              =    -298.85231461 Ry
     estimated scf accuracy    <       0.00003883 Ry

     iteration #  9     ecut=    40.00 Ry     beta= 0.05
     Davidson diagonalization with overlap
     ethr =  3.60E-08,  avg # of iterations =  2.0

     total cpu time spent up to now is      206.9 secs

     total energy              =    -298.85232103 Ry
     estimated scf accuracy    <       0.00000660 Ry

     iteration # 10     ecut=    40.00 Ry     beta= 0.05
     Davidson diagonalization with overlap
     ethr =  6.11E-09,  avg # of iterations =  2.0

     total cpu time spent up to now is      208.6 secs

     total energy              =    -298.85232182 Ry
     estimated scf accuracy    <       0.00000435 Ry

     iteration # 11     ecut=    40.00 Ry     beta= 0.05
     Davidson diagonalization with overlap
     ethr =  4.03E-09,  avg # of iterations =  1.0

     total cpu time spent up to now is      210.6 secs

     total energy              =    -298.85232080 Ry
     estimated scf accuracy    <       0.00000327 Ry

     iteration # 12     ecut=    40.00 Ry     beta= 0.05
     Davidson diagonalization with overlap
     ethr =  3.03E-09,  avg # of iterations =  2.0

     total cpu time spent up to now is      212.3 secs

     End of self-consistent calculation

          k = 0.0000 0.0000 0.0000 (  3715 PWs)   bands (ev):

   -11.8438 -10.9569 -10.3213  -6.3575  -6.3008  -6.0361  -5.8458  -5.7707
    -5.6365  -5.6321  -5.4763  -5.2434  -4.9698  -4.8064  -4.7853  -4.7402
    -4.6917  -4.6294  -4.6240  -4.3921  -4.3658  -4.3507  -1.2487   0.8333
     1.1787   1.5994   1.8959   1.9510   2.0754   2.1235   2.1694   2.2971
     2.3211   2.4316   2.4504   2.5118   3.1779   3.4090   4.5762   4.6119
     4.8084   4.8659   5.2639   5.3482   5.4123   5.6334   5.6803   5.7535
     5.7971   6.2360   6.6072   6.6590   7.1993   7.9490   9.7558   9.9596
    10.1209  10.4054  10.7804  10.8772  11.2057  11.2891  11.5565  12.2962
    14.1068

     the Fermi energy is     8.7475 ev

!    total energy              =    -298.85232607 Ry
     estimated scf accuracy    <       0.00000031 Ry
     smearing contrib. (-TS)   =      -0.00000000 Ry
     internal energy E=F+TS    =    -298.85232607 Ry

     The total energy is F=E-TS. E is the sum of the following terms:
     one-electron contribution =     -31.06556309 Ry
     hartree contribution      =      77.22349680 Ry
     xc contribution           =    -108.89572941 Ry
     ewald contribution        =    -236.11453037 Ry

     convergence has been achieved in  12 iterations

     Forces acting on atoms (cartesian axes, Ry/au):

     atom    1 type  1   force =    -0.00130068   -0.02150851    0.00687279
     atom    2 type  1   force =     0.00259878    0.02235146   -0.00243407
     atom    3 type  1   force =    -0.01509485   -0.05551854    0.00400894
     atom    4 type  1   force =     0.00374629    0.02820735    0.00888809
     atom    5 type  1   force =    -0.00292520   -0.01918481   -0.00566132
     atom    6 type  1   force =     0.02714913    0.05338866    0.00646983
     atom    7 type  1   force =    -0.00445435   -0.02047790    0.00694149
     atom    8 type  1   force =     0.00299841    0.02333686   -0.00385142
     atom    9 type  1   force =     0.00367823   -0.04959916    0.00264453
     atom   10 type  1   force =     0.00364878    0.03049236    0.00884550
     atom   11 type  1   force =    -0.00332687   -0.00262341   -0.00920171
     atom   12 type  1   force =    -0.02469797    0.05396973    0.01463493
     atom   13 type  1   force =    -0.00439296   -0.01872749    0.00538319
     atom   14 type  1   force =     0.00278532    0.00269135   -0.00100117
     atom   15 type  1   force =    -0.00814191    0.00789190    0.00979808
     atom   16 type  1   force =     0.00112956    0.01968569    0.00684586
     atom   17 type  1   force =    -0.00298725   -0.01714680   -0.00395871
     atom   18 type  1   force =     0.00382696    0.00152809    0.00040107
     atom   19 type  1   force =    -0.00239215   -0.01933669    0.00787435
     atom   20 type  1   force =     0.00294783    0.01470927   -0.00591729
     atom   21 type  1   force =     0.00097105   -0.04501535    0.00188267
     atom   22 type  1   force =     0.00528153    0.01828653    0.00679356
     atom   23 type  1   force =    -0.00319630   -0.01698926   -0.00272889
     atom   24 type  1   force =     0.00741230    0.03999227   -0.00527666
     atom   25 type  2   force =    -0.01242404    0.05448073   -0.01284602
     atom   26 type  2   force =    -0.00259663    0.05435551    0.00102660
     atom   27 type  2   force =    -0.00137835   -0.01622366   -0.00784582
     atom   28 type  2   force =     0.00596356   -0.03443283    0.00838177
     atom   29 type  2   force =     0.00658840   -0.03593983   -0.00734059
     atom   30 type  2   force =     0.00203222   -0.04930857    0.01233171
     atom   31 type  2   force =     0.00595089   -0.00929417    0.00146185
     atom   32 type  2   force =    -0.00493235   -0.00181178    0.00062107
     atom   33 type  2   force =     0.00837903   -0.00132234    0.00447744
     atom   34 type  2   force =    -0.00996432    0.00865947    0.00425497
     atom   35 type  2   force =    -0.00964843    0.00219422   -0.03168738
     atom   36 type  2   force =     0.01676633   -0.00176033   -0.03108924

     Total force =     0.125194     Total SCF correction =     0.001545


     Computing stress (Cartesian axis) and pressure

          total   stress  (Ry/bohr**3)                   (kbar)     P=       26.97
  -0.00088518  -0.00016473  -0.00000620         -130.22      -24.23       -0.91
  -0.00016473   0.00161111  -0.00002012          -24.23      237.00       -2.96
  -0.00000620  -0.00002012  -0.00017597           -0.91       -2.96      -25.89

     Energy error            =      1.3E-01 Ry
     Gradient error          =      5.4E-02 Ry/Bohr
     Cell gradient error     =      2.4E+02 kbar

     number of scf cycles    =   4
     number of bfgs steps    =   3

     enthalpy           old  =    -298.7211388633 Ry
     enthalpy           new  =    -298.8523260689 Ry

     CASE: enthalpy          _new < enthalpy          _old

     new trust radius        =       0.2798209865 bohr
     new conv_thr            =       0.0000005448 Ry

     new unit-cell volume =   1404.50258 a.u.^3 (   208.12581 Ang^3 )
     density =      2.39642 g/cm^3

CELL_PARAMETERS (alat=  8.00000437)
   1.159328916  -0.001964419  -0.000341873
  -0.581354626   1.034872489   0.003094857
  -0.000762335   0.006166569   2.288628500

ATOMIC_POSITIONS (crystal)
C               -0.0000232504       -0.0000527022        0.1747375368    0   0   1
C               -0.0000278099       -0.0000498766        0.4161217761    0   0   1
C                0.0000100609        0.0000549576        0.8654467322    0   0   1
C                0.1666203308        0.3332946859        0.1740797523    0   0   1
C                0.3333984796        0.1666639417        0.4174434059    0   0   1
C                0.1667146600        0.3334639706        0.8664774036    0   0   1
C                0.5000465331        0.0000324555        0.1748773097    0   0   1
C                0.5000016650       -0.0001131549        0.4152315799    0   0   1
C                0.5000030946        0.0000188537        0.8651410293    0   0   1
C                0.6666615396        0.3333135896        0.1741497960    0   0   1
C                0.8333084143        0.1664985474        0.4160174081    0   0   1
C                0.6666713519        0.3334318585        0.8695616623    0   0   1
C                0.0000461136        0.4999975319        0.1757519460    0   0   1
C                0.0000651772        0.4999027772        0.4147385079    0   0   1
C                0.0000314658        0.5001185854        0.8709667962    0   0   1
C                0.1666560017        0.8332878652        0.1747698615    0   0   1
C                0.3335171756        0.6666676978        0.4139834372    0   0   1
C                0.1667333598        0.8334198895        0.8701287012    0   0   1
C                0.4999522539        0.4999195460        0.1760029685    0   0   1
C                0.5001475241        0.5000491893        0.4148949023    0   0   1
C                0.4999648505        0.5000536716        0.8766295804    0   0   1
C                0.6666007843        0.8332839616        0.1751620702    0   0   1
C                0.8334546755        0.6666968452        0.4140938293    0   0   1
C                0.6665470096        0.8332106845        0.8746293510    0   0   1
H                0.9145105150        1.3317609263        0.6744392868
H                0.8053120071        1.1331400496        0.6831277537
H                0.3034566807        0.6632653608        0.6744578156
H                0.4248586636        0.5658006663        0.6470065306
H                0.8169627931        0.6439729355        0.6778958178
H                0.6062712557        0.5271388203        0.6402995206
H                0.2496910393        0.1556302030        0.6862293080
H                0.4240386699        0.1882319086        0.6839038880
H                0.0160725645        0.7320089376        0.6316778221
H                0.2281739249        0.7882083781        0.6270539486
H                0.8074687088        0.8988419123        0.6356130088
H                0.6297521379        0.8775942895        0.6330514917



     Writing config-only to output data dir ../results/6h2_abs/6H2abs_C.save/ :
     XML data file
     NEW-OLD atomic charge density approx. for the potential

     Check: negative core charge=   -0.000006

     total cpu time spent up to now is      216.7 secs

     Self-consistent Calculation

     iteration #  1     ecut=    40.00 Ry     beta= 0.05
     Davidson diagonalization with overlap
     ethr =  1.00E-06,  avg # of iterations = 20.0

     total cpu time spent up to now is      222.9 secs

     total energy              =    -298.88391778 Ry
     estimated scf accuracy    <       0.01680856 Ry

     iteration #  2     ecut=    40.00 Ry     beta= 0.05
     Davidson diagonalization with overlap
     ethr =  1.56E-05,  avg # of iterations =  1.0

     total cpu time spent up to now is      224.4 secs

     total energy              =    -298.87527527 Ry
     estimated scf accuracy    <       0.01563558 Ry

     iteration #  3     ecut=    40.00 Ry     beta= 0.05
     Davidson diagonalization with overlap
     ethr =  1.45E-05,  avg # of iterations =  2.0

     total cpu time spent up to now is      226.7 secs

     total energy              =    -298.87756021 Ry
     estimated scf accuracy    <       0.00052207 Ry

     iteration #  4     ecut=    40.00 Ry     beta= 0.05
     Davidson diagonalization with overlap
     ethr =  4.83E-07,  avg # of iterations = 11.0

     total cpu time spent up to now is      228.6 secs

     total energy              =    -298.87764242 Ry
     estimated scf accuracy    <       0.00042947 Ry

     iteration #  5     ecut=    40.00 Ry     beta= 0.05
     Davidson diagonalization with overlap
     ethr =  3.98E-07,  avg # of iterations =  1.0

     total cpu time spent up to now is      230.5 secs

     total energy              =    -298.87753393 Ry
     estimated scf accuracy    <       0.00040416 Ry

     iteration #  6     ecut=    40.00 Ry     beta= 0.05
     Davidson diagonalization with overlap
     ethr =  3.74E-07,  avg # of iterations =  2.0

     total cpu time spent up to now is      232.3 secs

     total energy              =    -298.87756554 Ry
     estimated scf accuracy    <       0.00016976 Ry

     iteration #  7     ecut=    40.00 Ry     beta= 0.05
     Davidson diagonalization with overlap
     ethr =  1.57E-07,  avg # of iterations =  2.0

     total cpu time spent up to now is      234.0 secs

     total energy              =    -298.87756898 Ry
     estimated scf accuracy    <       0.00011056 Ry

     iteration #  8     ecut=    40.00 Ry     beta= 0.05
     Davidson diagonalization with overlap
     ethr =  1.02E-07,  avg # of iterations =  1.0

     total cpu time spent up to now is      236.0 secs

     total energy              =    -298.87754058 Ry
     estimated scf accuracy    <       0.00009459 Ry

     iteration #  9     ecut=    40.00 Ry     beta= 0.05
     Davidson diagonalization with overlap
     ethr =  8.76E-08,  avg # of iterations =  2.0

     total cpu time spent up to now is      237.7 secs

     total energy              =    -298.87755053 Ry
     estimated scf accuracy    <       0.00003333 Ry

     iteration # 10     ecut=    40.00 Ry     beta= 0.05
     Davidson diagonalization with overlap
     ethr =  3.09E-08,  avg # of iterations =  2.0

     total cpu time spent up to now is      239.8 secs

     total energy              =    -298.87755146 Ry
     estimated scf accuracy    <       0.00002241 Ry

     iteration # 11     ecut=    40.00 Ry     beta= 0.05
     Davidson diagonalization with overlap
     ethr =  2.07E-08,  avg # of iterations =  1.0

     total cpu time spent up to now is      241.3 secs

     total energy              =    -298.87754756 Ry
     estimated scf accuracy    <       0.00001710 Ry

     iteration # 12     ecut=    40.00 Ry     beta= 0.05
     Davidson diagonalization with overlap
     ethr =  1.58E-08,  avg # of iterations =  2.0

     total cpu time spent up to now is      243.0 secs

     total energy              =    -298.87754914 Ry
     estimated scf accuracy    <       0.00000661 Ry

     iteration # 13     ecut=    40.00 Ry     beta= 0.05
     Davidson diagonalization with overlap
     ethr =  6.12E-09,  avg # of iterations =  1.0

     total cpu time spent up to now is      245.0 secs

     total energy              =    -298.87754919 Ry
     estimated scf accuracy    <       0.00000596 Ry

     iteration # 14     ecut=    40.00 Ry     beta= 0.05
     Davidson diagonalization with overlap
     ethr =  5.52E-09,  avg # of iterations =  1.0

     total cpu time spent up to now is      246.5 secs

     total energy              =    -298.87754823 Ry
     estimated scf accuracy    <       0.00000486 Ry

     iteration # 15     ecut=    40.00 Ry     beta= 0.05
     Davidson diagonalization with overlap
     ethr =  4.50E-09,  avg # of iterations =  2.0

     total cpu time spent up to now is      248.2 secs

     total energy              =    -298.87754893 Ry
     estimated scf accuracy    <       0.00000203 Ry

     iteration # 16     ecut=    40.00 Ry     beta= 0.05
     Davidson diagonalization with overlap
     ethr =  1.88E-09,  avg # of iterations =  1.0

     total cpu time spent up to now is      250.2 secs

     total energy              =    -298.87754874 Ry
     estimated scf accuracy    <       0.00000154 Ry

     iteration # 17     ecut=    40.00 Ry     beta= 0.05
     Davidson diagonalization with overlap
     ethr =  1.43E-09,  avg # of iterations =  1.0

     total cpu time spent up to now is      251.7 secs

     total energy              =    -298.87754861 Ry
     estimated scf accuracy    <       0.00000091 Ry

     iteration # 18     ecut=    40.00 Ry     beta= 0.05
     Davidson diagonalization with overlap
     ethr =  8.47E-10,  avg # of iterations =  2.0

     total cpu time spent up to now is      253.4 secs

     End of self-consistent calculation

          k = 0.0000 0.0000 0.0000 (  3715 PWs)   bands (ev):

   -11.9048 -10.9597 -10.3372  -6.7166  -6.3461  -6.2903  -6.1614  -5.8939
    -5.8401  -5.7823  -5.5673  -5.4143  -4.9556  -4.8877  -4.8510  -4.7980
    -4.7314  -4.7272  -4.6852  -4.5050  -4.4793  -4.3617  -1.3266   1.0293
     1.1230   1.3939   1.4616   1.8618   1.8891   1.9620   1.9869   2.0428
     2.0937   2.2927   2.3923   2.4679   2.9707   3.2138   4.1055   4.2312
     4.5347   4.5978   4.9722   5.1036   5.2170   5.2595   5.3673   5.3840
     5.5761   6.0016   6.1608   6.5541   7.0670   7.2500   9.4486   9.6365
     9.7389  10.1003  10.4708  10.6331  10.7975  11.0599  11.1327  12.1506
    13.8330

     the Fermi energy is     8.0788 ev

!    total energy              =    -298.87755084 Ry
     estimated scf accuracy    <       0.00000019 Ry
     smearing contrib. (-TS)   =      -0.00000000 Ry
     internal energy E=F+TS    =    -298.87755084 Ry

     The total energy is F=E-TS. E is the sum of the following terms:
     one-electron contribution =     -31.71116067 Ry
     hartree contribution      =      76.37911774 Ry
     xc contribution           =    -108.18330042 Ry
     ewald contribution        =    -235.36220750 Ry

     convergence has been achieved in  18 iterations

     Forces acting on atoms (cartesian axes, Ry/au):

     atom    1 type  1   force =     0.00187832    0.01784889    0.01665114
     atom    2 type  1   force =    -0.00130004   -0.01472677   -0.01499772
     atom    3 type  1   force =    -0.00690472   -0.00658801    0.00035486
     atom    4 type  1   force =    -0.00131656   -0.01141199   -0.00509396
     atom    5 type  1   force =     0.00165988    0.01888750    0.00620941
     atom    6 type  1   force =     0.01695702    0.00295038    0.01089016
     atom    7 type  1   force =     0.00111627    0.01870823    0.01632478
     atom    8 type  1   force =    -0.00247967   -0.01494862   -0.01333858
     atom    9 type  1   force =     0.00908261   -0.00185659    0.00350502
     atom   10 type  1   force =    -0.00155010   -0.00952683   -0.00513821
     atom   11 type  1   force =     0.00229630    0.03495917    0.00444358
     atom   12 type  1   force =    -0.02336755    0.00382900    0.01459585
     atom   13 type  1   force =     0.00092950    0.02141303    0.01499697
     atom   14 type  1   force =    -0.00182377   -0.03401450   -0.01227774
     atom   15 type  1   force =    -0.00337357    0.05239792    0.00113793
     atom   16 type  1   force =    -0.00318518   -0.02080993   -0.00661793
     atom   17 type  1   force =     0.00103016    0.02025516    0.01003550
     atom   18 type  1   force =    -0.00233852   -0.04467259    0.01006972
     atom   19 type  1   force =     0.00257660    0.02009935    0.01722755
     atom   20 type  1   force =    -0.00197804   -0.02362849   -0.01270760
     atom   21 type  1   force =     0.00578925    0.00727099   -0.00276380
     atom   22 type  1   force =     0.00075518   -0.01991376   -0.00630874
     atom   23 type  1   force =     0.00316692    0.02028246    0.01106836
     atom   24 type  1   force =     0.00012395   -0.00986507   -0.00480914
     atom   25 type  2   force =    -0.00889152    0.00154142   -0.01331294
     atom   26 type  2   force =    -0.00091917    0.06126902   -0.00932502
     atom   27 type  2   force =     0.00448931   -0.01418332   -0.01010303
     atom   28 type  2   force =     0.00456771   -0.01623957    0.00845548
     atom   29 type  2   force =    -0.00074220   -0.02518587   -0.00784152
     atom   30 type  2   force =    -0.00457745   -0.02356049    0.01109641
     atom   31 type  2   force =    -0.03363826   -0.01763828    0.00035862
     atom   32 type  2   force =     0.03366748   -0.00012645   -0.00151370
     atom   33 type  2   force =     0.00990765    0.00227759    0.00304920
     atom   34 type  2   force =    -0.00914529    0.00471219    0.00588759
     atom   35 type  2   force =     0.00616559    0.00151461   -0.02042503
     atom   36 type  2   force =     0.00137191   -0.00131976   -0.01978350

     Total force =     0.111960     Total SCF correction =     0.000594


     Computing stress (Cartesian axis) and pressure

          total   stress  (Ry/bohr**3)                   (kbar)     P=     -102.08
   0.00001691   0.00010417  -0.00000558            2.49       15.32       -0.82
   0.00010417  -0.00191652  -0.00003716           15.32     -281.93       -5.47
  -0.00000558  -0.00003716  -0.00018218           -0.82       -5.47      -26.80

     Energy error            =      2.5E-02 Ry
     Gradient error          =      6.1E-02 Ry/Bohr
     Cell gradient error     =      2.8E+02 kbar

     number of scf cycles    =   5
     number of bfgs steps    =   4

     enthalpy           old  =    -298.8523260689 Ry
     enthalpy           new  =    -298.8775508446 Ry

     CASE: enthalpy          _new < enthalpy          _old

     new trust radius        =       0.1067714794 bohr
     new conv_thr            =       0.0000006127 Ry

     new unit-cell volume =   1382.71918 a.u.^3 (   204.89784 Ang^3 )
     density =      2.43417 g/cm^3

CELL_PARAMETERS (alat=  8.00000437)
   1.163661441  -0.001079801  -0.000450884
  -0.582749940   1.019737836   0.002323005
  -0.000967950   0.004423168   2.277090568

ATOMIC_POSITIONS (crystal)
C               -0.0000204653       -0.0000464351        0.1757343645    0   0   1
C               -0.0000302873       -0.0000554160        0.4152191364    0   0   1
C                0.0000098612        0.0000547501        0.8652319680    0   0   1
C                0.1666190800        0.3332924522        0.1736029786    0   0   1
C                0.3333998354        0.1666665187        0.4179712172    0   0   1
C                0.1667163002        0.3334677726        0.8669820366    0   0   1
C                0.5000492486        0.0000385801        0.1758484327    0   0   1
C                0.4999994576       -0.0001181105        0.4144264448    0   0   1
C                0.5000033903        0.0000197509        0.8651209816    0   0   1
C                0.6666602788        0.3333113340        0.1736678174    0   0   1
C                0.8333095548        0.1665005301        0.4164770872    0   0   1
C                0.6666733733        0.3334367850        0.8701995489    0   0   1
C                0.0000485300        0.5000030069        0.1766357243    0   0   1
C                0.0000629964        0.4998980291        0.4139603528    0   0   1
C                0.0000310485        0.5001181889        0.8707848669    0   0   1
C                0.1666544917        0.8332850220        0.1742229849    0   0   1
C                0.3335190999        0.6666716346        0.4146512902    0   0   1
C                0.1667349835        0.8334234155        0.8709231841    0   0   1
C                0.4999550105        0.4999258329        0.1770034097    0   0   1
C                0.5001454233        0.5000444382        0.4141746281    0   0   1
C                0.4999638114        0.5000517131        0.8765714730    0   0   1
C                0.6665992750        0.8332811480        0.1746183021    0   0   1
C                0.8334567414        0.6667011384        0.4148135603    0   0   1
C                0.6665458478        0.8332081057        0.8742739487    0   0   1
H                0.9137297617        1.3316128296        0.6739403916
H                0.8080569593        1.1388862553        0.6827476592
H                0.3032449039        0.6617057906        0.6740737791
H                0.4252277891        0.5645648521        0.6473616420
H                0.8156643521        0.6416215149        0.6775891553
H                0.6042571387        0.5253547809        0.6407695968
H                0.2447120634        0.1535488343        0.6862343198
H                0.4280275415        0.1883604279        0.6838050132
H                0.0179639148        0.7326353566        0.6317745980
H                0.2266154379        0.7885333964        0.6272931573
H                0.8087493424        0.8989205102        0.6347998397
H                0.6292995630        0.8774844886        0.6322856158



     Writing config-only to output data dir ../results/6h2_abs/6H2abs_C.save/ :
     XML data file
     NEW-OLD atomic charge density approx. for the potential

     Check: negative core charge=   -0.000005

     total cpu time spent up to now is      257.8 secs

     Self-consistent Calculation

     iteration #  1     ecut=    40.00 Ry     beta= 0.05
     Davidson diagonalization with overlap
     ethr =  1.00E-06,  avg # of iterations = 20.0

     total cpu time spent up to now is      262.6 secs

     total energy              =    -298.91277978 Ry
     estimated scf accuracy    <       0.00305071 Ry

     iteration #  2     ecut=    40.00 Ry     beta= 0.05
     Davidson diagonalization with overlap
     ethr =  2.82E-06,  avg # of iterations =  1.0

     total cpu time spent up to now is      264.1 secs

     total energy              =    -298.91124226 Ry
     estimated scf accuracy    <       0.00284534 Ry

     iteration #  3     ecut=    40.00 Ry     beta= 0.05
     Davidson diagonalization with overlap
     ethr =  2.63E-06,  avg # of iterations =  2.0

     total cpu time spent up to now is      265.9 secs

     total energy              =    -298.91164572 Ry
     estimated scf accuracy    <       0.00005770 Ry

     iteration #  4     ecut=    40.00 Ry     beta= 0.05
     Davidson diagonalization with overlap
     ethr =  5.34E-08,  avg # of iterations =  4.0

     total cpu time spent up to now is      268.3 secs

     total energy              =    -298.91166454 Ry
     estimated scf accuracy    <       0.00004560 Ry

     iteration #  5     ecut=    40.00 Ry     beta= 0.05
     Davidson diagonalization with overlap
     ethr =  4.22E-08,  avg # of iterations =  1.0

     total cpu time spent up to now is      269.8 secs

     total energy              =    -298.91165019 Ry
     estimated scf accuracy    <       0.00004106 Ry

     iteration #  6     ecut=    40.00 Ry     beta= 0.05
     Davidson diagonalization with overlap
     ethr =  3.80E-08,  avg # of iterations =  2.0

     total cpu time spent up to now is      271.5 secs

     total energy              =    -298.91165556 Ry
[...]
     atom   32 type  2   force =    -0.00035889    0.00204515    0.00078453
     atom   33 type  2   force =     0.00325952   -0.00079605   -0.00260085
     atom   34 type  2   force =    -0.00129097   -0.00324337    0.00100965
     atom   35 type  2   force =    -0.00016844    0.00097021    0.00083604
     atom   36 type  2   force =     0.00411674    0.00032841    0.00044691

     Total force =     0.013758     Total SCF correction =     0.000293


     Computing stress (Cartesian axis) and pressure

          total   stress  (Ry/bohr**3)                   (kbar)     P=        0.70
   0.00000629  -0.00000109  -0.00000832            0.92       -0.16       -1.22
  -0.00000109   0.00003610   0.00001064           -0.16        5.31        1.57
  -0.00000832   0.00001064  -0.00002807           -1.22        1.57       -4.13

     Energy error            =      5.2E-04 Ry
     Gradient error          =      4.5E-03 Ry/Bohr
     Cell gradient error     =      5.3E+00 kbar

     number of scf cycles    =  49
     number of bfgs steps    =  48

     enthalpy           old  =    -299.0335894255 Ry
     enthalpy           new  =    -299.0341090012 Ry

     CASE: enthalpy          _new < enthalpy          _old

     new trust radius        =       0.0706565920 bohr
     new conv_thr            =       0.0000000453 Ry

     new unit-cell volume =   1385.81736 a.u.^3 (   205.35695 Ang^3 )
     density =      2.42873 g/cm^3

CELL_PARAMETERS (alat=  8.00000437)
   1.163862815   0.000136116  -0.006031165
  -0.581806906   1.007383205   0.003815942
  -0.012973766   0.001773615   2.308460273

ATOMIC_POSITIONS (crystal)
C               -0.0000993539       -0.0001052507        0.1828122700    0   0   1
C                0.0001438336        0.0001505210        0.4037196310    0   0   1
C               -0.0004471981       -0.0004845397        0.8824348944    0   0   1
C                0.1666060853        0.3333284177        0.1777457023    0   0   1
C                0.3334791855        0.1667594008        0.4098796276    0   0   1
C                0.1665535677        0.3334268421        0.8788901490    0   0   1
C                0.5000708181        0.0000931479        0.1800454245    0   0   1
C                0.5001313280        0.0000269163        0.4082121678    0   0   1
C                0.4997941946       -0.0002309026        0.8771535910    0   0   1
C                0.6666662100        0.3333194515        0.1781736641    0   0   1
C                0.8334841967        0.1667248477        0.4095240771    0   0   1
C                0.6664910375        0.3332638064        0.8840055419    0   0   1
C                0.0000102674        0.4999166072        0.1815552473    0   0   1
C                0.0001844496        0.5000565143        0.4069947542    0   0   1
C                0.0000436357        0.5001869215        0.8847482962    0   0   1
C                0.1666258237        0.8331974267        0.1787939348    0   0   1
C                0.3336007438        0.6667697610        0.4102454534    0   0   1
C                0.1666135635        0.8332288973        0.8848698211    0   0   1
C                0.4999239873        0.4999321888        0.1831531704    0   0   1
C                0.5002752122        0.5002286403        0.4038030871    0   0   1
C                0.4998655413        0.5001155005        0.8831097674    0   0   1
C                0.6666696644        0.8334583456        0.1774341354    0   0   1
C                0.8334756418        0.6667231388        0.4087922150    0   0   1
C                0.6662957207        0.8330027237        0.8824856115    0   0   1
H                0.8236264836        1.3406937919        0.6460935832
H                0.8312750421        1.1716288792        0.6700452706
H                0.4048524763        0.6693218831        0.6618069836
H                0.6541159259        0.7085640020        0.6398953705
H                0.7909624847        0.5416843481        0.6476329126
H                0.5507391354        0.4525354027        0.6442709452
H                0.1805041915        0.0624398212        0.6506304325
H                0.3518004398        0.2434006171        0.6634943413
H                0.0394424990        0.7085292811        0.6465069677
H                0.2364248820        0.6809502762        0.6604522136
H                0.9453628464        0.8570711693        0.6429480585
H                0.7868178462        0.9536506811        0.6414739577



     Writing config-only to output data dir ../results/6h2_abs/6H2abs_C.save/ :
     XML data file
     NEW-OLD atomic charge density approx. for the potential

     Check: negative core charge=   -0.000005

     total cpu time spent up to now is     2087.8 secs

     Self-consistent Calculation

     iteration #  1     ecut=    40.00 Ry     beta= 0.05
     Davidson diagonalization with overlap
     ethr =  1.00E-06,  avg # of iterations =  6.0

     total cpu time spent up to now is     2090.9 secs

     total energy              =    -299.03474455 Ry
     estimated scf accuracy    <       0.00046178 Ry

     iteration #  2     ecut=    40.00 Ry     beta= 0.05
     Davidson diagonalization with overlap
     ethr =  4.28E-07,  avg # of iterations =  1.0

     total cpu time spent up to now is     2094.0 secs

     total energy              =    -299.03458728 Ry
     estimated scf accuracy    <       0.00043653 Ry

     iteration #  3     ecut=    40.00 Ry     beta= 0.05
     Davidson diagonalization with overlap
     ethr =  4.04E-07,  avg # of iterations =  2.0

     total cpu time spent up to now is     2097.5 secs

     total energy              =    -299.03462589 Ry
     estimated scf accuracy    <       0.00000317 Ry

     iteration #  4     ecut=    40.00 Ry     beta= 0.05
     Davidson diagonalization with overlap
     ethr =  2.93E-09,  avg # of iterations =  5.0

     total cpu time spent up to now is     2103.2 secs

     total energy              =    -299.03463112 Ry
     estimated scf accuracy    <       0.00000357 Ry

     iteration #  5     ecut=    40.00 Ry     beta= 0.05
     Davidson diagonalization with overlap
     ethr =  2.93E-09,  avg # of iterations =  1.0

     total cpu time spent up to now is     2105.6 secs

     total energy              =    -299.03463128 Ry
     estimated scf accuracy    <       0.00000348 Ry

     iteration #  6     ecut=    40.00 Ry     beta= 0.05
     Davidson diagonalization with overlap
     ethr =  2.93E-09,  avg # of iterations =  1.0

     total cpu time spent up to now is     2107.2 secs

     total energy              =    -299.03463116 Ry
     estimated scf accuracy    <       0.00000277 Ry

     iteration #  7     ecut=    40.00 Ry     beta= 0.05
     Davidson diagonalization with overlap
     ethr =  2.57E-09,  avg # of iterations =  2.0

     total cpu time spent up to now is     2109.6 secs

     total energy              =    -299.03463169 Ry
     estimated scf accuracy    <       0.00000034 Ry

     iteration #  8     ecut=    40.00 Ry     beta= 0.05
     Davidson diagonalization with overlap
     ethr =  3.15E-10,  avg # of iterations =  2.0

     total cpu time spent up to now is     2111.5 secs

     total energy              =    -299.03463180 Ry
     estimated scf accuracy    <       0.00000036 Ry

     iteration #  9     ecut=    40.00 Ry     beta= 0.05
     Davidson diagonalization with overlap
     ethr =  3.15E-10,  avg # of iterations =  1.0

     total cpu time spent up to now is     2113.7 secs

     total energy              =    -299.03463172 Ry
     estimated scf accuracy    <       0.00000044 Ry

     iteration # 10     ecut=    40.00 Ry     beta= 0.05
     Davidson diagonalization with overlap
     ethr =  3.15E-10,  avg # of iterations =  2.0

     total cpu time spent up to now is     2115.6 secs

     total energy              =    -299.03463181 Ry
     estimated scf accuracy    <       0.00000007 Ry

     iteration # 11     ecut=    40.00 Ry     beta= 0.05
     Davidson diagonalization with overlap
     ethr =  6.34E-11,  avg # of iterations =  4.0

     total cpu time spent up to now is     2118.0 secs

     total energy              =    -299.03463186 Ry
     estimated scf accuracy    <       0.00000007 Ry

     iteration # 12     ecut=    40.00 Ry     beta= 0.05
     Davidson diagonalization with overlap
     ethr =  6.34E-11,  avg # of iterations =  1.0

     total cpu time spent up to now is     2119.7 secs

     total energy              =    -299.03463189 Ry
     estimated scf accuracy    <       0.00000007 Ry

     iteration # 13     ecut=    40.00 Ry     beta= 0.05
     Davidson diagonalization with overlap
     ethr =  6.34E-11,  avg # of iterations =  1.0

     total cpu time spent up to now is     2121.8 secs

     total energy              =    -299.03463190 Ry
     estimated scf accuracy    <       0.00000005 Ry

     iteration # 14     ecut=    40.00 Ry     beta= 0.05
     Davidson diagonalization with overlap
     ethr =  5.01E-11,  avg # of iterations =  2.0

     total cpu time spent up to now is     2123.6 secs

     End of self-consistent calculation

          k = 0.0000 0.0000 0.0000 (  3715 PWs)   bands (ev):

   -12.3533 -10.7091 -10.3563  -6.7636  -6.7512  -6.6894  -6.1739  -6.1177
    -6.1030  -5.4074  -5.2833  -5.2758  -5.2530  -4.9003  -4.8903  -4.8842
    -4.6117  -4.5994  -4.5893  -4.3655  -4.3524  -4.3129  -1.5472   1.2623
     1.4195   1.4296   1.4378   1.7412   1.9001   2.0310   2.1253   2.1370
     2.1469   2.2077   2.4898   2.5102   2.5221   3.2847   3.4856   4.1905
     4.2330   4.4014   5.0194   5.0380   5.3870   5.3965   5.7776   5.9240
     5.9487   6.1059   6.1351   6.8122   7.1500   7.1797   9.7706   9.9143
     9.9504  10.4812  10.6062  10.6392  11.1786  11.3304  11.3597  14.3067
    14.5232

     the Fermi energy is     8.4844 ev

!    total energy              =    -299.03463214 Ry
     estimated scf accuracy    <       0.00000004 Ry
     smearing contrib. (-TS)   =      -0.00000000 Ry
     internal energy E=F+TS    =    -299.03463214 Ry

     The total energy is F=E-TS. E is the sum of the following terms:
     one-electron contribution =     -62.94788211 Ry
     hartree contribution      =      92.47372762 Ry
     xc contribution           =    -108.87660595 Ry
     ewald contribution        =    -219.68387171 Ry

     convergence has been achieved in  14 iterations

     Forces acting on atoms (cartesian axes, Ry/au):

     atom    1 type  1   force =    -0.00009108    0.00072350    0.00152093
     atom    2 type  1   force =     0.00095640    0.00261171    0.00063222
     atom    3 type  1   force =    -0.00093337   -0.01218962    0.00056931
     atom    4 type  1   force =    -0.00379128    0.00132333    0.00110476
     atom    5 type  1   force =     0.00656351   -0.00327398    0.00040394
     atom    6 type  1   force =    -0.01381486    0.00559926   -0.00093933
     atom    7 type  1   force =     0.00354890   -0.00338258    0.00116440
     atom    8 type  1   force =    -0.00219775    0.00175494   -0.00088927
     atom    9 type  1   force =    -0.01264771    0.00808017   -0.00182382
     atom   10 type  1   force =     0.00126584    0.00201969   -0.00089085
     atom   11 type  1   force =    -0.00179987    0.00105406    0.00270540
     atom   12 type  1   force =    -0.00189812    0.00494531    0.00057839
     atom   13 type  1   force =    -0.00046131    0.00012484    0.00139746
     atom   14 type  1   force =     0.00283764   -0.00054495   -0.00176257
     atom   15 type  1   force =    -0.00246714   -0.00054850   -0.00191925
     atom   16 type  1   force =    -0.00150134   -0.00214008   -0.00390230
     atom   17 type  1   force =    -0.00268554    0.00111679    0.00052919
     atom   18 type  1   force =    -0.00460101    0.00093543   -0.00283736
     atom   19 type  1   force =    -0.00113035    0.00152546   -0.00002118
     atom   20 type  1   force =    -0.00288101   -0.00288960    0.00075386
     atom   21 type  1   force =     0.01361044    0.00508803   -0.00133522
     atom   22 type  1   force =    -0.00554109    0.00065506    0.00111775
     atom   23 type  1   force =     0.00519738   -0.00103366    0.00173480
     atom   24 type  1   force =     0.01409138   -0.00397067   -0.00084122
     atom   25 type  2   force =     0.00099552    0.00032062    0.00114182
     atom   26 type  2   force =     0.00178696    0.00032583   -0.00135110
     atom   27 type  2   force =     0.00271548   -0.00080276   -0.00011204
     atom   28 type  2   force =    -0.00349738   -0.00376871   -0.00036312
     atom   29 type  2   force =     0.00178810   -0.00231418    0.00081816
     atom   30 type  2   force =    -0.00253978   -0.00025077   -0.00096155
     atom   31 type  2   force =     0.00318693   -0.00007400    0.00265861
     atom   32 type  2   force =    -0.00007956    0.00171685    0.00024377
     atom   33 type  2   force =     0.00263206    0.00079376   -0.00188092
     atom   34 type  2   force =    -0.00235184   -0.00351456    0.00087791
     atom   35 type  2   force =     0.00152134    0.00102763    0.00109486
     atom   36 type  2   force =     0.00421351   -0.00104366    0.00078355

     Total force =     0.013843     Total SCF correction =     0.000426


     Computing stress (Cartesian axis) and pressure

          total   stress  (Ry/bohr**3)                   (kbar)     P=        1.17
   0.00000735   0.00000260  -0.00000553            1.08        0.38       -0.81
   0.00000260   0.00004212   0.00001283            0.38        6.20        1.89
  -0.00000553   0.00001283  -0.00002570           -0.81        1.89       -3.78

     Energy error            =      5.2E-04 Ry
     Gradient error          =      4.2E-03 Ry/Bohr
     Cell gradient error     =      6.2E+00 kbar

     number of scf cycles    =  50
     number of bfgs steps    =  49

     enthalpy           old  =    -299.0341090012 Ry
     enthalpy           new  =    -299.0346321427 Ry

     CASE: enthalpy          _new < enthalpy          _old

     new trust radius        =       0.0609607678 bohr

     The maximum number of steps has been reached.

     End of BFGS Geometry Optimization
     new unit-cell volume =   1384.76903 a.u.^3 (   205.20160 Ang^3 )
     density =      2.43057 g/cm^3

CELL_PARAMETERS (alat=  8.00000437)
   1.163901765   0.000121671  -0.006447770
  -0.581840076   1.007580358   0.004443145
  -0.013790335   0.002732240   2.306213155

ATOMIC_POSITIONS (crystal)
C               -0.0001008451       -0.0001080351        0.1828456382    0   0   1
C                0.0001469010        0.0001563448        0.4037239413    0   0   1
C               -0.0004465964       -0.0004852453        0.8819215500    0   0   1
C                0.1666042513        0.3333268596        0.1778927901    0   0   1
C                0.3334814408        0.1667610008        0.4097209119    0   0   1
C                0.1665526290        0.3334244615        0.8785835768    0   0   1
C                0.5000750124        0.0001015830        0.1801122968    0   0   1
C                0.5001263026        0.0000214590        0.4084142418    0   0   1
C                0.4997915877       -0.0002293090        0.8773244637    0   0   1
C                0.6666651532        0.3333200085        0.1784048492    0   0   1
C                0.8334788753        0.1667244398        0.4102422531    0   0   1
C                0.6664957195        0.3332677890        0.8835489859    0   0   1
C                0.0000085266        0.4999183753        0.1820364727    0   0   1
C                0.0001841961        0.5000537884        0.4069342267    0   0   1
C                0.0000399826        0.5001833028        0.8850938226    0   0   1
C                0.1666294594        0.8331999589        0.1785547119    0   0   1
C                0.3335998475        0.6667707930        0.4104609582    0   0   1
C                0.1666110989        0.8332276002        0.8849677773    0   0   1
C                0.4999232746        0.4999348981        0.1832972282    0   0   1
C                0.5002764653        0.5002265261        0.4036824046    0   0   1
C                0.4998666371        0.5001152770        0.8825472269    0   0   1
C                0.6666699544        0.8334597295        0.1773802637    0   0   1
C                0.8334777702        0.6667236590        0.4086850174    0   0   1
C                0.6662905885        0.8330008833        0.8826408812    0   0   1
H                0.8270572603        1.3378824270        0.6460576052
H                0.8373898346        1.1708423563        0.6699639333
H                0.4078014459        0.6683329986        0.6612770339
H                0.6559254858        0.7086155820        0.6403929530
H                0.7938046330        0.5378255818        0.6476334950
H                0.5542142090        0.4521150577        0.6440575811
H                0.1830525796        0.0635055329        0.6512188282
H                0.3513058621        0.2471025427        0.6634429124
H                0.0429123255        0.7068094070        0.6455031382
H                0.2405473342        0.6836027660        0.6615671538
H                0.9476759739        0.8545325013        0.6426201777
H                0.7909079106        0.9526030960        0.6409032846



     Writing config-only to output data dir ../results/6h2_abs/6H2abs_C.save/ :
     XML data file
     NEW-OLD atomic charge density approx. for the potential

     Check: negative core charge=   -0.000005

     Writing all to output data dir ../results/6h2_abs/6H2abs_C.save/ :
     XML data file, charge density, pseudopotentials, collected wavefunctions

     init_run     :      3.19s CPU      3.11s WALL (       1 calls)
     electrons    :   2283.96s CPU   1885.40s WALL (      50 calls)
     update_pot   :      8.41s CPU      5.74s WALL (      50 calls)
     forces       :     82.75s CPU     71.33s WALL (      50 calls)
     stress       :    217.37s CPU    144.71s WALL (      50 calls)

     Called by init_run:
     wfcinit      :      1.81s CPU      1.74s WALL (       1 calls)
     potinit      :      0.22s CPU      0.19s WALL (       1 calls)
     hinit0       :      0.59s CPU      0.56s WALL (       1 calls)

     Called by electrons:
     c_bands      :   1357.83s CPU   1105.88s WALL (     834 calls)
     sum_band     :    514.64s CPU    455.25s WALL (     834 calls)
     v_of_rho     :     36.44s CPU     20.40s WALL (     884 calls)
     newd         :    267.92s CPU    245.43s WALL (     884 calls)
     mix_rho      :    105.02s CPU     62.35s WALL (     834 calls)

     Called by c_bands:
     init_us_2    :     12.82s CPU      9.21s WALL (    1669 calls)
     cegterg      :   1329.07s CPU   1089.17s WALL (     834 calls)

     Called by *egterg:
     cdiaghg      :     32.58s CPU     32.78s WALL (    2963 calls)
     h_psi        :    832.77s CPU    604.56s WALL (    3014 calls)
     s_psi        :    151.36s CPU    145.79s WALL (    3014 calls)
     g_psi        :      4.30s CPU      2.66s WALL (    2179 calls)

     Called by h_psi:
     h_psi:calbec :    141.60s CPU    135.15s WALL (    3014 calls)
     vloc_psi     :    547.95s CPU    326.91s WALL (    3014 calls)
     add_vuspsi   :    140.34s CPU    140.82s WALL (    3014 calls)

     General routines
     calbec       :    230.52s CPU    222.87s WALL (    4098 calls)
     fft          :     80.69s CPU     47.95s WALL (    5655 calls)
     ffts         :     39.90s CPU     24.50s WALL (   16751 calls)
     fftw         :    471.14s CPU    288.76s WALL (  312720 calls)
     interpolate  :     15.68s CPU      9.37s WALL (     884 calls)

     Parallel routines

     PWSCF        :  43m35.31s CPU  35m28.38s WALL


   This run was terminated on:  13: 9:23   7Aug2024            

=------------------------------------------------------------------------------=
   JOB DONE.
=------------------------------------------------------------------------------=
