
     Program PWSCF v.7.3.1 starts on  2Sep2024 at 12:30:51 

     This program is part of the open-source Quantum ESPRESSO suite
     for quantum simulation of materials; please cite
         "P. Giannozzi et al., J. Phys.:Condens. Matter 21 395502 (2009);
         "P. Giannozzi et al., J. Phys.:Condens. Matter 29 465901 (2017);
         "P. Giannozzi et al., J. Chem. Phys. 152 154105 (2020);
          URL http://www.quantum-espresso.org", 
     in publications or presentations arising from this work. More details at
     http://www.quantum-espresso.org/quote

     Parallel version (MPI & OpenMP), running on       4 processor cores
     Number of MPI processes:                 2
     Threads/MPI process:                     2

     MPI processes distributed on     1 nodes
     756 MiB available memory on the printing compute node when the environment starts

     Reading input from hydrogen_absorption9.in

     Current dimensions of program PWSCF are:
     Max number of different atomic species (ntypx) = 10
     Max number of k-points (npk) =  40000
     Max angular momentum in pseudopotentials (lmaxx) =  4

     IMPORTANT: XC functional enforced from input :
     Exchange-correlation= LDA
                           (   1   1   0   0   0   0   0)
     Any further DFT definition will be discarded
     Please, verify this is what you really want


     R & G space division:  proc/nbgrp/npool/nimage =       2
     Subspace diagonalization in iterative solution of the eigenvalue problem:
     a serial algorithm will be used


     Parallelization info
     --------------------
     sticks:   dense  smooth     PW     G-vecs:    dense   smooth      PW
     Min        1203     477    120               123089    31147    3895
     Max        1204     478    121               123102    31162    3904
     Sum        2407     955    241               246191    62309    7799

     Using Slab Decomposition


     Title: 
     9H2_absorption_C                                                           


     bravais-lattice index     =            0
     lattice parameter (alat)  =       8.0000  a.u.
     unit-cell volume          =    1822.9409 (a.u.)^3
     number of atoms/cell      =           42
     number of atomic types    =            2
     number of electrons       =       114.00
     number of Kohn-Sham states=           68
     kinetic-energy cutoff     =      40.0000  Ry
     charge density cutoff     =     400.0000  Ry
     scf convergence threshold =      1.0E-06
     mixing beta               =       0.0500
     number of iterations used =            8  local-TF  mixing
     energy convergence thresh.=      1.0E-04
     force convergence thresh. =      1.0E-03
     press convergence thresh. =      5.0E-01
     Exchange-correlation= LDA
                           (   1   1   0   0   0   0   0)
     nstep                     =           50


     celldm(1)=   8.000004  celldm(2)=   0.000000  celldm(3)=   0.000000
     celldm(4)=   0.000000  celldm(5)=   0.000000  celldm(6)=   0.000000

     crystal axes: (cart. coord. in units of alat)
               a(1) = (   1.172003  -0.000041  -0.003106 )  
               a(2) = (  -0.586028   1.015087   0.001690 )  
               a(3) = (   0.006692   0.008333   2.992787 )  

     reciprocal axes: (cart. coord. in units 2 pi/alat)
               b(1) = (  0.853248  0.492601 -0.003280 )  
               b(2) = (  0.000027  0.985157 -0.002743 )  
               b(3) = (  0.000886 -0.000045  0.334135 )  


     PseudoPot. # 1 for C  read from file:
     /home/edoardocabiati/.burai/.pseudopot/C.pz-n-rrkjus_psl.0.1.UPF
     MD5 check sum: a3cecbabebb5b3a1aff122f23eb09bb0
     Pseudo is Ultrasoft + core correction, Zval =  4.0
     Generated using "atomic" code by A. Dal Corso  v.5.0.2 svn rev. 9415
     Using radial grid of 1073 points,  4 beta functions with: 
                l(1) =   0
                l(2) =   0
                l(3) =   1
                l(4) =   1
     Q(r) pseudized with 0 coefficients 


     PseudoPot. # 2 for H  read from file:
     /home/edoardocabiati/.burai/.pseudopot/H.pz-rrkjus_psl.0.1.UPF
     MD5 check sum: 1467ebfaa2880178e80d097b970df8c7
     Pseudo is Ultrasoft, Zval =  1.0
     Generated using "atomic" code by A. Dal Corso  v.5.0.2 svn rev. 9415
     Using radial grid of  929 points,  2 beta functions with: 
                l(1) =   0
                l(2) =   0
     Q(r) pseudized with 0 coefficients 


     atomic species   valence    mass     pseudopotential
     C                 4.00    12.01100     C ( 1.00)
     H                 1.00     1.00784     H ( 1.00)

     No symmetry found



   Cartesian axes

     site n.     atom                  positions (alat units)
         1        C      tau(   1) = (   0.0011491   0.0009965   0.5183027  )
         2        C      tau(   2) = (   0.0024455   0.0027658   1.0696823  )
         3        C      tau(   3) = (   0.0063123   0.0071941   2.6980751  )
         4        C      tau(   4) = (   0.0011293   0.3395151   0.5134291  )
         5        C      tau(   5) = (   0.2958047   0.1721043   1.0721905  )
         6        C      tau(   6) = (   0.0061585   0.3460587   2.6970112  )
         7        C      tau(   7) = (   0.5870744   0.0010694   0.5171876  )
         8        C      tau(   8) = (   0.5888313   0.0027533   1.0676044  )
         9        C      tau(   9) = (   0.5924907   0.0074358   2.6971455  )
        10        C      tau(  10) = (   0.5872719   0.3394174   0.5120346  )
        11        C      tau(  11) = (   0.8814250   0.1717566   1.0716454  )
        12        C      tau(  12) = (   0.5923137   0.3459606   2.6960119  )
        13        C      tau(  13) = (  -0.2919023   0.5083943   0.5181704  )
        14        C      tau(  14) = (  -0.2901525   0.5104749   1.0705382  )
        15        C      tau(  15) = (  -0.2861382   0.5158826   2.6965045  )
        16        C      tau(  16) = (  -0.2918994   0.8466869   0.5140464  )
        17        C      tau(  17) = (   0.0029487   0.6797792   1.0750817  )
        18        C      tau(  18) = (  -0.2860031   0.8539156   2.6976514  )
        19        C      tau(  19) = (   0.2945080   0.5087668   0.5193454  )
        20        C      tau(  20) = (   0.2958959   0.5107790   1.0668564  )
        21        C      tau(  21) = (   0.2989653   0.5149561   2.6978949  )
        22        C      tau(  22) = (   0.2939770   0.8469983   0.5145291  )
        23        C      tau(  23) = (   0.5889055   0.6796690   1.0729610  )
        24        C      tau(  24) = (   0.2993146   0.8530332   2.6994318  )
        25        H      tau(  25) = (   0.2093078   1.3249220   2.0490426  )
        26        H      tau(  26) = (   0.0402865   1.1312092   2.0566647  )
        27        H      tau(  27) = (   0.1232264   0.8896974   2.0777405  )
        28        H      tau(  28) = (   0.4528702   0.5937760   2.0649659  )
        29        H      tau(  29) = (   0.7087011   0.5446453   2.0491258  )
        30        H      tau(  30) = (   0.2904301   0.4023058   2.0525734  )
        31        H      tau(  31) = (   0.2036459  -0.0351983   2.0477630  )
        32        H      tau(  32) = (   0.3763556   0.1566293   2.0517037  )
        33        H      tau(  33) = (  -0.2956765   0.7405575   2.0492443  )
        34        H      tau(  34) = (  -0.0445896   0.6949289   2.0633135  )
        35        H      tau(  35) = (   0.5377875   1.0251875   2.0583764  )
        36        H      tau(  36) = (   0.3867774   0.8534457   1.6166385  )
        37        H      tau(  37) = (  -0.1213399   0.2550115   2.0504574  )
        38        H      tau(  38) = (   0.0382904   0.4488049   2.0512203  )
        39        H      tau(  39) = (   0.3698193   0.8352112   2.0826842  )
        40        H      tau(  40) = (   0.2041740   0.8219818   1.6128028  )
        41        H      tau(  41) = (   0.5936377   0.4346882   1.6117184  )
        42        H      tau(  42) = (   0.6154046   0.6034818   1.6031535  )

     number of k points=     1  Gaussian smearing, width (Ry)=  0.0100
                       cart. coord. in units 2pi/alat
        k(    1) = (   0.0000000   0.0000000   0.0000000), wk =   2.0000000

     Dense  grid:   246191 G-vectors     FFT dimensions: (  60,  60, 160)

     Smooth grid:    62309 G-vectors     FFT dimensions: (  40,  40, 100)

     Estimated max dynamical RAM per process >     306.63 MB

     Estimated total dynamical RAM >     613.26 MB

     Check: negative core charge=   -0.000002

     Initial potential from superposition of free atoms

     starting charge     113.9990, renormalised to     114.0000
     Starting wfcs are  114 randomized atomic wfcs

     total cpu time spent up to now is        3.1 secs

     Self-consistent Calculation

     iteration #  1     ecut=    40.00 Ry     beta= 0.05
     Davidson diagonalization with overlap
     ethr =  1.00E-02,  avg # of iterations =  3.0

     total cpu time spent up to now is        8.6 secs

     total energy              =    -307.05037648 Ry
     estimated scf accuracy    <       2.10150361 Ry

     iteration #  2     ecut=    40.00 Ry     beta= 0.05
     Davidson diagonalization with overlap
     ethr =  1.84E-03,  avg # of iterations =  4.0

     total cpu time spent up to now is       13.1 secs

     total energy              =    -307.99991570 Ry
     estimated scf accuracy    <       2.52811019 Ry

     iteration #  3     ecut=    40.00 Ry     beta= 0.05
     Davidson diagonalization with overlap
     ethr =  1.84E-03,  avg # of iterations =  2.0

     total cpu time spent up to now is       17.2 secs

     total energy              =    -305.83259703 Ry
     estimated scf accuracy    <       3.87404204 Ry

     iteration #  4     ecut=    40.00 Ry     beta= 0.05
     Davidson diagonalization with overlap
     ethr =  1.84E-03,  avg # of iterations =  2.0

     total cpu time spent up to now is       21.6 secs

     total energy              =    -306.10969117 Ry
     estimated scf accuracy    <       0.15161987 Ry

     iteration #  5     ecut=    40.00 Ry     beta= 0.05
     Davidson diagonalization with overlap
     ethr =  1.33E-04,  avg # of iterations = 17.0

     total cpu time spent up to now is       28.2 secs

     total energy              =    -306.16871413 Ry
     estimated scf accuracy    <       0.09143178 Ry

     iteration #  6     ecut=    40.00 Ry     beta= 0.05
     Davidson diagonalization with overlap
     ethr =  8.02E-05,  avg # of iterations =  1.0

     total cpu time spent up to now is       32.0 secs

     total energy              =    -306.14037764 Ry
     estimated scf accuracy    <       0.08008257 Ry

     iteration #  7     ecut=    40.00 Ry     beta= 0.05
     Davidson diagonalization with overlap
     ethr =  7.02E-05,  avg # of iterations =  2.0

     total cpu time spent up to now is       36.3 secs

     total energy              =    -306.14540163 Ry
     estimated scf accuracy    <       0.01437946 Ry

     iteration #  8     ecut=    40.00 Ry     beta= 0.05
     Davidson diagonalization with overlap
     ethr =  1.26E-05,  avg # of iterations =  8.0

     total cpu time spent up to now is       42.3 secs

     total energy              =    -306.14977252 Ry
     estimated scf accuracy    <       0.00890506 Ry

     iteration #  9     ecut=    40.00 Ry     beta= 0.05
     Davidson diagonalization with overlap
     ethr =  7.81E-06,  avg # of iterations =  1.0

     total cpu time spent up to now is       46.3 secs

     total energy              =    -306.15000176 Ry
     estimated scf accuracy    <       0.00617311 Ry

     iteration # 10     ecut=    40.00 Ry     beta= 0.05
     Davidson diagonalization with overlap
     ethr =  5.42E-06,  avg # of iterations =  4.0

     total cpu time spent up to now is       51.6 secs

     total energy              =    -306.14998881 Ry
     estimated scf accuracy    <       0.00745586 Ry

     iteration # 11     ecut=    40.00 Ry     beta= 0.05
     Davidson diagonalization with overlap
     ethr =  5.42E-06,  avg # of iterations =  1.0

     total cpu time spent up to now is       55.5 secs

     total energy              =    -306.14963802 Ry
     estimated scf accuracy    <       0.00416071 Ry

     iteration # 12     ecut=    40.00 Ry     beta= 0.05
     Davidson diagonalization with overlap
     ethr =  3.65E-06,  avg # of iterations =  1.0

     total cpu time spent up to now is       59.3 secs

     total energy              =    -306.14875160 Ry
     estimated scf accuracy    <       0.00327857 Ry

     iteration # 13     ecut=    40.00 Ry     beta= 0.05
     Davidson diagonalization with overlap
     ethr =  2.88E-06,  avg # of iterations =  1.0

     total cpu time spent up to now is       63.5 secs

     total energy              =    -306.14833692 Ry
     estimated scf accuracy    <       0.00145991 Ry

     iteration # 14     ecut=    40.00 Ry     beta= 0.05
     Davidson diagonalization with overlap
     ethr =  1.28E-06,  avg # of iterations =  7.0

     total cpu time spent up to now is       68.7 secs

     total energy              =    -306.14855364 Ry
     estimated scf accuracy    <       0.00051963 Ry

     iteration # 15     ecut=    40.00 Ry     beta= 0.05
     Davidson diagonalization with overlap
     ethr =  4.56E-07,  avg # of iterations =  1.0

     total cpu time spent up to now is       73.0 secs

     total energy              =    -306.14880780 Ry
     estimated scf accuracy    <       0.00048034 Ry

     iteration # 16     ecut=    40.00 Ry     beta= 0.05
     Davidson diagonalization with overlap
     ethr =  4.21E-07,  avg # of iterations =  2.0

     total cpu time spent up to now is       77.5 secs

     total energy              =    -306.14849576 Ry
     estimated scf accuracy    <       0.00092434 Ry

     iteration # 17     ecut=    40.00 Ry     beta= 0.05
     Davidson diagonalization with overlap
     ethr =  4.21E-07,  avg # of iterations =  2.0

     total cpu time spent up to now is       82.3 secs

     total energy              =    -306.14842232 Ry
     estimated scf accuracy    <       0.00035469 Ry

     iteration # 18     ecut=    40.00 Ry     beta= 0.05
     Davidson diagonalization with overlap
     ethr =  3.11E-07,  avg # of iterations =  2.0

     total cpu time spent up to now is       87.5 secs

     total energy              =    -306.14848419 Ry
     estimated scf accuracy    <       0.00017534 Ry

     iteration # 19     ecut=    40.00 Ry     beta= 0.05
     Davidson diagonalization with overlap
     ethr =  1.54E-07,  avg # of iterations =  1.0

     total cpu time spent up to now is       91.6 secs

     total energy              =    -306.14847036 Ry
     estimated scf accuracy    <       0.00018307 Ry

     iteration # 20     ecut=    40.00 Ry     beta= 0.05
     Davidson diagonalization with overlap
     ethr =  1.54E-07,  avg # of iterations =  1.0

     total cpu time spent up to now is       95.7 secs

     total energy              =    -306.14846204 Ry
     estimated scf accuracy    <       0.00013442 Ry

     iteration # 21     ecut=    40.00 Ry     beta= 0.05
     Davidson diagonalization with overlap
     ethr =  1.18E-07,  avg # of iterations =  2.0

     total cpu time spent up to now is      100.1 secs

     total energy              =    -306.14844286 Ry
     estimated scf accuracy    <       0.00011841 Ry

     iteration # 22     ecut=    40.00 Ry     beta= 0.05
     Davidson diagonalization with overlap
     ethr =  1.04E-07,  avg # of iterations =  1.0

     total cpu time spent up to now is      104.3 secs

     total energy              =    -306.14844469 Ry
     estimated scf accuracy    <       0.00006408 Ry

     iteration # 23     ecut=    40.00 Ry     beta= 0.05
     Davidson diagonalization with overlap
     ethr =  5.62E-08,  avg # of iterations =  1.0

     total cpu time spent up to now is      109.1 secs

     total energy              =    -306.14843891 Ry
     estimated scf accuracy    <       0.00005701 Ry

     iteration # 24     ecut=    40.00 Ry     beta= 0.05
     Davidson diagonalization with overlap
     ethr =  5.00E-08,  avg # of iterations =  2.0

     total cpu time spent up to now is      113.6 secs

     total energy              =    -306.14843910 Ry
     estimated scf accuracy    <       0.00004853 Ry

     iteration # 25     ecut=    40.00 Ry     beta= 0.05
     Davidson diagonalization with overlap
     ethr =  4.26E-08,  avg # of iterations =  1.0

     total cpu time spent up to now is      118.3 secs

     total energy              =    -306.14843326 Ry
     estimated scf accuracy    <       0.00004714 Ry

     iteration # 26     ecut=    40.00 Ry     beta= 0.05
     Davidson diagonalization with overlap
     ethr =  4.13E-08,  avg # of iterations =  2.0

     total cpu time spent up to now is      122.8 secs

     total energy              =    -306.14843271 Ry
     estimated scf accuracy    <       0.00003102 Ry

     iteration # 27     ecut=    40.00 Ry     beta= 0.05
     Davidson diagonalization with overlap
     ethr =  2.72E-08,  avg # of iterations =  1.0

     total cpu time spent up to now is      126.7 secs

     total energy              =    -306.14843192 Ry
     estimated scf accuracy    <       0.00002563 Ry

     iteration # 28     ecut=    40.00 Ry     beta= 0.05
     Davidson diagonalization with overlap
     ethr =  2.25E-08,  avg # of iterations =  2.0

     total cpu time spent up to now is      131.0 secs

     total energy              =    -306.14843063 Ry
     estimated scf accuracy    <       0.00002266 Ry

     iteration # 29     ecut=    40.00 Ry     beta= 0.05
     Davidson diagonalization with overlap
     ethr =  1.99E-08,  avg # of iterations =  2.0

     total cpu time spent up to now is      135.4 secs

     total energy              =    -306.14842971 Ry
     estimated scf accuracy    <       0.00001635 Ry

     iteration # 30     ecut=    40.00 Ry     beta= 0.05
     Davidson diagonalization with overlap
     ethr =  1.43E-08,  avg # of iterations =  1.0

     total cpu time spent up to now is      139.3 secs

     total energy              =    -306.14843051 Ry
     estimated scf accuracy    <       0.00001144 Ry

     iteration # 31     ecut=    40.00 Ry     beta= 0.05
     Davidson diagonalization with overlap
     ethr =  1.00E-08,  avg # of iterations =  2.0

     total cpu time spent up to now is      143.7 secs

     total energy              =    -306.14842729 Ry
     estimated scf accuracy    <       0.00001136 Ry

     iteration # 32     ecut=    40.00 Ry     beta= 0.05
     Davidson diagonalization with overlap
     ethr =  9.96E-09,  avg # of iterations =  2.0

     total cpu time spent up to now is      148.1 secs

     total energy              =    -306.14842788 Ry
     estimated scf accuracy    <       0.00000627 Ry

     iteration # 33     ecut=    40.00 Ry     beta= 0.05
     Davidson diagonalization with overlap
     ethr =  5.50E-09,  avg # of iterations =  2.0

     total cpu time spent up to now is      152.3 secs

     total energy              =    -306.14842827 Ry
     estimated scf accuracy    <       0.00000494 Ry

     iteration # 34     ecut=    40.00 Ry     beta= 0.05
     Davidson diagonalization with overlap
     ethr =  4.33E-09,  avg # of iterations =  1.0

     total cpu time spent up to now is      156.4 secs

     total energy              =    -306.14842827 Ry
     estimated scf accuracy    <       0.00000508 Ry

     iteration # 35     ecut=    40.00 Ry     beta= 0.05
     Davidson diagonalization with overlap
     ethr =  4.33E-09,  avg # of iterations =  1.0

     total cpu time spent up to now is      160.3 secs

     total energy              =    -306.14842821 Ry
     estimated scf accuracy    <       0.00000437 Ry

     iteration # 36     ecut=    40.00 Ry     beta= 0.05
     Davidson diagonalization with overlap
     ethr =  3.84E-09,  avg # of iterations =  1.0

     total cpu time spent up to now is      164.3 secs

     total energy              =    -306.14842802 Ry
     estimated scf accuracy    <       0.00000417 Ry

     iteration # 37     ecut=    40.00 Ry     beta= 0.05
     Davidson diagonalization with overlap
     ethr =  3.66E-09,  avg # of iterations =  1.0

     total cpu time spent up to now is      168.3 secs

     total energy              =    -306.14842798 Ry
     estimated scf accuracy    <       0.00000367 Ry

     iteration # 38     ecut=    40.00 Ry     beta= 0.05
     Davidson diagonalization with overlap
     ethr =  3.22E-09,  avg # of iterations =  1.0

     total cpu time spent up to now is      172.2 secs

     total energy              =    -306.14842792 Ry
     estimated scf accuracy    <       0.00000350 Ry

     iteration # 39     ecut=    40.00 Ry     beta= 0.05
     Davidson diagonalization with overlap
     ethr =  3.07E-09,  avg # of iterations =  1.0

     total cpu time spent up to now is      176.1 secs

     total energy              =    -306.14842745 Ry
     estimated scf accuracy    <       0.00000327 Ry

     iteration # 40     ecut=    40.00 Ry     beta= 0.05
     Davidson diagonalization with overlap
     ethr =  2.87E-09,  avg # of iterations =  1.0

     total cpu time spent up to now is      180.0 secs

     total energy              =    -306.14842760 Ry
     estimated scf accuracy    <       0.00000304 Ry

     iteration # 41     ecut=    40.00 Ry     beta= 0.05
     Davidson diagonalization with overlap
     ethr =  2.67E-09,  avg # of iterations =  1.0

     total cpu time spent up to now is      183.9 secs

     total energy              =    -306.14842677 Ry
     estimated scf accuracy    <       0.00000289 Ry

     iteration # 42     ecut=    40.00 Ry     beta= 0.05
     Davidson diagonalization with overlap
     ethr =  2.54E-09,  avg # of iterations =  2.0

     total cpu time spent up to now is      188.1 secs

     total energy              =    -306.14842628 Ry
     estimated scf accuracy    <       0.00000287 Ry

     iteration # 43     ecut=    40.00 Ry     beta= 0.05
     Davidson diagonalization with overlap
     ethr =  2.51E-09,  avg # of iterations =  2.0

     total cpu time spent up to now is      192.2 secs

     total energy              =    -306.14842630 Ry
     estimated scf accuracy    <       0.00000167 Ry

     iteration # 44     ecut=    40.00 Ry     beta= 0.05
     Davidson diagonalization with overlap
     ethr =  1.46E-09,  avg # of iterations =  2.0

     total cpu time spent up to now is      196.5 secs

     total energy              =    -306.14842632 Ry
     estimated scf accuracy    <       0.00000176 Ry

     iteration # 45     ecut=    40.00 Ry     beta= 0.05
     Davidson diagonalization with overlap
     ethr =  1.46E-09,  avg # of iterations =  2.0

     total cpu time spent up to now is      200.6 secs

     End of self-consistent calculation

          k = 0.0000 0.0000 0.0000 (  7799 PWs)   bands (ev):

   -14.2963 -13.2673 -12.8051  -8.8310  -8.8135  -8.7936  -8.2977  -8.2936
    -8.2748  -8.0378  -8.0288  -8.0050  -7.9327  -7.3169  -7.3111  -7.2970
    -7.1252  -7.1130  -7.1049  -6.9811  -6.9713  -6.9678  -3.8093  -2.0118
    -1.6773  -0.8464  -0.8395  -0.8308  -0.7714  -0.3729  -0.3583  -0.3508
    -0.3425  -0.3372  -0.3298  -0.2947  -0.2799  -0.1115  -0.1010  -0.0400
     0.9644   1.6745   2.1035   2.1120   2.3805   2.6489   2.6536   2.8639
     2.8711   2.9938   3.0007   3.4662   3.4986   3.5476   3.9547   3.9839
     4.0039   7.1746   7.1950   7.1959   7.6962   7.7602   7.8321   8.1172
     8.1643   8.2853   9.4539  10.7019

     the Fermi energy is     5.1326 ev

!    total energy              =    -306.14842626 Ry
     estimated scf accuracy    <       0.00000096 Ry
     smearing contrib. (-TS)   =      -0.00000000 Ry
     internal energy E=F+TS    =    -306.14842626 Ry

     The total energy is F=E-TS. E is the sum of the following terms:
     one-electron contribution =    -295.15685912 Ry
     hartree contribution      =     200.79838887 Ry
     xc contribution           =    -112.20658435 Ry
     ewald contribution        =     -99.58337167 Ry

     convergence has been achieved in  45 iterations

     Forces acting on atoms (cartesian axes, Ry/au):

     atom    1 type  1   force =    -0.00116875    0.00590879   -0.00228990
     atom    2 type  1   force =     0.00130734   -0.00494333    0.00269404
     atom    3 type  1   force =     0.00076078    0.00292029    0.00022435
     atom    4 type  1   force =     0.00184996   -0.00586120   -0.00084259
     atom    5 type  1   force =     0.00013204    0.00171785    0.00415246
     atom    6 type  1   force =    -0.00028665   -0.00209564   -0.00000287
     atom    7 type  1   force =    -0.00008900   -0.00073521   -0.00024785
     atom    8 type  1   force =    -0.00668637    0.00911266    0.00210920
     atom    9 type  1   force =     0.00208219    0.00459455   -0.00036766
     atom   10 type  1   force =     0.00211343    0.00098885   -0.00043188
     atom   11 type  1   force =     0.00377438    0.00732764    0.00227324
     atom   12 type  1   force =     0.00132750    0.00107799    0.00005467
     atom   13 type  1   force =    -0.00174966    0.00133865   -0.00017456
     atom   14 type  1   force =     0.00292624   -0.00197801    0.00036288
     atom   15 type  1   force =    -0.00372235   -0.00545533    0.00099766
     atom   16 type  1   force =     0.00043309    0.00153949    0.00086805
     atom   17 type  1   force =    -0.00315922   -0.00768537    0.00323744
     atom   18 type  1   force =    -0.00505623   -0.00119031    0.00019930
     atom   19 type  1   force =    -0.00320444   -0.00057798   -0.00005387
     atom   20 type  1   force =    -0.00217843   -0.00382331   -0.00269101
     atom   21 type  1   force =     0.00358102   -0.00123435    0.00017911
     atom   22 type  1   force =     0.00124955    0.00281169   -0.00209109
     atom   23 type  1   force =    -0.00047047    0.00985303   -0.00885877
     atom   24 type  1   force =     0.00102186    0.00142186    0.00037527
     atom   25 type  2   force =    -0.00062661    0.00471397    0.00450644
     atom   26 type  2   force =     0.00032098    0.00099149   -0.00218509
     atom   27 type  2   force =     0.00070664   -0.00273958    0.00005591
     atom   28 type  2   force =     0.00334013   -0.00241237    0.00721366
     atom   29 type  2   force =     0.00062145   -0.00124074    0.01458963
     atom   30 type  2   force =     0.00203456    0.00083597    0.00094144
     atom   31 type  2   force =     0.00088084   -0.00031769   -0.00092006
     atom   32 type  2   force =    -0.00072461    0.00093338   -0.00097490
     atom   33 type  2   force =    -0.00226295   -0.00319481    0.00207948
     atom   34 type  2   force =     0.00186463    0.00030731   -0.00110955
     atom   35 type  2   force =    -0.00097399    0.00065626   -0.00054687
     atom   36 type  2   force =    -0.04353362    0.02208886   -0.00580331
     atom   37 type  2   force =    -0.00047791    0.00054402   -0.00131035
     atom   38 type  2   force =    -0.00056951    0.00068038   -0.00153630
     atom   39 type  2   force =    -0.00106134    0.00071313    0.00028949
     atom   40 type  2   force =     0.00880607    0.01233885   -0.00782892
     atom   41 type  2   force =     0.00543712   -0.07478249   -0.00029343
     atom   42 type  2   force =     0.03143032    0.02485076   -0.00684291

     Total force =     0.102513     Total SCF correction =     0.002003


     Computing stress (Cartesian axis) and pressure

          total   stress  (Ry/bohr**3)                   (kbar)     P=       13.80
   0.00006604  -0.00008613   0.00001661            9.71      -12.67        2.44
  -0.00008613   0.00014101  -0.00004810          -12.67       20.74       -7.08
   0.00001661  -0.00004810   0.00007436            2.44       -7.08       10.94


     BFGS Geometry Optimization
     Energy error            =      0.0E+00 Ry
     Gradient error          =      7.5E-02 Ry/Bohr
     Cell gradient error     =      2.1E+01 kbar

     number of scf cycles    =   1
     number of bfgs steps    =   0

     enthalpy           new  =    -306.1484262638 Ry

     new trust radius        =       0.0749804577 bohr
     new conv_thr            =       0.0000010000 Ry

     new unit-cell volume =   1835.78239 a.u.^3 (   272.03488 Ang^3 )
     density =      1.87034 g/cm^3

CELL_PARAMETERS (alat=  8.00000437)
   1.173937227  -0.002560521  -0.002625296
  -0.589180588   1.019925524   0.000229044
   0.007927972   0.004749650   2.998343828

ATOMIC_POSITIONS (crystal)
C               -0.0002275313       -0.0004392548        0.1730883150    0   0   1
C               -0.0000602266       -0.0002105074        0.3575326488    0   0   1
C                0.0000810089       -0.0003140715        0.9015354511    0   0   1
C                0.1665255035        0.3330675443        0.1715050725    0   0   1
C                0.3336554387        0.1666150414        0.3586838133    0   0   1
C                0.1668783415        0.3335237713        0.9011550757    0   0   1
C                0.4997509076       -0.0003493538        0.1733198698    0   0   1
C                0.5002732626       -0.0002011210        0.3573332245    0   0   1
C                0.5003590212       -0.0000574262        0.9017192004    0   0   1
C                0.6666068657        0.3329906735        0.1715753455    0   0   1
C                0.8331661495        0.1662902851        0.3589418196    0   0   1
C                0.6669691590        0.3334455654        0.9013426663    0   0   1
C               -0.0003289386        0.4994189547        0.1728501134    0   0   1
C                0.0003771723        0.4999532119        0.3574393352    0   0   1
C                0.0011334561        0.5008201735        0.9007610988    0   0   1
C                0.1663298595        0.8327011437        0.1715004657    0   0   1
C                0.3338486174        0.6667389632        0.3593294505    0   0   1
C                0.1677606474        0.8338328432        0.9010958731    0   0   1
C                0.5002041877        0.4997983961        0.1737670352    0   0   1
C                0.5005850002        0.5002796741        0.3566005249    0   0   1
C                0.4999112575        0.4999195822        0.9017096661    0   0   1
C                0.6663808117        0.8330233527        0.1720569751    0   0   1
C                0.8337727988        0.6666561565        0.3586345512    0   0   1
C                0.6667413390        0.8329743722        0.9022164988    0   0   1
H                0.8247507531        1.3002197080        0.6849703428
H                0.5849601512        1.1089005994        0.6870968338
H                0.5365009004        0.8704577348        0.6943169471
H                0.6723376838        0.5790105031        0.6906529815
H                0.8662541829        0.5308010834        0.6858967881
H                0.4395215630        0.3908141411        0.6861148567
H                0.1497806951       -0.0403266256        0.6843724902
H                0.3915322272        0.1488015622        0.6858310615
H                0.1053541754        0.7235417303        0.6845153369
H                0.2977279944        0.6789909597        0.6893079635
H                0.9570605289        1.0044194476        0.6881823720
H                0.7418426453        0.8390754991        0.5402319992
H                0.0153441612        0.2456656204        0.6849554772
H                0.2470074631        0.4366016227        0.6853336064
H                0.7200735811        0.8171984789        0.6961991919
H                0.5755328808        0.8068844283        0.5387112919
H                0.7113375351        0.4146217490        0.5390261424
H                0.8219959878        0.5932056751        0.5359047548



     Writing config-only to output data dir ../../results/remote/9h2_abs/9H2abs_C.save/ :
     XML data file
     NEW-OLD atomic charge density approx. for the potential

     Check: negative core charge=   -0.000002

     total cpu time spent up to now is      210.5 secs

     Self-consistent Calculation

     iteration #  1     ecut=    40.00 Ry     beta= 0.05
     Davidson diagonalization with overlap
     ethr =  1.00E-06,  avg # of iterations =  8.0

     total cpu time spent up to now is      219.4 secs

     total energy              =    -306.15509793 Ry
     estimated scf accuracy    <       0.00183065 Ry

     iteration #  2     ecut=    40.00 Ry     beta= 0.05
     Davidson diagonalization with overlap
     ethr =  1.61E-06,  avg # of iterations =  1.0

     total cpu time spent up to now is      223.2 secs

     total energy              =    -306.15428711 Ry
     estimated scf accuracy    <       0.00171660 Ry

     iteration #  3     ecut=    40.00 Ry     beta= 0.05
     Davidson diagonalization with overlap
     ethr =  1.51E-06,  avg # of iterations =  2.0

     total cpu time spent up to now is      227.4 secs

     total energy              =    -306.15444589 Ry
     estimated scf accuracy    <       0.00005366 Ry

     iteration #  4     ecut=    40.00 Ry     beta= 0.05
     Davidson diagonalization with overlap
     ethr =  4.71E-08,  avg # of iterations =  5.0

     total cpu time spent up to now is      232.9 secs

     total energy              =    -306.15446795 Ry
     estimated scf accuracy    <       0.00003250 Ry

     iteration #  5     ecut=    40.00 Ry     beta= 0.05
     Davidson diagonalization with overlap
     ethr =  2.85E-08,  avg # of iterations =  2.0

     total cpu time spent up to now is      236.9 secs

     total energy              =    -306.15445755 Ry
     estimated scf accuracy    <       0.00003023 Ry

     iteration #  6     ecut=    40.00 Ry     beta= 0.05
     Davidson diagonalization with overlap
     ethr =  2.65E-08,  avg # of iterations =  2.0

     total cpu time spent up to now is      241.2 secs

     total energy              =    -306.15445939 Ry
     estimated scf accuracy    <       0.00000704 Ry

     iteration #  7     ecut=    40.00 Ry     beta= 0.05
     Davidson diagonalization with overlap
     ethr =  6.17E-09,  avg # of iterations =  4.0

     total cpu time spent up to now is      246.7 secs

     total energy              =    -306.15446044 Ry
     estimated scf accuracy    <       0.00000510 Ry

     iteration #  8     ecut=    40.00 Ry     beta= 0.05
     Davidson diagonalization with overlap
     ethr =  4.47E-09,  avg # of iterations =  1.0

     total cpu time spent up to now is      250.6 secs

     total energy              =    -306.15445941 Ry
     estimated scf accuracy    <       0.00000436 Ry

     iteration #  9     ecut=    40.00 Ry     beta= 0.05
     Davidson diagonalization with overlap
     ethr =  3.83E-09,  avg # of iterations =  2.0

     total cpu time spent up to now is      254.7 secs

     total energy              =    -306.15445977 Ry
     estimated scf accuracy    <       0.00000263 Ry

     iteration # 10     ecut=    40.00 Ry     beta= 0.05
     Davidson diagonalization with overlap
     ethr =  2.31E-09,  avg # of iterations =  1.0

     total cpu time spent up to now is      258.6 secs

     total energy              =    -306.15445980 Ry
     estimated scf accuracy    <       0.00000258 Ry

     iteration # 11     ecut=    40.00 Ry     beta= 0.05
     Davidson diagonalization with overlap
     ethr =  2.27E-09,  avg # of iterations =  1.0

     total cpu time spent up to now is      262.4 secs

     total energy              =    -306.15445937 Ry
     estimated scf accuracy    <       0.00000240 Ry

     iteration # 12     ecut=    40.00 Ry     beta= 0.05
     Davidson diagonalization with overlap
     ethr =  2.11E-09,  avg # of iterations =  2.0

     total cpu time spent up to now is      266.6 secs

     total energy              =    -306.15445923 Ry
     estimated scf accuracy    <       0.00000186 Ry

     iteration # 13     ecut=    40.00 Ry     beta= 0.05
     Davidson diagonalization with overlap
     ethr =  1.63E-09,  avg # of iterations =  2.0

     total cpu time spent up to now is      270.7 secs

     total energy              =    -306.15445920 Ry
     estimated scf accuracy    <       0.00000115 Ry

     iteration # 14     ecut=    40.00 Ry     beta= 0.05
     Davidson diagonalization with overlap
     ethr =  1.01E-09,  avg # of iterations =  1.0

     total cpu time spent up to now is      274.8 secs

     total energy              =    -306.15445899 Ry
     estimated scf accuracy    <       0.00000118 Ry

     iteration # 15     ecut=    40.00 Ry     beta= 0.05
     Davidson diagonalization with overlap
     ethr =  1.01E-09,  avg # of iterations =  2.0

     total cpu time spent up to now is      278.7 secs

     End of self-consistent calculation

          k = 0.0000 0.0000 0.0000 (  7799 PWs)   bands (ev):

   -14.2932 -13.2829 -12.8159  -8.8854  -8.8466  -8.8021  -8.3407  -8.3339
    -8.2816  -8.1133  -8.0882  -8.0218  -7.9342  -7.3437  -7.3403  -7.3208
    -7.1566  -7.1425  -7.1281  -7.0057  -6.9940  -6.9903  -3.8039  -1.9324
    -1.7019  -0.9341  -0.8649  -0.8512  -0.8386  -0.4632  -0.4354  -0.4013
    -0.3787  -0.3697  -0.3532  -0.3381  -0.3016  -0.1763  -0.1503  -0.0709
     0.9426   1.6158   2.0487   2.0845   2.3326   2.5714   2.5943   2.7881
     2.8067   2.9119   2.9217   3.3946   3.4547   3.4870   3.8917   3.9082
     3.9683   7.0988   7.1180   7.1216   7.6184   7.6806   7.7633   8.0352
     8.0667   8.2114   9.3988  10.6045

     the Fermi energy is     5.0603 ev

!    total energy              =    -306.15445859 Ry
     estimated scf accuracy    <       0.00000051 Ry
     smearing contrib. (-TS)   =      -0.00000000 Ry
     internal energy E=F+TS    =    -306.15445859 Ry

     The total energy is F=E-TS. E is the sum of the following terms:
     one-electron contribution =    -294.73902065 Ry
     hartree contribution      =     200.29466033 Ry
     xc contribution           =    -112.02194608 Ry
     ewald contribution        =     -99.68815218 Ry

     convergence has been achieved in  15 iterations

     Forces acting on atoms (cartesian axes, Ry/au):

     atom    1 type  1   force =     0.00177303    0.00731118   -0.00199248
     atom    2 type  1   force =    -0.00208867   -0.00614339    0.00149887
     atom    3 type  1   force =     0.00435154    0.00451518   -0.00001556
     atom    4 type  1   force =    -0.00109674   -0.00760994   -0.00075982
     atom    5 type  1   force =     0.00275975    0.00324336    0.00342151
     atom    6 type  1   force =    -0.00398332   -0.00354680    0.00008653
     atom    7 type  1   force =     0.00297212    0.00043655    0.00001449
     atom    8 type  1   force =    -0.00942956    0.00752921    0.00218140
     atom    9 type  1   force =     0.00564943    0.00621449   -0.00035204
     atom   10 type  1   force =    -0.00049402   -0.00065057    0.00008841
     atom   11 type  1   force =     0.00708218    0.00839319    0.00181496
     atom   12 type  1   force =    -0.00225236   -0.00052311    0.00016590
     atom   13 type  1   force =     0.00141035    0.00220847    0.00014246
     atom   14 type  1   force =     0.00040412   -0.00294464   -0.00026881
     atom   15 type  1   force =    -0.00006472   -0.00381438    0.00087007
     atom   16 type  1   force =    -0.00238403    0.00017598    0.00099985
     atom   17 type  1   force =    -0.00032776   -0.00608005    0.00189252
     atom   18 type  1   force =    -0.00863963   -0.00286669    0.00020860
     atom   19 type  1   force =    -0.00038846    0.00056532    0.00018801
     atom   20 type  1   force =    -0.00557477   -0.00488414   -0.00256318
     atom   21 type  1   force =     0.00713603    0.00044748    0.00005938
     atom   22 type  1   force =    -0.00148995    0.00143917   -0.00144187
     atom   23 type  1   force =     0.00237086    0.01184297   -0.00606410
     atom   24 type  1   force =    -0.00262152   -0.00016617    0.00013845
     atom   25 type  2   force =    -0.00034460    0.00353432    0.00469279
     atom   26 type  2   force =     0.00023567    0.00090859   -0.00181890
     atom   27 type  2   force =     0.00067230   -0.00213539   -0.00040687
     atom   28 type  2   force =     0.00270529   -0.00208126    0.00672183
     atom   29 type  2   force =     0.00043407   -0.00075878    0.01382154
     atom   30 type  2   force =     0.00158000    0.00107469    0.00098507
     atom   31 type  2   force =     0.00089633   -0.00072308   -0.00078588
     atom   32 type  2   force =    -0.00033595    0.00057523   -0.00085017
     atom   33 type  2   force =    -0.00178598   -0.00230981    0.00232935
     atom   34 type  2   force =     0.00125809    0.00034186   -0.00121801
     atom   35 type  2   force =    -0.00076689    0.00049293   -0.00074700
     atom   36 type  2   force =    -0.01115692    0.02440397   -0.00540825
     atom   37 type  2   force =    -0.00048386    0.00062607   -0.00114767
     atom   38 type  2   force =    -0.00030101    0.00029965   -0.00147451
     atom   39 type  2   force =    -0.00076651    0.00069355   -0.00018214
     atom   40 type  2   force =    -0.01985570    0.00564295   -0.00859168
     atom   41 type  2   force =     0.01333042    0.00225037   -0.00361500
     atom   42 type  2   force =     0.01961134   -0.04792854   -0.00261804

     Total force =     0.067347     Total SCF correction =     0.001740


     Computing stress (Cartesian axis) and pressure

          total   stress  (Ry/bohr**3)                   (kbar)     P=       -7.03
  -0.00003971   0.00004889   0.00001579           -5.84        7.19        2.32
   0.00004889  -0.00016340  -0.00004252            7.19      -24.04       -6.25
   0.00001579  -0.00004252   0.00005972            2.32       -6.25        8.79

     Energy error            =      6.0E-03 Ry
     Gradient error          =      4.8E-02 Ry/Bohr
     Cell gradient error     =      2.4E+01 kbar

     number of scf cycles    =   2
     number of bfgs steps    =   1

     enthalpy           old  =    -306.1484262638 Ry
     enthalpy           new  =    -306.1544585901 Ry

     CASE: enthalpy          _new < enthalpy          _old

     new trust radius        =       0.0496431181 bohr
     new conv_thr            =       0.0000004793 Ry

     new unit-cell volume =   1835.52281 a.u.^3 (   271.99642 Ang^3 )
     density =      1.87060 g/cm^3

CELL_PARAMETERS (alat=  8.00000437)
   1.173724661  -0.002369729  -0.001948471
  -0.588909059   1.017486383  -0.001748807
   0.009688712  -0.000131839   3.005382791

ATOMIC_POSITIONS (crystal)
C               -0.0002262244       -0.0004379221        0.1729610594    0   0   1
C               -0.0000614008       -0.0002116698        0.3576478420    0   0   1
C                0.0000809715       -0.0003141010        0.9015393107    0   0   1
C                0.1665259959        0.3330680475        0.1714571583    0   0   1
C                0.3336531511        0.1666127166        0.3589067505    0   0   1
C                0.1668783048        0.3335237302        0.9011585520    0   0   1
C                0.4997509501       -0.0003493200        0.1733154955    0   0   1
C                0.5002719100       -0.0002025146        0.3574645755    0   0   1
C                0.5003592449       -0.0000571968        0.9016974560    0   0   1
C                0.6666069126        0.3329907021        0.1715703032    0   0   1
C                0.8331649221        0.1662890403        0.3590614915    0   0   1
C                0.6669690769        0.3334454768        0.9013505374    0   0   1
C               -0.0003289656        0.4994189150        0.1728524342    0   0   1
C                0.0003772165        0.4999532812        0.3574356270    0   0   1
C                0.0011328859        0.5008195919        0.9008166227    0   0   1
C                0.1663292590        0.8327005212        0.1715586933    0   0   1
C                0.3338471671        0.6667375225        0.3594716083    0   0   1
C                0.1677605185        0.8338327103        0.9011083860    0   0   1
C                0.5002041175        0.4997983147        0.1737736343    0   0   1
C                0.5005866313        0.5002813466        0.3564419243    0   0   1
C                0.4999111967        0.4999195242        0.9017156801    0   0   1
C                0.6663818428        0.8330243886        0.1719561904    0   0   1
C                0.8337771480        0.6666605235        0.3582093923    0   0   1
C                0.6667412056        0.8329742441        0.9022296720    0   0   1
H                0.8250315116        1.3009215695        0.6852520108
H                0.5850862088        1.1090699328        0.6869787610
H                0.5363980016        0.8700383509        0.6943016961
H                0.6725896879        0.5786118637        0.6910726788
H                0.8662401298        0.5306271261        0.6867537271
H                0.4398788612        0.3909921225        0.6861741955
H                0.1498667949       -0.0404323068        0.6843221589
H                0.3915228585        0.1489267353        0.6857766917
H                0.1048178316        0.7230733939        0.6846519266
H                0.2979847757        0.6790507965        0.6892362243
H                0.9569802635        1.0045183141        0.6881407301
H                0.7405757150        0.8433302189        0.5398897405
H                0.0153237591        0.2457741609        0.6848822289
H                0.2469860148        0.4366789933        0.6852425180
H                0.7200022127        0.8173244937        0.6961973609
H                0.5746243848        0.8083044570        0.5382011767
H                0.7109318904        0.4104739461        0.5388746569
H                0.8235030341        0.5888901027        0.5356674084



     Writing config-only to output data dir ../../results/remote/9h2_abs/9H2abs_C.save/ :
     XML data file
     NEW-OLD atomic charge density approx. for the potential

     Check: negative core charge=   -0.000002

     total cpu time spent up to now is      288.7 secs

     Self-consistent Calculation

     iteration #  1     ecut=    40.00 Ry     beta= 0.05
     Davidson diagonalization with overlap
     ethr =  1.00E-06,  avg # of iterations =  7.0

     total cpu time spent up to now is      296.7 secs

     total energy              =    -306.15995867 Ry
     estimated scf accuracy    <       0.00044832 Ry

     iteration #  2     ecut=    40.00 Ry     beta= 0.05
     Davidson diagonalization with overlap
     ethr =  3.93E-07,  avg # of iterations =  2.0

     total cpu time spent up to now is      300.9 secs

     total energy              =    -306.15986340 Ry
     estimated scf accuracy    <       0.00042991 Ry

     iteration #  3     ecut=    40.00 Ry     beta= 0.05
     Davidson diagonalization with overlap
     ethr =  3.77E-07,  avg # of iterations =  2.0

     total cpu time spent up to now is      305.1 secs

     total energy              =    -306.15982709 Ry
     estimated scf accuracy    <       0.00011672 Ry

     iteration #  4     ecut=    40.00 Ry     beta= 0.05
     Davidson diagonalization with overlap
     ethr =  1.02E-07,  avg # of iterations =  3.0

     total cpu time spent up to now is      309.3 secs

     total energy              =    -306.15984424 Ry
     estimated scf accuracy    <       0.00000644 Ry

     iteration #  5     ecut=    40.00 Ry     beta= 0.05
     Davidson diagonalization with overlap
     ethr =  5.65E-09,  avg # of iterations =  5.0

     total cpu time spent up to now is      315.1 secs

     total energy              =    -306.15984795 Ry
     estimated scf accuracy    <       0.00000631 Ry

     iteration #  6     ecut=    40.00 Ry     beta= 0.05
     Davidson diagonalization with overlap
     ethr =  5.53E-09,  avg # of iterations =  1.0

     total cpu time spent up to now is      319.0 secs

     total energy              =    -306.15984640 Ry
     estimated scf accuracy    <       0.00000653 Ry

     iteration #  7     ecut=    40.00 Ry     beta= 0.05
     Davidson diagonalization with overlap
     ethr =  5.53E-09,  avg # of iterations =  2.0

     total cpu time spent up to now is      323.1 secs

     total energy              =    -306.15984720 Ry
     estimated scf accuracy    <       0.00000314 Ry

     iteration #  8     ecut=    40.00 Ry     beta= 0.05
     Davidson diagonalization with overlap
     ethr =  2.76E-09,  avg # of iterations =  4.0

     total cpu time spent up to now is      327.6 secs

     total energy              =    -306.15984741 Ry
     estimated scf accuracy    <       0.00000388 Ry

     iteration #  9     ecut=    40.00 Ry     beta= 0.05
     Davidson diagonalization with overlap
     ethr =  2.76E-09,  avg # of iterations =  1.0

     total cpu time spent up to now is      331.5 secs

     total energy              =    -306.15984615 Ry
     estimated scf accuracy    <       0.00000340 Ry

     iteration # 10     ecut=    40.00 Ry     beta= 0.05
     Davidson diagonalization with overlap
     ethr =  2.76E-09,  avg # of iterations =  1.0

     total cpu time spent up to now is      335.4 secs

     total energy              =    -306.15984607 Ry
     estimated scf accuracy    <       0.00000090 Ry

     iteration # 11     ecut=    40.00 Ry     beta= 0.05
     Davidson diagonalization with overlap
     ethr =  7.91E-10,  avg # of iterations =  2.0

     total cpu time spent up to now is      339.6 secs

     End of self-consistent calculation

          k = 0.0000 0.0000 0.0000 (  7799 PWs)   bands (ev):

   -14.3138 -13.3067 -12.8563  -8.8899  -8.8427  -8.8199  -8.3645  -8.3264
    -8.3048  -8.1243  -8.0788  -8.0424  -7.9464  -7.3721  -7.3650  -7.3492
    -7.1734  -7.1627  -7.1472  -7.0358  -7.0264  -7.0198  -3.8123  -1.8803
    -1.7220  -0.9277  -0.8943  -0.8628  -0.8461  -0.4567  -0.4379  -0.4248
    -0.4058  -0.3807  -0.3619  -0.3193  -0.2963  -0.1814  -0.1309  -0.0848
     0.9064   1.5551   2.0455   2.0828   2.3017   2.5716   2.5966   2.7852
     2.8024   2.9187   2.9278   3.4026   3.4467   3.4690   3.8728   3.9067
     3.9441   7.1006   7.1192   7.1265   7.6102   7.6659   7.7614   8.0322
     8.0625   8.2019   9.3933  10.6476

     the Fermi energy is     5.0875 ev

!    total energy              =    -306.15984593 Ry
     estimated scf accuracy    <       0.00000042 Ry
     smearing contrib. (-TS)   =      -0.00000000 Ry
     internal energy E=F+TS    =    -306.15984593 Ry

     The total energy is F=E-TS. E is the sum of the following terms:
     one-electron contribution =    -297.22365610 Ry
     hartree contribution      =     201.53808835 Ry
     xc contribution           =    -112.08643042 Ry
     ewald contribution        =     -98.38784776 Ry

     convergence has been achieved in  11 iterations

     Forces acting on atoms (cartesian axes, Ry/au):

     atom    1 type  1   force =     0.00169619    0.00572208   -0.00174532
     atom    2 type  1   force =    -0.00211312   -0.00419431    0.00086616
     atom    3 type  1   force =     0.00406028    0.00285481   -0.00005077
     atom    4 type  1   force =    -0.00096880   -0.00663456   -0.00009023
     atom    5 type  1   force =     0.00247114    0.00208711    0.00140402
     atom    6 type  1   force =    -0.00378668   -0.00187885    0.00015341
     atom    7 type  1   force =     0.00288989   -0.00107842   -0.00003934
     atom    8 type  1   force =    -0.00932968    0.00872059    0.00211336
     atom    9 type  1   force =     0.00541967    0.00456074   -0.00014824
     atom   10 type  1   force =    -0.00006393    0.00019722    0.00091848
     atom   11 type  1   force =     0.00710458    0.00709156    0.00047105
     atom   12 type  1   force =    -0.00198554    0.00120438    0.00020216
     atom   13 type  1   force =     0.00154141    0.00029575   -0.00001283
     atom   14 type  1   force =     0.00075055   -0.00127671   -0.00061782
     atom   15 type  1   force =    -0.00036085   -0.00561684    0.00063562
     atom   16 type  1   force =    -0.00230003    0.00144574    0.00137070
     atom   17 type  1   force =    -0.00090565   -0.00690645   -0.00000448
     atom   18 type  1   force =    -0.00843375   -0.00104693    0.00023412
     atom   19 type  1   force =    -0.00069782   -0.00116737    0.00004117
     atom   20 type  1   force =    -0.00549447   -0.00361803   -0.00159631
     atom   21 type  1   force =     0.00687706   -0.00128030    0.00005326
     atom   22 type  1   force =    -0.00103134    0.00268392   -0.00018940
     atom   23 type  1   force =     0.00230295    0.01061068   -0.00367491
     atom   24 type  1   force =    -0.00240282    0.00170567   -0.00001797
     atom   25 type  2   force =    -0.00004767    0.00147577    0.00449364
     atom   26 type  2   force =     0.00038258    0.00054691   -0.00121938
     atom   27 type  2   force =     0.00028195   -0.00110043   -0.00061239
     atom   28 type  2   force =     0.00176425   -0.00142805    0.00581305
     atom   29 type  2   force =     0.00019532    0.00011621    0.01228685
     atom   30 type  2   force =     0.00103628    0.00102203    0.00090679
     atom   31 type  2   force =     0.00091807   -0.00102234   -0.00058522
     atom   32 type  2   force =     0.00003874    0.00013262   -0.00076891
     atom   33 type  2   force =    -0.00121447   -0.00116439    0.00243632
     atom   34 type  2   force =     0.00083043    0.00028940   -0.00112021
     atom   35 type  2   force =    -0.00060458    0.00028710   -0.00079406
     atom   36 type  2   force =    -0.00002833    0.02366401   -0.00486710
     atom   37 type  2   force =    -0.00035839    0.00051719   -0.00086563
     atom   38 type  2   force =    -0.00014927    0.00008709   -0.00125472
     atom   39 type  2   force =    -0.00028708    0.00073742   -0.00054757
     atom   40 type  2   force =    -0.02707490    0.00230359   -0.00824603
     atom   41 type  2   force =     0.01177102    0.00247679   -0.00308898
     atom   42 type  2   force =     0.01730682   -0.04342241   -0.00224232

     Total force =     0.063260     Total SCF correction =     0.001223


     Computing stress (Cartesian axis) and pressure

          total   stress  (Ry/bohr**3)                   (kbar)     P=        0.98
  -0.00001418   0.00004521   0.00001310           -2.09        6.65        1.93
   0.00004521  -0.00000994  -0.00003774            6.65       -1.46       -5.55
   0.00001310  -0.00003774   0.00004414            1.93       -5.55        6.49

     Energy error            =      5.4E-03 Ry
     Gradient error          =      4.3E-02 Ry/Bohr
     Cell gradient error     =      6.6E+00 kbar

     number of scf cycles    =   3
     number of bfgs steps    =   2

     enthalpy           old  =    -306.1544585901 Ry
     enthalpy           new  =    -306.1598459320 Ry

     CASE: enthalpy          _new < enthalpy          _old

     new trust radius        =       0.0743359001 bohr
     new conv_thr            =       0.0000004342 Ry

     new unit-cell volume =   1840.77209 a.u.^3 (   272.77428 Ang^3 )
     density =      1.86527 g/cm^3

CELL_PARAMETERS (alat=  8.00000437)
   1.173873670  -0.001845672  -0.000995528
  -0.588533145   1.016809483  -0.004593219
   0.012176394  -0.007140696   3.014862169

ATOMIC_POSITIONS (crystal)
C               -0.0002242800       -0.0004356550        0.1727781483    0   0   1
C               -0.0000629133       -0.0002132903        0.3577934711    0   0   1
C                0.0000809397       -0.0003141121        0.9015429159    0   0   1
C                0.1665264613        0.3330685183        0.1714117128    0   0   1
C                0.3336504955        0.1666098462        0.3591617923    0   0   1
C                0.1668782114        0.3335236023        0.9011668961    0   0   1
C                0.4997510304       -0.0003492428        0.1733075513    0   0   1
C                0.5002697924       -0.0002050446        0.3576623402    0   0   1
C                0.5003595041       -0.0000569122        0.9016726713    0   0   1
C                0.6666065762        0.3329901542        0.1715983167    0   0   1
C                0.8331636222        0.1662876861        0.3591875176    0   0   1
C                0.6669689246        0.3334452799        0.9013644100    0   0   1
C               -0.0003289507        0.4994189206        0.1728507506    0   0   1
C                0.0003774787        0.4999536951        0.3574135099    0   0   1
C                0.0011320963        0.5008186875        0.9008912709    0   0   1
C                0.1663281273        0.8326991130        0.1716630769    0   0   1
C                0.3338458124        0.6667362515        0.3596062346    0   0   1
C                0.1677603017        0.8338324473        0.9011285400    0   0   1
C                0.5002040631        0.4997982438        0.1737785550    0   0   1
C                0.5005887629        0.5002837700        0.3562399911    0   0   1
C                0.4999111088        0.4999194312        0.9017241798    0   0   1
C                0.6663828651        0.8330254033        0.1718559037    0   0   1
C                0.8337828050        0.6666667416        0.3576684197    0   0   1
C                0.6667410780        0.8329741322        0.9022425433    0   0   1
H                0.8253628411        1.3017297999        0.6856740727
H                0.5852703279        1.1092833239        0.6868244799
H                0.5362657985        0.8695307591        0.6942684106
H                0.6729113590        0.5780863830        0.6916738189
H                0.8662473364        0.5304705072        0.6879950043
H                0.4403605314        0.3912590605        0.6862615215
H                0.1499803790       -0.0406331456        0.6842541852
H                0.3915225654        0.1490605135        0.6856976060
H                0.1041376172        0.7225063995        0.6848655138
H                0.2983231053        0.6791362019        0.6891303890
H                0.9568635573        1.0046425715        0.6880746067
H                0.7400536791        0.8497380871        0.5393913807
H                0.0152994027        0.2459271298        0.6847825950
H                0.2469567437        0.4367674827        0.6851128326
H                0.7199485303        0.8175215142        0.6961779999
H                0.5720020835        0.8100000139        0.5374329365
H                0.7106309041        0.4049743793        0.5386534118
H                0.8253555523        0.5821225084        0.5353385694



     Writing config-only to output data dir ../../results/remote/9h2_abs/9H2abs_C.save/ :
     XML data file
     NEW-OLD atomic charge density approx. for the potential

     Check: negative core charge=   -0.000002

     total cpu time spent up to now is      349.5 secs

     Self-consistent Calculation

     iteration #  1     ecut=    40.00 Ry     beta= 0.05
     Davidson diagonalization with overlap
     ethr =  1.00E-06,  avg # of iterations =  8.0

     total cpu time spent up to now is      358.0 secs

     total energy              =    -306.16652640 Ry
     estimated scf accuracy    <       0.00084013 Ry

     iteration #  2     ecut=    40.00 Ry     beta= 0.05
     Davidson diagonalization with overlap
     ethr =  7.37E-07,  avg # of iterations =  1.0

     total cpu time spent up to now is      361.8 secs

     total energy              =    -306.16623643 Ry
     estimated scf accuracy    <       0.00078977 Ry

     iteration #  3     ecut=    40.00 Ry     beta= 0.05
     Davidson diagonalization with overlap
     ethr =  6.93E-07,  avg # of iterations =  2.0

     total cpu time spent up to now is      366.0 secs

     total energy              =    -306.16631075 Ry
     estimated scf accuracy    <       0.00001456 Ry

     iteration #  4     ecut=    40.00 Ry     beta= 0.05
     Davidson diagonalization with overlap
     ethr =  1.28E-08,  avg # of iterations =  5.0

     total cpu time spent up to now is      371.7 secs

     total energy              =    -306.16631905 Ry
     estimated scf accuracy    <       0.00000901 Ry

     iteration #  5     ecut=    40.00 Ry     beta= 0.05
     Davidson diagonalization with overlap
     ethr =  7.90E-09,  avg # of iterations =  2.0

     total cpu time spent up to now is      375.9 secs

     total energy              =    -306.16631959 Ry
     estimated scf accuracy    <       0.00000932 Ry

     iteration #  6     ecut=    40.00 Ry     beta= 0.05
     Davidson diagonalization with overlap
     ethr =  7.90E-09,  avg # of iterations =  1.0

     total cpu time spent up to now is      379.8 secs

     total energy              =    -306.16631635 Ry
     estimated scf accuracy    <       0.00000993 Ry

     iteration #  7     ecut=    40.00 Ry     beta= 0.05
     Davidson diagonalization with overlap
     ethr =  7.90E-09,  avg # of iterations =  2.0

     total cpu time spent up to now is      383.9 secs

     total energy              =    -306.16631698 Ry
     estimated scf accuracy    <       0.00000125 Ry

     iteration #  8     ecut=    40.00 Ry     beta= 0.05
     Davidson diagonalization with overlap
     ethr =  1.10E-09,  avg # of iterations =  4.0

     total cpu time spent up to now is      388.4 secs

     total energy              =    -306.16631715 Ry
     estimated scf accuracy    <       0.00000118 Ry

     iteration #  9     ecut=    40.00 Ry     beta= 0.05
     Davidson diagonalization with overlap
     ethr =  1.04E-09,  avg # of iterations =  1.0

     total cpu time spent up to now is      392.2 secs

     total energy              =    -306.16631700 Ry
     estimated scf accuracy    <       0.00000111 Ry

     iteration # 10     ecut=    40.00 Ry     beta= 0.05
     Davidson diagonalization with overlap
     ethr =  9.74E-10,  avg # of iterations =  2.0

     total cpu time spent up to now is      396.3 secs

     total energy              =    -306.16631693 Ry
     estimated scf accuracy    <       0.00000074 Ry

     iteration # 11     ecut=    40.00 Ry     beta= 0.05
     Davidson diagonalization with overlap
     ethr =  6.48E-10,  avg # of iterations =  2.0

     total cpu time spent up to now is      400.9 secs

     total energy              =    -306.16631700 Ry
     estimated scf accuracy    <       0.00000087 Ry

     iteration # 12     ecut=    40.00 Ry     beta= 0.05
     Davidson diagonalization with overlap
     ethr =  6.48E-10,  avg # of iterations =  1.0

     total cpu time spent up to now is      404.7 secs

     total energy              =    -306.16631684 Ry
     estimated scf accuracy    <       0.00000074 Ry

     iteration # 13     ecut=    40.00 Ry     beta= 0.05
     Davidson diagonalization with overlap
     ethr =  6.48E-10,  avg # of iterations =  2.0

     total cpu time spent up to now is      408.6 secs

     End of self-consistent calculation

          k = 0.0000 0.0000 0.0000 (  7799 PWs)   bands (ev):

   -14.3278 -13.3423 -12.8949  -8.8981  -8.8550  -8.8426  -8.3892  -8.3360
    -8.3328  -8.1535  -8.1088  -8.0859  -7.9659  -7.4084  -7.3911  -7.3833
    -7.2079  -7.1981  -7.1834  -7.0707  -7.0647  -7.0513  -3.8182  -1.8174
    -1.7503  -0.9373  -0.9219  -0.9065  -0.8729  -0.4804  -0.4648  -0.4582
    -0.4436  -0.4193  -0.3991  -0.3257  -0.3130  -0.2047  -0.1483  -0.1207
     0.8680   1.4546   2.0347   2.0704   2.2489   2.5483   2.5768   2.7603
     2.7728   2.8861   2.8937   3.3718   3.4164   3.4286   3.8254   3.8805
     3.9044   7.0684   7.0856   7.0985   7.5737   7.6186   7.7344   8.0057
     8.0259   8.1557   9.3600  10.6761

     the Fermi energy is     5.1054 ev

!    total energy              =    -306.16631667 Ry
     estimated scf accuracy    <       0.00000030 Ry
     smearing contrib. (-TS)   =      -0.00000000 Ry
     internal energy E=F+TS    =    -306.16631667 Ry

     The total energy is F=E-TS. E is the sum of the following terms:
     one-electron contribution =    -299.64275618 Ry
     hartree contribution      =     202.61592977 Ry
     xc contribution           =    -112.07575484 Ry
     ewald contribution        =     -97.06373542 Ry

     convergence has been achieved in  13 iterations

     Forces acting on atoms (cartesian axes, Ry/au):

     atom    1 type  1   force =     0.00126580    0.00507933   -0.00104901
     atom    2 type  1   force =    -0.00182428   -0.00323077    0.00000824
     atom    3 type  1   force =     0.00326530    0.00248626   -0.00013430
     atom    4 type  1   force =    -0.00041468   -0.00688491    0.00029556
     atom    5 type  1   force =     0.00173698    0.00210481   -0.00044176
     atom    6 type  1   force =    -0.00307312   -0.00141270    0.00020818
     atom    7 type  1   force =     0.00240507   -0.00156647    0.00018054
     atom    8 type  1   force =    -0.00869531    0.00878430    0.00173533
     atom    9 type  1   force =     0.00459849    0.00417163    0.00000220
     atom   10 type  1   force =     0.00092111   -0.00023230    0.00150082
     atom   11 type  1   force =     0.00664767    0.00688014   -0.00060006
     atom   12 type  1   force =    -0.00124442    0.00162268    0.00022052
     atom   13 type  1   force =     0.00131184   -0.00078900    0.00016180
     atom   14 type  1   force =     0.00143853   -0.00049602   -0.00122675
     atom   15 type  1   force =    -0.00109917   -0.00599767    0.00037477
     atom   16 type  1   force =    -0.00181804    0.00163218    0.00142641
     atom   17 type  1   force =    -0.00210897   -0.00629177   -0.00162460
     atom   18 type  1   force =    -0.00762987   -0.00056061    0.00021071
     atom   19 type  1   force =    -0.00144777   -0.00200157    0.00020163
     atom   20 type  1   force =    -0.00486716   -0.00340901   -0.00074167
     atom   21 type  1   force =     0.00606640   -0.00164591   -0.00001104
     atom   22 type  1   force =    -0.00003611    0.00282589    0.00088949
     atom   23 type  1   force =     0.00193801    0.01046648   -0.00093127
     atom   24 type  1   force =    -0.00170430    0.00223774   -0.00028212
     atom   25 type  2   force =     0.00028363   -0.00090271    0.00418896
     atom   26 type  2   force =     0.00047839    0.00006950   -0.00039375
     atom   27 type  2   force =    -0.00008346    0.00015383   -0.00084140
     atom   28 type  2   force =     0.00053679   -0.00059727    0.00458251
     atom   29 type  2   force =    -0.00006386    0.00101114    0.01016051
     atom   30 type  2   force =     0.00035682    0.00089621    0.00079050
     atom   31 type  2   force =     0.00087928   -0.00131699   -0.00030155
     atom   32 type  2   force =     0.00050753   -0.00033205   -0.00064636
     atom   33 type  2   force =    -0.00045098    0.00028466    0.00250975
     atom   34 type  2   force =     0.00031486    0.00023437   -0.00097644
     atom   35 type  2   force =    -0.00035583    0.00004113   -0.00082770
     atom   36 type  2   force =    -0.00045507    0.01995678   -0.00450409
     atom   37 type  2   force =    -0.00016637    0.00040848   -0.00044238
     atom   38 type  2   force =     0.00007080   -0.00022032   -0.00093521
     atom   39 type  2   force =     0.00022183    0.00080474   -0.00099150
     atom   40 type  2   force =    -0.02157692    0.00084229   -0.00744369
     atom   41 type  2   force =     0.00928532    0.00012557   -0.00232050
     atom   42 type  2   force =     0.01458527   -0.03523205   -0.00198129

     Total force =     0.051651     Total SCF correction =     0.001225


     Computing stress (Cartesian axis) and pressure

          total   stress  (Ry/bohr**3)                   (kbar)     P=        0.26
  -0.00003030   0.00002314   0.00000916           -4.46        3.40        1.35
   0.00002314   0.00001433  -0.00003058            3.40        2.11       -4.50
   0.00000916  -0.00003058   0.00002118            1.35       -4.50        3.12

     Energy error            =      6.5E-03 Ry
     Gradient error          =      3.5E-02 Ry/Bohr
     Cell gradient error     =      4.5E+00 kbar

     number of scf cycles    =   4
     number of bfgs steps    =   3

     enthalpy           old  =    -306.1598459320 Ry
     enthalpy           new  =    -306.1663166706 Ry

     CASE: enthalpy          _new < enthalpy          _old

     new trust radius        =       0.1113869408 bohr
     new conv_thr            =       0.0000003523 Ry

     new unit-cell volume =   1846.67305 a.u.^3 (   273.64871 Ang^3 )
     density =      1.85931 g/cm^3

CELL_PARAMETERS (alat=  8.00000437)
   1.173036068  -0.001677861   0.000348863
  -0.587976288   1.016637900  -0.008774518
   0.015677597  -0.017502922   3.027073722

ATOMIC_POSITIONS (crystal)
C               -0.0002216012       -0.0004322391        0.1725331943    0   0   1
C               -0.0000645972       -0.0002148804        0.3579605685    0   0   1
C                0.0000809816       -0.0003139541        0.9015415454    0   0   1
C                0.1665268443        0.3330686625        0.1713686294    0   0   1
C                0.3336478349        0.1666076182        0.3594323702    0   0   1
C                0.1668779873        0.3335232173        0.9011850619    0   0   1
C                0.4997509546       -0.0003494715        0.1733113725    0   0   1
C                0.5002664806       -0.0002096305        0.3579566543    0   0   1
C                0.5003597942       -0.0000566301        0.9016440822    0   0   1
C                0.6666053481        0.3329877666        0.1716913340    0   0   1
C                0.8331625136        0.1662870859        0.3593079604    0   0   1
C                0.6669686334        0.3334448185        0.9013889253    0   0   1
C               -0.0003290927        0.4994186381        0.1728613380    0   0   1
C                0.0003785655        0.4999557410        0.3573296341    0   0   1
C                0.0011310017        0.5008173330        0.9009923324    0   0   1
C                0.1663260773        0.8326959987        0.1718387997    0   0   1
C                0.3338452261        0.6667370014        0.3596949930    0   0   1
C                0.1677599456        0.8338319356        0.9011597578    0   0   1
C                0.5002038193        0.4997978351        0.1737985480    0   0   1
C                0.5005915651        0.5002870813        0.3559776449    0   0   1
C                0.4999110247        0.4999193642        0.9017328105    0   0   1
C                0.6663834819        0.8330252876        0.1717783410    0   0   1
C                0.8337896469        0.6666740096        0.3570085570    0   0   1
C                0.6667411304        0.8329744143        0.9022428112    0   0   1
H                0.8256978992        1.3025001301        0.6863388114
H                0.5855336824        1.1095232018        0.6866372063
H                0.5361221889        0.8689915331        0.6941945773
H                0.6732869304        0.5774199067        0.6925560943
H                0.8663100744        0.5304180687        0.6898493227
H                0.4409959467        0.3916681974        0.6863946634
H                0.1501225403       -0.0410296964        0.6841658329
H                0.3915619139        0.1491701451        0.6855791008
H                0.1033478916        0.7219141121        0.6852192386
H                0.2987611724        0.6792636003        0.6889684691
H                0.9566955234        1.0047883075        0.6879637346
H                0.7392401507        0.8593780972        0.5386092320
H                0.0152841854        0.2461519088        0.6846529114
H                0.2469177552        0.4368390171        0.6849263507
H                0.7199698195        0.8178563227        0.6961110818
H                0.5681238472        0.8123149549        0.5362398397
H                0.7100360896        0.3965914280        0.5383362837
H                0.8281043277        0.5719498285        0.5348486295



     Writing config-only to output data dir ../../results/remote/9h2_abs/9H2abs_C.save/ :
     XML data file
     NEW-OLD atomic charge density approx. for the potential

     Check: negative core charge=   -0.000002

     total cpu time spent up to now is      418.6 secs

     Self-consistent Calculation

     iteration #  1     ecut=    40.00 Ry     beta= 0.05
     Davidson diagonalization with overlap
     ethr =  1.00E-06,  avg # of iterations =  8.0

     total cpu time spent up to now is      427.6 secs

     total energy              =    -306.17414026 Ry
     estimated scf accuracy    <       0.00183981 Ry

     iteration #  2     ecut=    40.00 Ry     beta= 0.05
     Davidson diagonalization with overlap
     ethr =  1.61E-06,  avg # of iterations =  1.0

     total cpu time spent up to now is      431.4 secs

     total energy              =    -306.17343930 Ry
     estimated scf accuracy    <       0.00171069 Ry

     iteration #  3     ecut=    40.00 Ry     beta= 0.05
     Davidson diagonalization with overlap
     ethr =  1.50E-06,  avg # of iterations =  2.0

     total cpu time spent up to now is      435.6 secs

     total energy              =    -306.17366501 Ry
     estimated scf accuracy    <       0.00002417 Ry

     iteration #  4     ecut=    40.00 Ry     beta= 0.05
     Davidson diagonalization with overlap
     ethr =  2.12E-08,  avg # of iterations =  4.0

     total cpu time spent up to now is      440.9 secs

     total energy              =    -306.17367612 Ry
     estimated scf accuracy    <       0.00001865 Ry

     iteration #  5     ecut=    40.00 Ry     beta= 0.05
     Davidson diagonalization with overlap
     ethr =  1.64E-08,  avg # of iterations =  1.0

     total cpu time spent up to now is      444.8 secs

     total energy              =    -306.17367149 Ry
     estimated scf accuracy    <       0.00002025 Ry

     iteration #  6     ecut=    40.00 Ry     beta= 0.05
     Davidson diagonalization with overlap
     ethr =  1.64E-08,  avg # of iterations =  2.0

     total cpu time spent up to now is      448.9 secs

     total energy              =    -306.17366979 Ry
     estimated scf accuracy    <       0.00000563 Ry

     iteration #  7     ecut=    40.00 Ry     beta= 0.05
     Davidson diagonalization with overlap
     ethr =  4.94E-09,  avg # of iterations =  3.0

     total cpu time spent up to now is      453.2 secs

     total energy              =    -306.17367075 Ry
     estimated scf accuracy    <       0.00000061 Ry

     iteration #  8     ecut=    40.00 Ry     beta= 0.05
     Davidson diagonalization with overlap
     ethr =  5.37E-10,  avg # of iterations =  4.0

     total cpu time spent up to now is      458.5 secs

     total energy              =    -306.17367098 Ry
     estimated scf accuracy    <       0.00000054 Ry

     iteration #  9     ecut=    40.00 Ry     beta= 0.05
     Davidson diagonalization with overlap
     ethr =  4.72E-10,  avg # of iterations =  1.0

     total cpu time spent up to now is      462.4 secs

     total energy              =    -306.17367100 Ry
     estimated scf accuracy    <       0.00000054 Ry

     iteration # 10     ecut=    40.00 Ry     beta= 0.05
     Davidson diagonalization with overlap
     ethr =  4.72E-10,  avg # of iterations =  1.0

     total cpu time spent up to now is      466.3 secs

     total energy              =    -306.17367090 Ry
     estimated scf accuracy    <       0.00000056 Ry

     iteration # 11     ecut=    40.00 Ry     beta= 0.05
     Davidson diagonalization with overlap
     ethr =  4.72E-10,  avg # of iterations =  2.0

     total cpu time spent up to now is      470.6 secs

     total energy              =    -306.17367105 Ry
     estimated scf accuracy    <       0.00000036 Ry

     iteration # 12     ecut=    40.00 Ry     beta= 0.05
     Davidson diagonalization with overlap
     ethr =  3.18E-10,  avg # of iterations =  4.0

     total cpu time spent up to now is      475.9 secs

     total energy              =    -306.17367108 Ry
     estimated scf accuracy    <       0.00000126 Ry

     iteration # 13     ecut=    40.00 Ry     beta= 0.05
     Davidson diagonalization with overlap
     ethr =  3.18E-10,  avg # of iterations =  1.0

     total cpu time spent up to now is      480.2 secs

     total energy              =    -306.17367062 Ry
     estimated scf accuracy    <       0.00000089 Ry

     iteration # 14     ecut=    40.00 Ry     beta= 0.05
     Davidson diagonalization with overlap
     ethr =  3.18E-10,  avg # of iterations =  4.0

     total cpu time spent up to now is      486.2 secs

     End of self-consistent calculation

          k = 0.0000 0.0000 0.0000 (  7799 PWs)   bands (ev):

   -14.3549 -13.3818 -12.9509  -8.9232  -8.8824  -8.8641  -8.4276  -8.3676
    -8.3596  -8.1836  -8.1490  -8.1203  -7.9836  -7.4629  -7.4319  -7.4286
    -7.2465  -7.2364  -7.2226  -7.1232  -7.1178  -7.0952  -3.8336  -1.8119
    -1.7051  -0.9689  -0.9537  -0.9474  -0.9091  -0.5181  -0.5038  -0.4939
    -0.4794  -0.4611  -0.4460  -0.3416  -0.3083  -0.2227  -0.1750  -0.1420
     0.8214   1.3180   2.0059   2.0636   2.1854   2.5158   2.5501   2.7248
     2.7339   2.8565   2.8617   3.3306   3.3813   3.3926   3.7626   3.8365
     3.8706   7.0336   7.0480   7.0702   7.5276   7.5530   7.7030   7.9770
     7.9821   8.1017   9.3184  10.7464

     the Fermi energy is     5.1513 ev

!    total energy              =    -306.17367082 Ry
     estimated scf accuracy    <       0.00000006 Ry
     smearing contrib. (-TS)   =      -0.00000000 Ry
     internal energy E=F+TS    =    -306.17367082 Ry

     The total energy is F=E-TS. E is the sum of the following terms:
     one-electron contribution =    -303.08010371 Ry
     hartree contribution      =     204.19233785 Ry
     xc contribution           =    -112.07544566 Ry
     ewald contribution        =     -95.21045929 Ry

     convergence has been achieved in  14 iterations

     Forces acting on atoms (cartesian axes, Ry/au):

     atom    1 type  1   force =     0.00142311    0.00495233    0.00021983
     atom    2 type  1   force =    -0.00217008   -0.00265468   -0.00112904
     atom    3 type  1   force =     0.00296364    0.00316329   -0.00018872
     atom    4 type  1   force =    -0.00025127   -0.00814054    0.00056962
     atom    5 type  1   force =     0.00151165    0.00320771   -0.00250196
     atom    6 type  1   force =    -0.00294578   -0.00201629    0.00028631
     atom    7 type  1   force =     0.00241991   -0.00136637    0.00056330
     atom    8 type  1   force =    -0.00853678    0.00814332    0.00044014
     atom    9 type  1   force =     0.00435475    0.00486734    0.00021856
     atom   10 type  1   force =     0.00151971   -0.00172254    0.00166198
     atom   11 type  1   force =     0.00664272    0.00748987   -0.00195215
     atom   12 type  1   force =    -0.00102073    0.00100189    0.00031153
     atom   13 type  1   force =     0.00159717   -0.00133424    0.00053261
     atom   14 type  1   force =     0.00175698   -0.00043040   -0.00178096
     atom   15 type  1   force =    -0.00132780   -0.00536376    0.00011694
     atom   16 type  1   force =    -0.00185138    0.00111086    0.00097539
     atom   17 type  1   force =    -0.00314269   -0.00453804   -0.00317086
     atom   18 type  1   force =    -0.00740943   -0.00109879    0.00019252
     atom   19 type  1   force =    -0.00172476   -0.00217073    0.00050506
     atom   20 type  1   force =    -0.00465719   -0.00425919    0.00036817
     atom   21 type  1   force =     0.00582284   -0.00096653   -0.00001206
     atom   22 type  1   force =     0.00060490    0.00205245    0.00189579
     atom   23 type  1   force =     0.00209400    0.01097226    0.00288399
     atom   24 type  1   force =    -0.00152709    0.00182320   -0.00050805
     atom   25 type  2   force =     0.00066374   -0.00336001    0.00374557
     atom   26 type  2   force =     0.00042888   -0.00043487    0.00078764
[...]

     iteration # 14     ecut=    40.00 Ry     beta= 0.05
     Davidson diagonalization with overlap
     ethr =  3.82E-07,  avg # of iterations =  2.0

     total cpu time spent up to now is     4214.5 secs

     total energy              =    -306.19704719 Ry
     estimated scf accuracy    <       0.00021682 Ry

     iteration # 15     ecut=    40.00 Ry     beta= 0.05
     Davidson diagonalization with overlap
     ethr =  1.90E-07,  avg # of iterations =  2.0

     total cpu time spent up to now is     4218.9 secs

     total energy              =    -306.19703426 Ry
     estimated scf accuracy    <       0.00015686 Ry

     iteration # 16     ecut=    40.00 Ry     beta= 0.05
     Davidson diagonalization with overlap
     ethr =  1.38E-07,  avg # of iterations =  2.0

     total cpu time spent up to now is     4223.5 secs

     total energy              =    -306.19705097 Ry
     estimated scf accuracy    <       0.00010316 Ry

     iteration # 17     ecut=    40.00 Ry     beta= 0.05
     Davidson diagonalization with overlap
     ethr =  9.05E-08,  avg # of iterations =  1.0

     total cpu time spent up to now is     4227.7 secs

     total energy              =    -306.19705241 Ry
     estimated scf accuracy    <       0.00008701 Ry

     iteration # 18     ecut=    40.00 Ry     beta= 0.05
     Davidson diagonalization with overlap
     ethr =  7.63E-08,  avg # of iterations =  1.0

     total cpu time spent up to now is     4231.7 secs

     total energy              =    -306.19703342 Ry
     estimated scf accuracy    <       0.00008732 Ry

     iteration # 19     ecut=    40.00 Ry     beta= 0.05
     Davidson diagonalization with overlap
     ethr =  7.63E-08,  avg # of iterations =  1.0

     total cpu time spent up to now is     4235.7 secs

     total energy              =    -306.19702772 Ry
     estimated scf accuracy    <       0.00004297 Ry

     iteration # 20     ecut=    40.00 Ry     beta= 0.05
     Davidson diagonalization with overlap
     ethr =  3.77E-08,  avg # of iterations =  4.0

     total cpu time spent up to now is     4240.5 secs

     total energy              =    -306.19703684 Ry
     estimated scf accuracy    <       0.00003650 Ry

     iteration # 21     ecut=    40.00 Ry     beta= 0.05
     Davidson diagonalization with overlap
     ethr =  3.20E-08,  avg # of iterations =  1.0

     total cpu time spent up to now is     4244.6 secs

     total energy              =    -306.19703808 Ry
     estimated scf accuracy    <       0.00004211 Ry

     iteration # 22     ecut=    40.00 Ry     beta= 0.05
     Davidson diagonalization with overlap
     ethr =  3.20E-08,  avg # of iterations =  1.0

     total cpu time spent up to now is     4248.8 secs

     total energy              =    -306.19703361 Ry
     estimated scf accuracy    <       0.00004325 Ry

     iteration # 23     ecut=    40.00 Ry     beta= 0.05
     Davidson diagonalization with overlap
     ethr =  3.20E-08,  avg # of iterations =  1.0

     total cpu time spent up to now is     4252.8 secs

     total energy              =    -306.19703598 Ry
     estimated scf accuracy    <       0.00003348 Ry

     iteration # 24     ecut=    40.00 Ry     beta= 0.05
     Davidson diagonalization with overlap
     ethr =  2.94E-08,  avg # of iterations =  1.0

     total cpu time spent up to now is     4256.9 secs

     total energy              =    -306.19703402 Ry
     estimated scf accuracy    <       0.00003961 Ry

     iteration # 25     ecut=    40.00 Ry     beta= 0.05
     Davidson diagonalization with overlap
     ethr =  2.94E-08,  avg # of iterations =  1.0

     total cpu time spent up to now is     4261.0 secs

     total energy              =    -306.19702367 Ry
     estimated scf accuracy    <       0.00003341 Ry

     iteration # 26     ecut=    40.00 Ry     beta= 0.05
     Davidson diagonalization with overlap
     ethr =  2.93E-08,  avg # of iterations =  2.0

     total cpu time spent up to now is     4265.4 secs

     total energy              =    -306.19702522 Ry
     estimated scf accuracy    <       0.00000951 Ry

     iteration # 27     ecut=    40.00 Ry     beta= 0.05
     Davidson diagonalization with overlap
     ethr =  8.34E-09,  avg # of iterations =  4.0

     total cpu time spent up to now is     4270.5 secs

     total energy              =    -306.19702725 Ry
     estimated scf accuracy    <       0.00000756 Ry

     iteration # 28     ecut=    40.00 Ry     beta= 0.05
     Davidson diagonalization with overlap
     ethr =  6.63E-09,  avg # of iterations =  1.0

     total cpu time spent up to now is     4274.6 secs

     total energy              =    -306.19702665 Ry
     estimated scf accuracy    <       0.00000655 Ry

     iteration # 29     ecut=    40.00 Ry     beta= 0.05
     Davidson diagonalization with overlap
     ethr =  5.74E-09,  avg # of iterations =  2.0

     total cpu time spent up to now is     4278.9 secs

     total energy              =    -306.19702684 Ry
     estimated scf accuracy    <       0.00000580 Ry

     iteration # 30     ecut=    40.00 Ry     beta= 0.05
     Davidson diagonalization with overlap
     ethr =  5.09E-09,  avg # of iterations =  1.0

     total cpu time spent up to now is     4283.1 secs

     total energy              =    -306.19702637 Ry
     estimated scf accuracy    <       0.00000550 Ry

     iteration # 31     ecut=    40.00 Ry     beta= 0.05
     Davidson diagonalization with overlap
     ethr =  4.82E-09,  avg # of iterations =  4.0

     total cpu time spent up to now is     4288.0 secs

     total energy              =    -306.19702776 Ry
     estimated scf accuracy    <       0.00000888 Ry

     iteration # 32     ecut=    40.00 Ry     beta= 0.05
     Davidson diagonalization with overlap
     ethr =  4.82E-09,  avg # of iterations =  1.0

     total cpu time spent up to now is     4292.2 secs

     total energy              =    -306.19702683 Ry
     estimated scf accuracy    <       0.00000823 Ry

     iteration # 33     ecut=    40.00 Ry     beta= 0.05
     Davidson diagonalization with overlap
     ethr =  4.82E-09,  avg # of iterations =  1.0

     total cpu time spent up to now is     4296.2 secs

     total energy              =    -306.19702603 Ry
     estimated scf accuracy    <       0.00000580 Ry

     iteration # 34     ecut=    40.00 Ry     beta= 0.05
     Davidson diagonalization with overlap
     ethr =  4.82E-09,  avg # of iterations =  2.0

     total cpu time spent up to now is     4300.6 secs

     total energy              =    -306.19702647 Ry
     estimated scf accuracy    <       0.00000300 Ry

     iteration # 35     ecut=    40.00 Ry     beta= 0.05
     Davidson diagonalization with overlap
     ethr =  2.63E-09,  avg # of iterations =  2.0

     total cpu time spent up to now is     4305.0 secs

     total energy              =    -306.19702631 Ry
     estimated scf accuracy    <       0.00000279 Ry

     iteration # 36     ecut=    40.00 Ry     beta= 0.05
     Davidson diagonalization with overlap
     ethr =  2.44E-09,  avg # of iterations =  1.0

     total cpu time spent up to now is     4309.1 secs

     total energy              =    -306.19702558 Ry
     estimated scf accuracy    <       0.00000217 Ry

     iteration # 37     ecut=    40.00 Ry     beta= 0.05
     Davidson diagonalization with overlap
     ethr =  1.91E-09,  avg # of iterations =  2.0

     total cpu time spent up to now is     4313.5 secs

     total energy              =    -306.19702576 Ry
     estimated scf accuracy    <       0.00000123 Ry

     iteration # 38     ecut=    40.00 Ry     beta= 0.05
     Davidson diagonalization with overlap
     ethr =  1.08E-09,  avg # of iterations =  1.0

     total cpu time spent up to now is     4317.7 secs

     total energy              =    -306.19702592 Ry
     estimated scf accuracy    <       0.00000105 Ry

     iteration # 39     ecut=    40.00 Ry     beta= 0.05
     Davidson diagonalization with overlap
     ethr =  9.25E-10,  avg # of iterations =  1.0

     total cpu time spent up to now is     4321.7 secs

     total energy              =    -306.19702598 Ry
     estimated scf accuracy    <       0.00000101 Ry

     iteration # 40     ecut=    40.00 Ry     beta= 0.05
     Davidson diagonalization with overlap
     ethr =  8.89E-10,  avg # of iterations =  1.0

     total cpu time spent up to now is     4325.8 secs

     total energy              =    -306.19702577 Ry
     estimated scf accuracy    <       0.00000086 Ry

     iteration # 41     ecut=    40.00 Ry     beta= 0.05
     Davidson diagonalization with overlap
     ethr =  7.58E-10,  avg # of iterations =  2.0

     total cpu time spent up to now is     4330.2 secs

     total energy              =    -306.19702578 Ry
     estimated scf accuracy    <       0.00000046 Ry

     iteration # 42     ecut=    40.00 Ry     beta= 0.05
     Davidson diagonalization with overlap
     ethr =  4.01E-10,  avg # of iterations =  1.0

     total cpu time spent up to now is     4334.3 secs

     total energy              =    -306.19702579 Ry
     estimated scf accuracy    <       0.00000035 Ry

     iteration # 43     ecut=    40.00 Ry     beta= 0.05
     Davidson diagonalization with overlap
     ethr =  3.10E-10,  avg # of iterations =  1.0

     total cpu time spent up to now is     4338.5 secs

     total energy              =    -306.19702577 Ry
     estimated scf accuracy    <       0.00000033 Ry

     iteration # 44     ecut=    40.00 Ry     beta= 0.05
     Davidson diagonalization with overlap
     ethr =  2.88E-10,  avg # of iterations =  1.0

     total cpu time spent up to now is     4342.5 secs

     total energy              =    -306.19702565 Ry
     estimated scf accuracy    <       0.00000023 Ry

     iteration # 45     ecut=    40.00 Ry     beta= 0.05
     Davidson diagonalization with overlap
     ethr =  2.04E-10,  avg # of iterations =  2.0

     total cpu time spent up to now is     4346.9 secs

     total energy              =    -306.19702567 Ry
     estimated scf accuracy    <       0.00000008 Ry

     iteration # 46     ecut=    40.00 Ry     beta= 0.05
     Davidson diagonalization with overlap
     ethr =  7.26E-11,  avg # of iterations =  2.0

     total cpu time spent up to now is     4351.5 secs

     total energy              =    -306.19702569 Ry
     estimated scf accuracy    <       0.00000005 Ry

     iteration # 47     ecut=    40.00 Ry     beta= 0.05
     Davidson diagonalization with overlap
     ethr =  4.80E-11,  avg # of iterations =  1.0

     total cpu time spent up to now is     4355.5 secs

     total energy              =    -306.19702570 Ry
     estimated scf accuracy    <       0.00000005 Ry

     iteration # 48     ecut=    40.00 Ry     beta= 0.05
     Davidson diagonalization with overlap
     ethr =  4.42E-11,  avg # of iterations =  1.0

     total cpu time spent up to now is     4359.6 secs

     total energy              =    -306.19702570 Ry
     estimated scf accuracy    <       0.00000004 Ry

     iteration # 49     ecut=    40.00 Ry     beta= 0.05
     Davidson diagonalization with overlap
     ethr =  3.54E-11,  avg # of iterations =  2.0

     total cpu time spent up to now is     4364.0 secs

     total energy              =    -306.19702571 Ry
     estimated scf accuracy    <       0.00000003 Ry

     iteration # 50     ecut=    40.00 Ry     beta= 0.05
     Davidson diagonalization with overlap
     ethr =  2.51E-11,  avg # of iterations =  1.0

     total cpu time spent up to now is     4368.0 secs

     total energy              =    -306.19702571 Ry
     estimated scf accuracy    <       0.00000002 Ry

     iteration # 51     ecut=    40.00 Ry     beta= 0.05
     Davidson diagonalization with overlap
     ethr =  2.18E-11,  avg # of iterations =  1.0

     total cpu time spent up to now is     4372.3 secs

     total energy              =    -306.19702572 Ry
     estimated scf accuracy    <       0.00000002 Ry

     iteration # 52     ecut=    40.00 Ry     beta= 0.05
     Davidson diagonalization with overlap
     ethr =  1.98E-11,  avg # of iterations =  1.0

     total cpu time spent up to now is     4376.5 secs

     total energy              =    -306.19702571 Ry
     estimated scf accuracy    <       0.00000002 Ry

     iteration # 53     ecut=    40.00 Ry     beta= 0.05
     Davidson diagonalization with overlap
     ethr =  1.74E-11,  avg # of iterations =  2.0

     total cpu time spent up to now is     4380.7 secs

     End of self-consistent calculation

          k = 0.0000 0.0000 0.0000 (  7881 PWs)   bands (ev):

   -14.3880 -13.3577 -12.9790  -8.9585  -8.9008  -8.8961  -8.4244  -8.4117
    -8.4023  -8.1442  -8.1242  -8.0976  -7.8778  -7.4863  -7.4658  -7.4578
    -7.2252  -7.2144  -7.2031  -7.1434  -7.1332  -7.1237  -3.8983  -1.7927
    -1.3515  -0.9874  -0.9695  -0.9473  -0.7436  -0.5258  -0.5028  -0.4929
    -0.4732  -0.4511  -0.4331  -0.2848  -0.2620  -0.1214  -0.1077  -0.0924
     1.0084   1.0661   1.9357   2.0033   2.1233   2.5015   2.5074   2.7001
     2.7129   2.8919   2.8926   3.3351   3.3686   3.3833   3.8022   3.8144
     3.8309   7.0291   7.0414   7.0677   7.5283   7.6002   7.6892   7.9604
     8.0022   8.1769   9.2800  11.5975

     the Fermi energy is     5.7814 ev

!    total energy              =    -306.19702566 Ry
     estimated scf accuracy    <          7.3E-09 Ry
     smearing contrib. (-TS)   =      -0.00000000 Ry
     internal energy E=F+TS    =    -306.19702566 Ry

     The total energy is F=E-TS. E is the sum of the following terms:
     one-electron contribution =    -312.38041913 Ry
     hartree contribution      =     208.86808412 Ry
     xc contribution           =    -112.07429802 Ry
     ewald contribution        =     -90.61039263 Ry

     convergence has been achieved in  53 iterations

     Forces acting on atoms (cartesian axes, Ry/au):

     atom    1 type  1   force =    -0.00095231    0.00149616   -0.00014520
     atom    2 type  1   force =     0.00123538    0.00004216   -0.00012728
     atom    3 type  1   force =     0.00197547    0.00342013    0.00002224
     atom    4 type  1   force =    -0.00347707   -0.00333117    0.00025500
     atom    5 type  1   force =    -0.00195790    0.00016557    0.00029523
     atom    6 type  1   force =    -0.00171288   -0.00270682    0.00010604
     atom    7 type  1   force =     0.00160961    0.00138685    0.00047910
     atom    8 type  1   force =    -0.00616151   -0.00040268    0.00058128
     atom    9 type  1   force =     0.00299382    0.00513284    0.00009626
     atom   10 type  1   force =     0.00296157    0.00063379    0.00003608
     atom   11 type  1   force =     0.00926736    0.00440025    0.00015224
     atom   12 type  1   force =    -0.00028582    0.00115268   -0.00003416
     atom   13 type  1   force =     0.00033541   -0.00055822    0.00012041
     atom   14 type  1   force =     0.00149871    0.00087794   -0.00000344
     atom   15 type  1   force =    -0.00267344   -0.00386732   -0.00018310
     atom   16 type  1   force =    -0.00432044   -0.00139143    0.00032797
     atom   17 type  1   force =    -0.00504350   -0.00342428    0.00015358
     atom   18 type  1   force =    -0.00586727   -0.00266419   -0.00002753
     atom   19 type  1   force =    -0.00125341    0.00055895   -0.00004676
     atom   20 type  1   force =    -0.00184671   -0.00689011    0.00017734
     atom   21 type  1   force =     0.00561688   -0.00055611    0.00002683
     atom   22 type  1   force =     0.00381675    0.00126281    0.00006721
     atom   23 type  1   force =     0.00492395    0.00490600   -0.00014116
     atom   24 type  1   force =    -0.00009492    0.00030228   -0.00009045
     atom   25 type  2   force =    -0.00007291   -0.00049624   -0.00062627
     atom   26 type  2   force =     0.00027416   -0.00010787   -0.00026334
     atom   27 type  2   force =     0.00000620    0.00030432   -0.00007095
     atom   28 type  2   force =    -0.00020805    0.00006565    0.00013950
     atom   29 type  2   force =     0.00025683    0.00032263   -0.00056585
     atom   30 type  2   force =    -0.00008966    0.00002451   -0.00011047
     atom   31 type  2   force =     0.00008577   -0.00012910   -0.00003013
     atom   32 type  2   force =     0.00001457   -0.00015598   -0.00030407
     atom   33 type  2   force =     0.00000612    0.00018670    0.00009114
     atom   34 type  2   force =     0.00006324    0.00002515   -0.00011533
     atom   35 type  2   force =     0.00003397   -0.00015546    0.00019750
     atom   36 type  2   force =    -0.00026720    0.00048539   -0.00032032
     atom   37 type  2   force =     0.00029616    0.00003453   -0.00003565
     atom   38 type  2   force =     0.00012400   -0.00009456   -0.00004193
     atom   39 type  2   force =     0.00016743    0.00015064    0.00020654
     atom   40 type  2   force =     0.00025487   -0.00043323    0.00008685
     atom   41 type  2   force =    -0.00062355    0.00005184   -0.00098602
     atom   42 type  2   force =    -0.00090971   -0.00002502    0.00065105

     Total force =     0.002508     Total SCF correction =     0.000208


     Computing stress (Cartesian axis) and pressure

          total   stress  (Ry/bohr**3)                   (kbar)     P=        0.29
  -0.00000057  -0.00000167  -0.00000026           -0.08       -0.25       -0.04
  -0.00000167   0.00000184   0.00000125           -0.25        0.27        0.18
  -0.00000026   0.00000125   0.00000467           -0.04        0.18        0.69


     Writing all to output data dir ../../results/remote/9h2_abs/9H2abs_C.save/ :
     XML data file, charge density, pseudopotentials, collected wavefunctions

     init_run     :      7.16s CPU      6.13s WALL (       2 calls)
     electrons    :   4748.40s CPU   3932.88s WALL (      45 calls)
     update_pot   :     13.30s CPU     10.06s WALL (      43 calls)
     forces       :    149.74s CPU    131.23s WALL (      45 calls)
     stress       :    410.49s CPU    278.32s WALL (      45 calls)

     Called by init_run:
     wfcinit      :      4.42s CPU      3.58s WALL (       2 calls)
     potinit      :      0.34s CPU      0.26s WALL (       2 calls)
     hinit0       :      0.93s CPU      0.83s WALL (       2 calls)

     Called by electrons:
     c_bands      :   2667.11s CPU   2128.50s WALL (     852 calls)
     sum_band     :   1183.56s CPU   1083.10s WALL (     852 calls)
     v_of_rho     :     60.60s CPU     35.78s WALL (     885 calls)
     newd         :    563.95s CPU    540.03s WALL (     885 calls)
     mix_rho      :    271.06s CPU    153.90s WALL (     852 calls)

     Called by c_bands:
     init_us_2    :     20.51s CPU     16.98s WALL (    1706 calls)
     cegterg      :   2616.55s CPU   2098.98s WALL (     852 calls)

     Called by *egterg:
     cdiaghg      :     29.90s CPU     30.04s WALL (    2905 calls)
     h_psi        :   1684.15s CPU   1178.88s WALL (    2962 calls)
     s_psi        :    293.56s CPU    289.04s WALL (    2962 calls)
     g_psi        :      8.61s CPU      4.86s WALL (    2108 calls)

     Called by h_psi:
     h_psi:calbec :    285.74s CPU    280.49s WALL (    2962 calls)
     vloc_psi     :   1105.97s CPU    607.21s WALL (    2962 calls)
     add_vuspsi   :    286.18s CPU    287.77s WALL (    2962 calls)

     General routines
     calbec       :    436.75s CPU    430.31s WALL (    4039 calls)
     fft          :    137.62s CPU     85.77s WALL (    5635 calls)
     ffts         :    111.02s CPU     60.68s WALL (   21672 calls)
     fftw         :    945.52s CPU    538.00s WALL (  339226 calls)
     interpolate  :     28.74s CPU     17.37s WALL (     885 calls)

     Parallel routines

     PWSCF        :      1h29m CPU      1h13m WALL


   This run was terminated on:  13:44: 1   2Sep2024            

=------------------------------------------------------------------------------=
   JOB DONE.
=------------------------------------------------------------------------------=
