
     Program PWSCF v.7.2 starts on  2Sep2024 at 22:49:13 

     This program is part of the open-source Quantum ESPRESSO suite
     for quantum simulation of materials; please cite
         "P. Giannozzi et al., J. Phys.:Condens. Matter 21 395502 (2009);
         "P. Giannozzi et al., J. Phys.:Condens. Matter 29 465901 (2017);
         "P. Giannozzi et al., J. Chem. Phys. 152 154105 (2020);
          URL http://www.quantum-espresso.org", 
     in publications or presentations arising from this work. More details at
     http://www.quantum-espresso.org/quote

     Parallel version (MPI & OpenMP), running on      96 processor cores
     Number of MPI processes:                96
     Threads/MPI process:                     1

     MPI processes distributed on     2 nodes
     365475 MiB available memory on the printing compute node when the environment starts
 
     Reading input from hydrogen_absorption7.in

     Current dimensions of program PWSCF are:
     Max number of different atomic species (ntypx) = 10
     Max number of k-points (npk) =  40000
     Max angular momentum in pseudopotentials (lmaxx) =  4

     IMPORTANT: XC functional enforced from input :
     Exchange-correlation= LDA
                           (   1   1   0   0   0   0   0)
     Any further DFT definition will be discarded
     Please, verify this is what you really want

 
     K-points division:     npool     =       2
     R & G space division:  proc/nbgrp/npool/nimage =      48
     Subspace diagonalization in iterative solution of the eigenvalue problem:
     a serial algorithm will be used

 
     Parallelization info
     --------------------
     sticks:   dense  smooth     PW     G-vecs:    dense   smooth      PW
     Min          48      19      5                 5622     1420     224
     Max          49      20      6                 5644     1440     243
     Sum        2347     955    283               270717    68527   11177
 
     Using Slab Decomposition
 

     Title: 
     7H2_absorption_C                                                           


     bravais-lattice index     =            0
     lattice parameter (alat)  =       8.0000  a.u.
     unit-cell volume          =    2003.7285 (a.u.)^3
     number of atoms/cell      =           38
     number of atomic types    =            2
     number of electrons       =       110.00
     number of Kohn-Sham states=           66
     kinetic-energy cutoff     =      40.0000  Ry
     charge density cutoff     =     400.0000  Ry
     scf convergence threshold =      1.0E-06
     mixing beta               =       0.0100
     number of iterations used =            8  local-TF  mixing
     energy convergence thresh.=      1.0E-04
     force convergence thresh. =      1.0E-03
     press convergence thresh. =      5.0E-01
     Exchange-correlation= LDA
                           (   1   1   0   0   0   0   0)
     nstep                     =           50


     celldm(1)=   8.000004  celldm(2)=   0.000000  celldm(3)=   0.000000
     celldm(4)=   0.000000  celldm(5)=   0.000000  celldm(6)=   0.000000

     crystal axes: (cart. coord. in units of alat)
               a(1) = (   1.154736   0.007577   0.032952 )  
               a(2) = (  -0.579914   0.986778  -0.157463 )  
               a(3) = (   0.106578  -0.301687   3.467384 )  

     reciprocal axes: (cart. coord. in units 2 pi/alat)
               b(1) = (  0.862147  0.509516  0.017831 )  
               b(2) = ( -0.009253  1.022199  0.089223 )  
               b(3) = ( -0.008614  0.041579  0.292284 )  


     PseudoPot. # 1 for C  read from file:
     ../../potentials/C.pz-n-rrkjus_psl.0.1.UPF
     MD5 check sum: a3cecbabebb5b3a1aff122f23eb09bb0
     Pseudo is Ultrasoft + core correction, Zval =  4.0
     Generated using "atomic" code by A. Dal Corso  v.5.0.2 svn rev. 9415
     Using radial grid of 1073 points,  4 beta functions with: 
                l(1) =   0
                l(2) =   0
                l(3) =   1
                l(4) =   1
     Q(r) pseudized with 0 coefficients 


     PseudoPot. # 2 for H  read from file:
     ../../potentials/H.pz-rrkjus_psl.0.1.UPF
     MD5 check sum: 1467ebfaa2880178e80d097b970df8c7
     Pseudo is Ultrasoft, Zval =  1.0
     Generated using "atomic" code by A. Dal Corso  v.5.0.2 svn rev. 9415
     Using radial grid of  929 points,  2 beta functions with: 
                l(1) =   0
                l(2) =   0
     Q(r) pseudized with 0 coefficients 


     atomic species   valence    mass     pseudopotential
        C              4.00    12.01100     C ( 1.00)
        H              1.00     1.00784     H ( 1.00)

     No symmetry found



   Cartesian axes

     site n.     atom                  positions (alat units)
         1           C   tau(   1) = (   0.0161365  -0.1507707   0.5580843  )
         2           C   tau(   2) = (  -0.0011300  -0.0422968   1.3335374  )
         3           C   tau(   3) = (   0.1387767  -0.2364849   3.2056811  )
         4           C   tau(   4) = (   0.0153122   0.1793535   0.5110035  )
         5           C   tau(   5) = (   0.2872078   0.1245867   1.3177750  )
         6           C   tau(   6) = (   0.1378716   0.0937703   3.1586947  )
         7           C   tau(   7) = (   0.5935077  -0.1470134   0.5742881  )
         8           C   tau(   8) = (   0.5763528  -0.0387538   1.3483761  )
         9           C   tau(   9) = (   0.7160656  -0.2327182   3.2222908  )
        10           C   tau(  10) = (   0.5926755   0.1831144   0.5272240  )
        11           C   tau(  11) = (   0.8645534   0.1283465   1.3340387  )
        12           C   tau(  12) = (   0.7151829   0.0975357   3.1753145  )
        13           C   tau(  13) = (  -0.2738207   0.3426081   0.4792247  )
        14           C   tau(  14) = (  -0.2910554   0.4509652   1.2539092  )
        15           C   tau(  15) = (  -0.1512318   0.2569652   3.1270367  )
        16           C   tau(  16) = (  -0.2746511   0.6726909   0.4318978  )
        17           C   tau(  17) = (  -0.0027839   0.6178816   1.2386061  )
        18           C   tau(  18) = (  -0.1520987   0.5871282   3.0800057  )
        19           C   tau(  19) = (   0.3035476   0.3464299   0.4959322  )
        20           C   tau(  20) = (   0.2862777   0.4548533   1.2712760  )
        21           C   tau(  21) = (   0.4261284   0.2607690   3.1439306  )
        22           C   tau(  22) = (   0.3027159   0.6765129   0.4486092  )
        23           C   tau(  23) = (   0.5746444   0.6218021   1.2561675  )
        24           C   tau(  24) = (   0.4252945   0.5908674   3.0964564  )
        25           H   tau(  25) = (  -0.1446138   1.0551872   1.7771453  )
        26           H   tau(  26) = (  -0.0336945   1.0948338   1.9163731  )
        27           H   tau(  27) = (   0.1479465   0.4168674   2.4738326  )
        28           H   tau(  28) = (   0.1913079   0.2402845   2.4907675  )
        29           H   tau(  29) = (   0.6626479   0.3684330   2.4976180  )
        30           H   tau(  30) = (   0.8346005   0.3065477   2.5062934  )
        31           H   tau(  31) = (   0.3982932  -0.2291408   2.5570929  )
        32           H   tau(  32) = (   0.5292854  -0.1022394   2.5687278  )
        33           H   tau(  33) = (  -0.1329403   0.3411659   1.9225812  )
        34           H   tau(  34) = (  -0.0075720   0.4732985   1.9114282  )
        35           H   tau(  35) = (   0.5727659   0.7871660   2.0443496  )
        36           H   tau(  36) = (   0.3945191   0.7468386   2.0499764  )
        37           H   tau(  37) = (  -0.0478750   0.0594478   2.1891507  )
        38           H   tau(  38) = (   0.1133831   0.2503461   2.1715567  )

     number of k points=    36  Gaussian smearing, width (Ry)=  0.0100
                       cart. coord. in units 2pi/alat
        k(    1) = (   0.0689211   0.1380376   0.0819923), wk =   0.0555556
        k(    2) = (   0.0732278   0.1172482  -0.0641499), wk =   0.0555556
        k(    3) = (   0.0673788   0.3084040   0.0968628), wk =   0.0555556
        k(    4) = (   0.0716856   0.2876147  -0.0492794), wk =   0.0555556
        k(    5) = (   0.0658366   0.4787705   0.1117333), wk =   0.0555556
        k(    6) = (   0.0701433   0.4579811  -0.0344089), wk =   0.0555556
        k(    7) = (   0.0735478  -0.3730618   0.0373808), wk =   0.0555556
        k(    8) = (   0.0778546  -0.3938512  -0.1087614), wk =   0.0555556
        k(    9) = (   0.0720055  -0.2026953   0.0522513), wk =   0.0555556
        k(   10) = (   0.0763123  -0.2234847  -0.0938909), wk =   0.0555556
        k(   11) = (   0.0704633  -0.0323289   0.0671218), wk =   0.0555556
        k(   12) = (   0.0747701  -0.0531182  -0.0790204), wk =   0.0555556
        k(   13) = (   0.2126122   0.2229569   0.0849642), wk =   0.0555556
        k(   14) = (   0.2169189   0.2021675  -0.0611780), wk =   0.0555556
        k(   15) = (   0.2110699   0.3933234   0.0998347), wk =   0.0555556
        k(   16) = (   0.2153767   0.3725340  -0.0463075), wk =   0.0555556
        k(   17) = (   0.2095277   0.5636898   0.1147051), wk =   0.0555556
        k(   18) = (   0.2138344   0.5429005  -0.0314370), wk =   0.0555556
        k(   19) = (   0.2172389  -0.2881425   0.0403527), wk =   0.0555556
        k(   20) = (   0.2215457  -0.3089318  -0.1057895), wk =   0.0555556
        k(   21) = (   0.2156967  -0.1177760   0.0552232), wk =   0.0555556
        k(   22) = (   0.2200034  -0.1385654  -0.0909190), wk =   0.0555556
        k(   23) = (   0.2141544   0.0525904   0.0700937), wk =   0.0555556
        k(   24) = (   0.2184612   0.0318011  -0.0760485), wk =   0.0555556
        k(   25) = (   0.3563033   0.3078762   0.0879361), wk =   0.0555556
        k(   26) = (   0.3606101   0.2870869  -0.0582061), wk =   0.0555556
        k(   27) = (   0.3547610   0.4782427   0.1028065), wk =   0.0555556
        k(   28) = (   0.3590678   0.4574533  -0.0433356), wk =   0.0555556
        k(   29) = (   0.3532188   0.6486092   0.1176770), wk =   0.0555556
        k(   30) = (   0.3575256   0.6278198  -0.0284651), wk =   0.0555556
        k(   31) = (   0.3609300  -0.2032231   0.0433246), wk =   0.0555556
        k(   32) = (   0.3652368  -0.2240125  -0.1028176), wk =   0.0555556
        k(   33) = (   0.3593878  -0.0328567   0.0581951), wk =   0.0555556
        k(   34) = (   0.3636945  -0.0536460  -0.0879471), wk =   0.0555556
        k(   35) = (   0.3578455   0.1375098   0.0730656), wk =   0.0555556
        k(   36) = (   0.3621523   0.1167204  -0.0730766), wk =   0.0555556

     Dense  grid:   270717 G-vectors     FFT dimensions: (  60,  60, 180)

     Smooth grid:    68527 G-vectors     FFT dimensions: (  40,  40, 120)

     Estimated max dynamical RAM per process >      14.24 MB

     Estimated total dynamical RAM >       1.27 GB

     Check: negative core charge=   -0.000002

     Initial potential from superposition of free atoms

     starting charge     109.9990, renormalised to     110.0000
     Starting wfcs are  110 randomized atomic wfcs

     total cpu time spent up to now is        1.1 secs

     Self-consistent Calculation

     iteration #  1     ecut=    40.00 Ry     beta= 0.01
     Davidson diagonalization with overlap
     ethr =  1.00E-02,  avg # of iterations =  3.3

     total cpu time spent up to now is        2.7 secs

     total energy              =    -303.93354481 Ry
     estimated scf accuracy    <       2.15032317 Ry

     iteration #  2     ecut=    40.00 Ry     beta= 0.01
     Davidson diagonalization with overlap
     ethr =  1.95E-03,  avg # of iterations =  3.4

     total cpu time spent up to now is        4.4 secs

     total energy              =    -304.39702443 Ry
     estimated scf accuracy    <       2.74177769 Ry

     iteration #  3     ecut=    40.00 Ry     beta= 0.01
     Davidson diagonalization with overlap
     ethr =  1.95E-03,  avg # of iterations =  1.0

     total cpu time spent up to now is        5.2 secs

     total energy              =    -302.88209203 Ry
     estimated scf accuracy    <       3.07454845 Ry

     iteration #  4     ecut=    40.00 Ry     beta= 0.01
     Davidson diagonalization with overlap
     ethr =  1.95E-03,  avg # of iterations =  2.1

     total cpu time spent up to now is        6.1 secs

     total energy              =    -302.99129274 Ry
     estimated scf accuracy    <       0.49572934 Ry

     iteration #  5     ecut=    40.00 Ry     beta= 0.01
     Davidson diagonalization with overlap
     ethr =  4.51E-04,  avg # of iterations =  3.5

     total cpu time spent up to now is        7.2 secs

     total energy              =    -303.05374356 Ry
     estimated scf accuracy    <       0.42479953 Ry

     iteration #  6     ecut=    40.00 Ry     beta= 0.01
     Davidson diagonalization with overlap
     ethr =  3.86E-04,  avg # of iterations =  1.1

     total cpu time spent up to now is        8.0 secs

     total energy              =    -303.07590027 Ry
     estimated scf accuracy    <       0.42021114 Ry

     iteration #  7     ecut=    40.00 Ry     beta= 0.01
     Davidson diagonalization with overlap
     ethr =  3.82E-04,  avg # of iterations =  1.0

     total cpu time spent up to now is        8.7 secs

     total energy              =    -302.87788981 Ry
     estimated scf accuracy    <       0.38969060 Ry

     iteration #  8     ecut=    40.00 Ry     beta= 0.01
     Davidson diagonalization with overlap
     ethr =  3.54E-04,  avg # of iterations =  4.4

     total cpu time spent up to now is       10.6 secs

     total energy              =    -302.93587286 Ry
     estimated scf accuracy    <       0.02947837 Ry

     iteration #  9     ecut=    40.00 Ry     beta= 0.01
     Davidson diagonalization with overlap
     c_bands:  1 eigenvalues not converged
     c_bands:  1 eigenvalues not converged
     c_bands:  2 eigenvalues not converged
     ethr =  2.68E-05,  avg # of iterations = 15.6

     total cpu time spent up to now is       13.7 secs

     total energy              =    -302.94777418 Ry
     estimated scf accuracy    <       0.02418794 Ry

     iteration # 10     ecut=    40.00 Ry     beta= 0.01
     Davidson diagonalization with overlap
     ethr =  2.20E-05,  avg # of iterations =  2.3

     total cpu time spent up to now is       14.7 secs

     total energy              =    -302.94983595 Ry
     estimated scf accuracy    <       0.02150810 Ry

     iteration # 11     ecut=    40.00 Ry     beta= 0.01
     Davidson diagonalization with overlap
     ethr =  1.96E-05,  avg # of iterations =  1.0

     total cpu time spent up to now is       15.6 secs

     total energy              =    -302.94825784 Ry
     estimated scf accuracy    <       0.02545776 Ry

     iteration # 12     ecut=    40.00 Ry     beta= 0.01
     Davidson diagonalization with overlap
     ethr =  1.96E-05,  avg # of iterations =  2.2

     total cpu time spent up to now is       16.7 secs

     total energy              =    -302.94916479 Ry
     estimated scf accuracy    <       0.02532110 Ry

     iteration # 13     ecut=    40.00 Ry     beta= 0.01
     Davidson diagonalization with overlap
     ethr =  1.96E-05,  avg # of iterations =  2.0

     total cpu time spent up to now is       17.7 secs

     total energy              =    -302.94826535 Ry
     estimated scf accuracy    <       0.02513050 Ry

     iteration # 14     ecut=    40.00 Ry     beta= 0.01
     Davidson diagonalization with overlap
     ethr =  1.96E-05,  avg # of iterations =  1.0

     total cpu time spent up to now is       18.5 secs

     total energy              =    -302.94853212 Ry
     estimated scf accuracy    <       0.02156030 Ry

     iteration # 15     ecut=    40.00 Ry     beta= 0.01
     Davidson diagonalization with overlap
     ethr =  1.96E-05,  avg # of iterations =  1.0

     total cpu time spent up to now is       19.2 secs

     total energy              =    -302.94870687 Ry
     estimated scf accuracy    <       0.02203142 Ry

     iteration # 16     ecut=    40.00 Ry     beta= 0.01
     Davidson diagonalization with overlap
     ethr =  1.96E-05,  avg # of iterations =  1.0

     total cpu time spent up to now is       20.0 secs

     total energy              =    -302.94330583 Ry
     estimated scf accuracy    <       0.02111446 Ry

     iteration # 17     ecut=    40.00 Ry     beta= 0.01
     Davidson diagonalization with overlap
     ethr =  1.92E-05,  avg # of iterations =  1.9

     total cpu time spent up to now is       21.0 secs

     total energy              =    -302.94100314 Ry
     estimated scf accuracy    <       0.01025059 Ry

     iteration # 18     ecut=    40.00 Ry     beta= 0.01
     Davidson diagonalization with overlap
     ethr =  9.32E-06,  avg # of iterations =  3.7

     total cpu time spent up to now is       22.0 secs

     total energy              =    -302.94087251 Ry
     estimated scf accuracy    <       0.00600235 Ry

     iteration # 19     ecut=    40.00 Ry     beta= 0.01
     Davidson diagonalization with overlap
     c_bands:  1 eigenvalues not converged
     c_bands:  1 eigenvalues not converged
     ethr =  5.46E-06,  avg # of iterations =  4.2

     total cpu time spent up to now is       23.2 secs

     total energy              =    -302.93999593 Ry
     estimated scf accuracy    <       0.00507781 Ry

     iteration # 20     ecut=    40.00 Ry     beta= 0.01
     Davidson diagonalization with overlap
     ethr =  4.62E-06,  avg # of iterations =  3.8

     total cpu time spent up to now is       24.4 secs

     total energy              =    -302.93984447 Ry
     estimated scf accuracy    <       0.00299154 Ry

     iteration # 21     ecut=    40.00 Ry     beta= 0.01
     Davidson diagonalization with overlap
     ethr =  2.72E-06,  avg # of iterations =  2.5

     total cpu time spent up to now is       25.3 secs

     total energy              =    -302.94062294 Ry
     estimated scf accuracy    <       0.00242018 Ry

     iteration # 22     ecut=    40.00 Ry     beta= 0.01
     Davidson diagonalization with overlap
     ethr =  2.20E-06,  avg # of iterations =  1.9

     total cpu time spent up to now is       26.2 secs

     total energy              =    -302.94007405 Ry
     estimated scf accuracy    <       0.00334380 Ry

     iteration # 23     ecut=    40.00 Ry     beta= 0.01
     Davidson diagonalization with overlap
     ethr =  2.20E-06,  avg # of iterations =  3.2

     total cpu time spent up to now is       27.2 secs

     total energy              =    -302.94009907 Ry
     estimated scf accuracy    <       0.00238061 Ry

     iteration # 24     ecut=    40.00 Ry     beta= 0.01
     Davidson diagonalization with overlap
     ethr =  2.16E-06,  avg # of iterations =  2.0

     total cpu time spent up to now is       28.1 secs

     total energy              =    -302.93976981 Ry
     estimated scf accuracy    <       0.00231570 Ry

     iteration # 25     ecut=    40.00 Ry     beta= 0.01
     Davidson diagonalization with overlap
     c_bands:  1 eigenvalues not converged
     c_bands:  1 eigenvalues not converged
     ethr =  2.11E-06,  avg # of iterations =  4.5

     total cpu time spent up to now is       29.3 secs

     total energy              =    -302.93956886 Ry
     estimated scf accuracy    <       0.00167314 Ry

     iteration # 26     ecut=    40.00 Ry     beta= 0.01
     Davidson diagonalization with overlap
     ethr =  1.52E-06,  avg # of iterations =  1.3

     total cpu time spent up to now is       30.2 secs

     total energy              =    -302.93904510 Ry
     estimated scf accuracy    <       0.00130647 Ry

     iteration # 27     ecut=    40.00 Ry     beta= 0.01
     Davidson diagonalization with overlap
     c_bands:  1 eigenvalues not converged
     c_bands:  1 eigenvalues not converged
     c_bands:  1 eigenvalues not converged
     ethr =  1.19E-06,  avg # of iterations =  8.8

     total cpu time spent up to now is       32.3 secs

     total energy              =    -302.93931789 Ry
     estimated scf accuracy    <       0.00067494 Ry

     iteration # 28     ecut=    40.00 Ry     beta= 0.01
     Davidson diagonalization with overlap
     ethr =  6.14E-07,  avg # of iterations =  2.6

     total cpu time spent up to now is       33.4 secs

     total energy              =    -302.93944252 Ry
     estimated scf accuracy    <       0.00024768 Ry

     iteration # 29     ecut=    40.00 Ry     beta= 0.01
     Davidson diagonalization with overlap
     ethr =  2.25E-07,  avg # of iterations =  4.0

     total cpu time spent up to now is       34.6 secs

     total energy              =    -302.93944861 Ry
     estimated scf accuracy    <       0.00039269 Ry

     iteration # 30     ecut=    40.00 Ry     beta= 0.01
     Davidson diagonalization with overlap
     ethr =  2.25E-07,  avg # of iterations =  1.0

     total cpu time spent up to now is       35.4 secs

     total energy              =    -302.93934848 Ry
     estimated scf accuracy    <       0.00035762 Ry

     iteration # 31     ecut=    40.00 Ry     beta= 0.01
     Davidson diagonalization with overlap
     ethr =  2.25E-07,  avg # of iterations =  2.0

     total cpu time spent up to now is       36.2 secs

     total energy              =    -302.93932406 Ry
     estimated scf accuracy    <       0.00020902 Ry

     iteration # 32     ecut=    40.00 Ry     beta= 0.01
     Davidson diagonalization with overlap
     ethr =  1.90E-07,  avg # of iterations =  2.0

     total cpu time spent up to now is       37.1 secs

     total energy              =    -302.93932677 Ry
     estimated scf accuracy    <       0.00013418 Ry

     iteration # 33     ecut=    40.00 Ry     beta= 0.01
     Davidson diagonalization with overlap
     ethr =  1.22E-07,  avg # of iterations =  1.8

     total cpu time spent up to now is       38.1 secs

     total energy              =    -302.93934628 Ry
     estimated scf accuracy    <       0.00009319 Ry

     iteration # 34     ecut=    40.00 Ry     beta= 0.01
     Davidson diagonalization with overlap
     ethr =  8.47E-08,  avg # of iterations =  2.5

     total cpu time spent up to now is       39.2 secs

     total energy              =    -302.93940947 Ry
     estimated scf accuracy    <       0.00013198 Ry

     iteration # 35     ecut=    40.00 Ry     beta= 0.01
     Davidson diagonalization with overlap
     ethr =  8.47E-08,  avg # of iterations =  4.0

     total cpu time spent up to now is       40.4 secs

     total energy              =    -302.93940228 Ry
     estimated scf accuracy    <       0.00025820 Ry

     iteration # 36     ecut=    40.00 Ry     beta= 0.01
     Davidson diagonalization with overlap
     ethr =  8.47E-08,  avg # of iterations =  2.0

     total cpu time spent up to now is       41.2 secs

     total energy              =    -302.93929952 Ry
     estimated scf accuracy    <       0.00022663 Ry

     iteration # 37     ecut=    40.00 Ry     beta= 0.01
     Davidson diagonalization with overlap
     ethr =  8.47E-08,  avg # of iterations =  2.4

     total cpu time spent up to now is       42.2 secs

     total energy              =    -302.93929006 Ry
     estimated scf accuracy    <       0.00006828 Ry

     iteration # 38     ecut=    40.00 Ry     beta= 0.01
     Davidson diagonalization with overlap
     ethr =  6.21E-08,  avg # of iterations =  4.0

     total cpu time spent up to now is       43.4 secs

     total energy              =    -302.93930271 Ry
     estimated scf accuracy    <       0.00002589 Ry

     iteration # 39     ecut=    40.00 Ry     beta= 0.01
     Davidson diagonalization with overlap
     ethr =  2.35E-08,  avg # of iterations =  1.1

     total cpu time spent up to now is       44.2 secs

     total energy              =    -302.93930516 Ry
     estimated scf accuracy    <       0.00002104 Ry

     iteration # 40     ecut=    40.00 Ry     beta= 0.01
     Davidson diagonalization with overlap
     ethr =  1.91E-08,  avg # of iterations =  1.0

     total cpu time spent up to now is       45.1 secs

     total energy              =    -302.93932437 Ry
     estimated scf accuracy    <       0.00002006 Ry

     iteration # 41     ecut=    40.00 Ry     beta= 0.01
     Davidson diagonalization with overlap
     ethr =  1.82E-08,  avg # of iterations =  5.6

     total cpu time spent up to now is       46.8 secs

     total energy              =    -302.93929663 Ry
     estimated scf accuracy    <       0.00009124 Ry

     iteration # 42     ecut=    40.00 Ry     beta= 0.01
     Davidson diagonalization with overlap
     ethr =  1.82E-08,  avg # of iterations =  4.4

     total cpu time spent up to now is       48.3 secs

     total energy              =    -302.93930359 Ry
     estimated scf accuracy    <       0.00001462 Ry

     iteration # 43     ecut=    40.00 Ry     beta= 0.01
     Davidson diagonalization with overlap
     ethr =  1.33E-08,  avg # of iterations =  1.0

     total cpu time spent up to now is       49.0 secs

     total energy              =    -302.93930142 Ry
     estimated scf accuracy    <       0.00001146 Ry

     iteration # 44     ecut=    40.00 Ry     beta= 0.01
     Davidson diagonalization with overlap
     ethr =  1.04E-08,  avg # of iterations =  2.1

     total cpu time spent up to now is       50.0 secs

     total energy              =    -302.93930275 Ry
     estimated scf accuracy    <       0.00000617 Ry

     iteration # 45     ecut=    40.00 Ry     beta= 0.01
     Davidson diagonalization with overlap
     ethr =  5.61E-09,  avg # of iterations =  1.1

     total cpu time spent up to now is       50.9 secs

     total energy              =    -302.93930293 Ry
     estimated scf accuracy    <       0.00000604 Ry

     iteration # 46     ecut=    40.00 Ry     beta= 0.01
     Davidson diagonalization with overlap
     ethr =  5.49E-09,  avg # of iterations =  1.0

     total cpu time spent up to now is       51.7 secs

     total energy              =    -302.93930352 Ry
     estimated scf accuracy    <       0.00000670 Ry

     iteration # 47     ecut=    40.00 Ry     beta= 0.01
     Davidson diagonalization with overlap
     ethr =  5.49E-09,  avg # of iterations =  1.0

     total cpu time spent up to now is       52.4 secs

     total energy              =    -302.93930317 Ry
     estimated scf accuracy    <       0.00000711 Ry

     iteration # 48     ecut=    40.00 Ry     beta= 0.01
     Davidson diagonalization with overlap
     ethr =  5.49E-09,  avg # of iterations =  1.0

     total cpu time spent up to now is       53.2 secs

     total energy              =    -302.93930386 Ry
     estimated scf accuracy    <       0.00000646 Ry

     iteration # 49     ecut=    40.00 Ry     beta= 0.01
     Davidson diagonalization with overlap
     ethr =  5.49E-09,  avg # of iterations =  1.0

     total cpu time spent up to now is       54.0 secs

     total energy              =    -302.93930318 Ry
     estimated scf accuracy    <       0.00000810 Ry

     iteration # 50     ecut=    40.00 Ry     beta= 0.01
     Davidson diagonalization with overlap
     ethr =  5.49E-09,  avg # of iterations =  1.0

     total cpu time spent up to now is       54.8 secs

     total energy              =    -302.93930353 Ry
     estimated scf accuracy    <       0.00000610 Ry

     iteration # 51     ecut=    40.00 Ry     beta= 0.01
     Davidson diagonalization with overlap
     ethr =  5.49E-09,  avg # of iterations =  1.0

     total cpu time spent up to now is       55.6 secs

     total energy              =    -302.93930355 Ry
     estimated scf accuracy    <       0.00000602 Ry

     iteration # 52     ecut=    40.00 Ry     beta= 0.01
     Davidson diagonalization with overlap
     ethr =  5.48E-09,  avg # of iterations =  1.0

     total cpu time spent up to now is       56.3 secs

     total energy              =    -302.93930354 Ry
     estimated scf accuracy    <       0.00000615 Ry

     iteration # 53     ecut=    40.00 Ry     beta= 0.01
     Davidson diagonalization with overlap
     ethr =  5.48E-09,  avg # of iterations =  1.0

     total cpu time spent up to now is       57.1 secs

     total energy              =    -302.93930385 Ry
     estimated scf accuracy    <       0.00000605 Ry

     iteration # 54     ecut=    40.00 Ry     beta= 0.01
     Davidson diagonalization with overlap
     ethr =  5.48E-09,  avg # of iterations =  1.0

     total cpu time spent up to now is       57.8 secs

     total energy              =    -302.93930408 Ry
     estimated scf accuracy    <       0.00000589 Ry

     iteration # 55     ecut=    40.00 Ry     beta= 0.01
     Davidson diagonalization with overlap
     ethr =  5.36E-09,  avg # of iterations =  1.0

     total cpu time spent up to now is       58.6 secs

     total energy              =    -302.93930414 Ry
     estimated scf accuracy    <       0.00000569 Ry

     iteration # 56     ecut=    40.00 Ry     beta= 0.01
     Davidson diagonalization with overlap
     ethr =  5.18E-09,  avg # of iterations =  1.0

     total cpu time spent up to now is       59.3 secs

     total energy              =    -302.93930430 Ry
     estimated scf accuracy    <       0.00000560 Ry

     iteration # 57     ecut=    40.00 Ry     beta= 0.01
     Davidson diagonalization with overlap
     ethr =  5.09E-09,  avg # of iterations =  1.0

     total cpu time spent up to now is       60.3 secs

     total energy              =    -302.93930432 Ry
     estimated scf accuracy    <       0.00000549 Ry

     iteration # 58     ecut=    40.00 Ry     beta= 0.01
     Davidson diagonalization with overlap
     ethr =  4.99E-09,  avg # of iterations =  1.0

     total cpu time spent up to now is       61.1 secs

     total energy              =    -302.93930429 Ry
     estimated scf accuracy    <       0.00000543 Ry

     iteration # 59     ecut=    40.00 Ry     beta= 0.01
     Davidson diagonalization with overlap
     ethr =  4.94E-09,  avg # of iterations =  1.0

     total cpu time spent up to now is       61.9 secs

     total energy              =    -302.93930442 Ry
     estimated scf accuracy    <       0.00000529 Ry

     iteration # 60     ecut=    40.00 Ry     beta= 0.01
     Davidson diagonalization with overlap
     ethr =  4.81E-09,  avg # of iterations =  1.0

     total cpu time spent up to now is       62.6 secs

     total energy              =    -302.93930443 Ry
     estimated scf accuracy    <       0.00000520 Ry

     iteration # 61     ecut=    40.00 Ry     beta= 0.01
     Davidson diagonalization with overlap
     ethr =  4.73E-09,  avg # of iterations =  1.0

     total cpu time spent up to now is       63.4 secs

     total energy              =    -302.93930454 Ry
     estimated scf accuracy    <       0.00000526 Ry

     iteration # 62     ecut=    40.00 Ry     beta= 0.01
     Davidson diagonalization with overlap
     ethr =  4.73E-09,  avg # of iterations =  1.0

     total cpu time spent up to now is       64.1 secs

     total energy              =    -302.93930465 Ry
     estimated scf accuracy    <       0.00000519 Ry

     iteration # 63     ecut=    40.00 Ry     beta= 0.01
     Davidson diagonalization with overlap
     ethr =  4.72E-09,  avg # of iterations =  1.0

     total cpu time spent up to now is       64.9 secs

     total energy              =    -302.93930469 Ry
     estimated scf accuracy    <       0.00000517 Ry

     iteration # 64     ecut=    40.00 Ry     beta= 0.01
     Davidson diagonalization with overlap
     ethr =  4.70E-09,  avg # of iterations =  1.0

     total cpu time spent up to now is       65.6 secs

     total energy              =    -302.93930441 Ry
     estimated scf accuracy    <       0.00000516 Ry

     iteration # 65     ecut=    40.00 Ry     beta= 0.01
     Davidson diagonalization with overlap
     ethr =  4.69E-09,  avg # of iterations =  1.0

     total cpu time spent up to now is       66.4 secs

     total energy              =    -302.93930424 Ry
     estimated scf accuracy    <       0.00000479 Ry

     iteration # 66     ecut=    40.00 Ry     beta= 0.01
     Davidson diagonalization with overlap
     ethr =  4.35E-09,  avg # of iterations =  2.0

     total cpu time spent up to now is       67.4 secs

     total energy              =    -302.93930462 Ry
     estimated scf accuracy    <       0.00000459 Ry

     iteration # 67     ecut=    40.00 Ry     beta= 0.01
     Davidson diagonalization with overlap
     ethr =  4.17E-09,  avg # of iterations =  1.0

     total cpu time spent up to now is       68.1 secs

     total energy              =    -302.93930463 Ry
     estimated scf accuracy    <       0.00000436 Ry

     iteration # 68     ecut=    40.00 Ry     beta= 0.01
     Davidson diagonalization with overlap
     ethr =  3.96E-09,  avg # of iterations =  2.0

     total cpu time spent up to now is       69.0 secs

     total energy              =    -302.93930455 Ry
     estimated scf accuracy    <       0.00000352 Ry

     iteration # 69     ecut=    40.00 Ry     beta= 0.01
     Davidson diagonalization with overlap
     ethr =  3.20E-09,  avg # of iterations =  1.0

     total cpu time spent up to now is       69.7 secs

     total energy              =    -302.93930461 Ry
     estimated scf accuracy    <       0.00000344 Ry

     iteration # 70     ecut=    40.00 Ry     beta= 0.01
     Davidson diagonalization with overlap
     ethr =  3.13E-09,  avg # of iterations =  1.0

     total cpu time spent up to now is       70.5 secs

     total energy              =    -302.93930463 Ry
     estimated scf accuracy    <       0.00000344 Ry

     iteration # 71     ecut=    40.00 Ry     beta= 0.01
     Davidson diagonalization with overlap
     ethr =  3.13E-09,  avg # of iterations =  1.0

     total cpu time spent up to now is       71.3 secs

     total energy              =    -302.93930466 Ry
     estimated scf accuracy    <       0.00000344 Ry

     iteration # 72     ecut=    40.00 Ry     beta= 0.01
     Davidson diagonalization with overlap
     ethr =  3.13E-09,  avg # of iterations =  1.0

     total cpu time spent up to now is       72.0 secs

     total energy              =    -302.93930481 Ry
     estimated scf accuracy    <       0.00000342 Ry

     iteration # 73     ecut=    40.00 Ry     beta= 0.01
     Davidson diagonalization with overlap
     ethr =  3.11E-09,  avg # of iterations =  1.0

     total cpu time spent up to now is       72.8 secs

     total energy              =    -302.93930459 Ry
     estimated scf accuracy    <       0.00000334 Ry

     iteration # 74     ecut=    40.00 Ry     beta= 0.01
     Davidson diagonalization with overlap
     ethr =  3.04E-09,  avg # of iterations =  1.0

     total cpu time spent up to now is       73.5 secs

     total energy              =    -302.93930399 Ry
     estimated scf accuracy    <       0.00000306 Ry

     iteration # 75     ecut=    40.00 Ry     beta= 0.01
     Davidson diagonalization with overlap
     ethr =  2.78E-09,  avg # of iterations =  1.0

     total cpu time spent up to now is       74.3 secs

     total energy              =    -302.93930418 Ry
     estimated scf accuracy    <       0.00000239 Ry

     iteration # 76     ecut=    40.00 Ry     beta= 0.01
     Davidson diagonalization with overlap
     ethr =  2.18E-09,  avg # of iterations =  1.0

     total cpu time spent up to now is       75.0 secs

     total energy              =    -302.93930416 Ry
     estimated scf accuracy    <       0.00000242 Ry

     iteration # 77     ecut=    40.00 Ry     beta= 0.01
     Davidson diagonalization with overlap
     ethr =  2.18E-09,  avg # of iterations =  1.0

     total cpu time spent up to now is       75.8 secs

     total energy              =    -302.93930420 Ry
     estimated scf accuracy    <       0.00000238 Ry

     iteration # 78     ecut=    40.00 Ry     beta= 0.01
     Davidson diagonalization with overlap
     ethr =  2.17E-09,  avg # of iterations =  1.0

     total cpu time spent up to now is       76.5 secs

     total energy              =    -302.93930407 Ry
     estimated scf accuracy    <       0.00000235 Ry

     iteration # 79     ecut=    40.00 Ry     beta= 0.01
     Davidson diagonalization with overlap
     ethr =  2.13E-09,  avg # of iterations =  1.0

     total cpu time spent up to now is       77.4 secs

     total energy              =    -302.93930425 Ry
     estimated scf accuracy    <       0.00000233 Ry

     iteration # 80     ecut=    40.00 Ry     beta= 0.01
     Davidson diagonalization with overlap
     ethr =  2.11E-09,  avg # of iterations =  1.0

     total cpu time spent up to now is       78.2 secs

     total energy              =    -302.93930413 Ry
     estimated scf accuracy    <       0.00000234 Ry

     iteration # 81     ecut=    40.00 Ry     beta= 0.01
     Davidson diagonalization with overlap
     ethr =  2.11E-09,  avg # of iterations =  1.0

     total cpu time spent up to now is       79.0 secs

     total energy              =    -302.93930415 Ry
     estimated scf accuracy    <       0.00000228 Ry

     iteration # 82     ecut=    40.00 Ry     beta= 0.01
     Davidson diagonalization with overlap
     ethr =  2.07E-09,  avg # of iterations =  1.0

     total cpu time spent up to now is       79.7 secs

     total energy              =    -302.93930419 Ry
     estimated scf accuracy    <       0.00000221 Ry

     iteration # 83     ecut=    40.00 Ry     beta= 0.01
     Davidson diagonalization with overlap
     ethr =  2.01E-09,  avg # of iterations =  1.0

     total cpu time spent up to now is       80.5 secs

     total energy              =    -302.93930420 Ry
     estimated scf accuracy    <       0.00000221 Ry

     iteration # 84     ecut=    40.00 Ry     beta= 0.01
     Davidson diagonalization with overlap
     ethr =  2.01E-09,  avg # of iterations =  1.0

     total cpu time spent up to now is       81.4 secs

     total energy              =    -302.93930421 Ry
     estimated scf accuracy    <       0.00000218 Ry

     iteration # 85     ecut=    40.00 Ry     beta= 0.01
     Davidson diagonalization with overlap
     ethr =  1.98E-09,  avg # of iterations =  1.0

     total cpu time spent up to now is       82.1 secs

     total energy              =    -302.93930387 Ry
     estimated scf accuracy    <       0.00000217 Ry

     iteration # 86     ecut=    40.00 Ry     beta= 0.01
     Davidson diagonalization with overlap
     ethr =  1.97E-09,  avg # of iterations =  2.0

     total cpu time spent up to now is       83.0 secs

     total energy              =    -302.93930376 Ry
     estimated scf accuracy    <       0.00000184 Ry

     iteration # 87     ecut=    40.00 Ry     beta= 0.01
     Davidson diagonalization with overlap
     ethr =  1.67E-09,  avg # of iterations =  1.0

     total cpu time spent up to now is       83.8 secs

     total energy              =    -302.93930391 Ry
     estimated scf accuracy    <       0.00000158 Ry

     iteration # 88     ecut=    40.00 Ry     beta= 0.01
     Davidson diagonalization with overlap
     ethr =  1.43E-09,  avg # of iterations =  1.0

     total cpu time spent up to now is       84.7 secs

     total energy              =    -302.93930382 Ry
     estimated scf accuracy    <       0.00000160 Ry

     iteration # 89     ecut=    40.00 Ry     beta= 0.01
     Davidson diagonalization with overlap
     ethr =  1.43E-09,  avg # of iterations =  1.0

     total cpu time spent up to now is       85.4 secs

     total energy              =    -302.93930409 Ry
     estimated scf accuracy    <       0.00000145 Ry

     iteration # 90     ecut=    40.00 Ry     beta= 0.01
     Davidson diagonalization with overlap
     ethr =  1.32E-09,  avg # of iterations =  1.0

     total cpu time spent up to now is       86.2 secs

     total energy              =    -302.93930416 Ry
     estimated scf accuracy    <       0.00000119 Ry

     iteration # 91     ecut=    40.00 Ry     beta= 0.01
     Davidson diagonalization with overlap
     ethr =  1.08E-09,  avg # of iterations =  1.0

     total cpu time spent up to now is       86.9 secs

     total energy              =    -302.93930414 Ry
     estimated scf accuracy    <       0.00000118 Ry

     iteration # 92     ecut=    40.00 Ry     beta= 0.01
     Davidson diagonalization with overlap
     ethr =  1.07E-09,  avg # of iterations =  1.0

     total cpu time spent up to now is       87.7 secs

     total energy              =    -302.93930420 Ry
     estimated scf accuracy    <       0.00000118 Ry

     iteration # 93     ecut=    40.00 Ry     beta= 0.01
     Davidson diagonalization with overlap
     ethr =  1.07E-09,  avg # of iterations =  1.0

     total cpu time spent up to now is       88.4 secs

     total energy              =    -302.93930422 Ry
     estimated scf accuracy    <       0.00000120 Ry

     iteration # 94     ecut=    40.00 Ry     beta= 0.01
     Davidson diagonalization with overlap
     ethr =  1.07E-09,  avg # of iterations =  1.0

     total cpu time spent up to now is       89.2 secs

     total energy              =    -302.93930407 Ry
     estimated scf accuracy    <       0.00000120 Ry

     iteration # 95     ecut=    40.00 Ry     beta= 0.01
     Davidson diagonalization with overlap
     ethr =  1.07E-09,  avg # of iterations =  1.0

     total cpu time spent up to now is       90.1 secs

     total energy              =    -302.93930418 Ry
     estimated scf accuracy    <       0.00000115 Ry

     iteration # 96     ecut=    40.00 Ry     beta= 0.01
     Davidson diagonalization with overlap
     ethr =  1.05E-09,  avg # of iterations =  1.0

     total cpu time spent up to now is       90.8 secs

     total energy              =    -302.93930414 Ry
     estimated scf accuracy    <       0.00000115 Ry

     iteration # 97     ecut=    40.00 Ry     beta= 0.01
     Davidson diagonalization with overlap
     ethr =  1.04E-09,  avg # of iterations =  1.0

     total cpu time spent up to now is       91.6 secs

     total energy              =    -302.93930419 Ry
     estimated scf accuracy    <       0.00000115 Ry

     iteration # 98     ecut=    40.00 Ry     beta= 0.01
     Davidson diagonalization with overlap
     ethr =  1.04E-09,  avg # of iterations =  1.0

     total cpu time spent up to now is       92.4 secs

     total energy              =    -302.93930420 Ry
     estimated scf accuracy    <       0.00000116 Ry

     iteration # 99     ecut=    40.00 Ry     beta= 0.01
     Davidson diagonalization with overlap
     ethr =  1.04E-09,  avg # of iterations =  1.0

     total cpu time spent up to now is       93.1 secs

     total energy              =    -302.93930425 Ry
     estimated scf accuracy    <       0.00000115 Ry

     iteration #100     ecut=    40.00 Ry     beta= 0.01
     Davidson diagonalization with overlap
     ethr =  1.04E-09,  avg # of iterations =  1.0

     total cpu time spent up to now is       93.9 secs

     total energy              =    -302.93930427 Ry
     estimated scf accuracy    <       0.00000113 Ry

     iteration #101     ecut=    40.00 Ry     beta= 0.01
     Davidson diagonalization with overlap
     ethr =  1.03E-09,  avg # of iterations =  1.0

     total cpu time spent up to now is       94.6 secs

     total energy              =    -302.93930422 Ry
     estimated scf accuracy    <       0.00000112 Ry

     iteration #102     ecut=    40.00 Ry     beta= 0.01
     Davidson diagonalization with overlap
     ethr =  1.01E-09,  avg # of iterations =  1.0

     total cpu time spent up to now is       95.4 secs

     total energy              =    -302.93930435 Ry
     estimated scf accuracy    <       0.00000105 Ry

     iteration #103     ecut=    40.00 Ry     beta= 0.01
     Davidson diagonalization with overlap
     ethr =  9.55E-10,  avg # of iterations =  1.0

     total cpu time spent up to now is       96.2 secs

     total energy              =    -302.93930431 Ry
     estimated scf accuracy    <       0.00000107 Ry

     iteration #104     ecut=    40.00 Ry     beta= 0.01
     Davidson diagonalization with overlap
     ethr =  9.55E-10,  avg # of iterations =  1.0

     total cpu time spent up to now is       96.9 secs

     total energy              =    -302.93930454 Ry
     estimated scf accuracy    <       0.00000104 Ry

     iteration #105     ecut=    40.00 Ry     beta= 0.01
     Davidson diagonalization with overlap
     ethr =  9.47E-10,  avg # of iterations =  1.0

     total cpu time spent up to now is       97.8 secs

     total energy              =    -302.93930441 Ry
     estimated scf accuracy    <       0.00000101 Ry

     iteration #106     ecut=    40.00 Ry     beta= 0.01
     Davidson diagonalization with overlap
     ethr =  9.18E-10,  avg # of iterations =  1.0

     total cpu time spent up to now is       98.5 secs

     End of self-consistent calculation

          k = 0.0689 0.1380 0.0820 (  8571 PWs)   bands (ev):

   -15.0419 -14.9169 -14.7933 -10.6892 -10.6869 -10.5978 -10.5928 -10.5084
   -10.5045  -9.6036  -9.5558  -9.5100  -8.7745  -8.7338  -8.7032  -7.7936
    -7.7912  -7.7212  -7.7167  -7.6525  -7.6488  -5.8425  -4.0014  -3.5908
    -2.6977  -2.5653  -2.5319  -2.5018  -2.2937  -2.0824  -2.0796  -2.0540
    -2.0517  -2.0274  -2.0250  -1.7316  -1.2227  -0.8534  -0.4547   0.9487
     0.9609   0.9852   1.0481   1.0529   1.1507   1.1662   1.1817   1.5165
     1.5284   1.8797   1.9949   2.0085   2.1142   2.4099   3.6411   5.8154
     6.1165   6.2918   6.3828   6.4057   6.7375   6.7667   7.1275   7.1535
     7.6984   8.3604

          k = 0.0732 0.1172-0.0641 (  8561 PWs)   bands (ev):

   -15.0419 -14.9168 -14.7933 -10.6892 -10.6869 -10.5977 -10.5928 -10.5084
   -10.5045  -9.6036  -9.5558  -9.5100  -8.7745  -8.7337  -8.7032  -7.7936
    -7.7912  -7.7212  -7.7168  -7.6525  -7.6488  -5.8408  -4.0751  -3.4100
    -2.8782  -2.5653  -2.5320  -2.5018  -2.2406  -2.0824  -2.0796  -2.0540
    -2.0517  -2.0273  -2.0250  -1.7118  -1.2218  -0.8531  -0.4545   0.9487
     0.9609   0.9852   1.0415   1.0544   1.1507   1.1662   1.1817   1.5220
     1.5337   1.8801   1.9934   2.0044   2.1143   2.4089   3.6388   5.8184
     6.1072   6.2972   6.3863   6.4073   6.7300   6.7699   7.1329   7.1473
     7.6951   8.3203

          k = 0.0674 0.3084 0.0969 (  8564 PWs)   bands (ev):

   -14.6264 -14.5044 -14.3841 -12.1781 -12.0735 -11.9723 -11.2294 -11.1318
   -11.0380  -9.8741  -9.7896  -9.7105  -7.8881  -7.8210  -7.7558  -6.6121
    -6.5469  -6.4862  -5.7170  -5.6544  -5.5978  -5.4970  -3.8250  -3.7807
    -3.7415  -3.4935  -3.2512  -2.8843  -2.8476  -2.8144  -2.7694  -2.0282
    -1.7834  -1.6714  -1.6447  -1.6185  -1.5515  -1.0141  -0.7517  -0.4383
    -0.4302  -0.4043  -0.3781   0.2281   0.3844   0.4040   0.4235   0.5848
     0.7886   1.1343   1.7178   1.9303   2.3301   2.7121   4.0013   5.9833
     6.1734   6.4674   7.2230   7.5116   7.6414   7.9325   8.4123   8.6637
     8.7757   9.1571

          k = 0.0717 0.2876-0.0493 (  8567 PWs)   bands (ev):

   -14.6264 -14.5043 -14.3842 -12.1781 -12.0735 -11.9723 -11.2294 -11.1318
   -11.0379  -9.8740  -9.7896  -9.7105  -7.8881  -7.8211  -7.7558  -6.6121
    -6.5469  -6.4862  -5.7170  -5.6544  -5.5979  -5.4948  -3.8251  -3.7806
    -3.7417  -3.6180  -3.0727  -2.8843  -2.8475  -2.8139  -2.6398  -2.3581
    -1.7471  -1.6712  -1.6443  -1.6184  -1.4374  -1.0268  -0.7621  -0.4307
    -0.4045  -0.3898  -0.3776   0.1870   0.3844   0.4040   0.4235   0.5689
     0.8049   1.1569   1.7067   1.9366   2.3121   2.7255   3.9951   5.9779
     6.1845   6.4605   7.2351   7.4694   7.6821   7.9301   8.4175   8.6266
     8.7991   9.1000

          k = 0.0658 0.4788 0.1117 (  8564 PWs)   bands (ev):

   -13.8833 -13.7667 -13.6523 -13.3918 -13.2786 -13.1681 -11.4666 -11.3674
   -11.2716 -10.0859  -9.9974  -9.9133  -6.6890  -6.6434  -6.5993  -5.4639
    -5.4235  -5.3849  -5.1281  -5.1126  -5.0727  -5.0390  -3.9360  -3.9028
    -3.8718  -3.5140  -3.4654  -3.4422  -3.4216  -2.5795  -2.4673  -2.4212
    -2.3800  -2.3443  -2.1445  -1.9683  -1.4896  -1.1572  -1.0696  -0.9758
    -0.9504  -0.9274  -0.9239  -0.7295  -0.5446  -0.5209  -0.4974  -0.3351
     0.3534   0.9489   1.5598   1.8601   2.3628   2.8625   4.2377   6.2226
     6.4444   6.7046   7.5199   7.8879   8.0989   8.3372   8.5728   9.4085
    10.3319  10.7676

          k = 0.0701 0.4580-0.0344 (  8568 PWs)   bands (ev):

   -13.8834 -13.7667 -13.6523 -13.3917 -13.2786 -13.1681 -11.4666 -11.3673
   -11.2716 -10.0858  -9.9974  -9.9133  -6.6890  -6.6434  -6.5993  -5.4639
    -5.4235  -5.3849  -5.1292  -5.1099  -5.0744  -5.0384  -3.9359  -3.9028
    -3.8717  -3.5139  -3.4656  -3.4370  -3.4219  -2.7274  -2.4216  -2.3806
    -2.3454  -2.3104  -2.0879  -1.8418  -1.6172  -1.4831  -0.9757  -0.9505
    -0.9259  -0.8919  -0.8457  -0.6635  -0.5446  -0.5208  -0.4975  -0.4003
     0.3538   0.9562   1.5519   1.8694   2.3404   2.8779   4.2351   6.2222
     6.4444   6.7053   7.5252   7.8821   8.1002   8.3423   8.5772   9.4076
    10.1775  10.6082

          k = 0.0735-0.3731 0.0374 (  8574 PWs)   bands (ev):

   -14.2954 -14.1757 -14.0582 -12.8224 -12.7132 -12.6070 -11.3874 -11.2887
   -11.1936 -10.0133  -9.9259  -9.8428  -7.2500  -7.1865  -7.1271  -5.9881
    -5.9313  -5.8773  -5.2969  -4.6205  -4.5646  -4.5354  -4.5152  -4.4891
    -4.4466  -3.4507  -3.4101  -3.3739  -3.3147  -3.0870  -2.4839  -2.1979
    -1.7929  -1.4469  -1.3791  -1.3553  -1.3453  -1.3292  -1.3140  -1.3038
    -1.1700  -1.0348  -0.7428  -0.3474  -0.0819  -0.0600  -0.0380   0.1781
     0.4182   1.0217   1.6036   1.8858   2.3576   2.8293   4.0978   6.1229
     6.3340   6.6257   7.4906   7.6696   7.8959   8.1996   8.6074   9.0431
     9.6155   9.8580

          k = 0.0779-0.3939-0.1088 (  8554 PWs)   bands (ev):

   -14.2954 -14.1758 -14.0581 -12.8224 -12.7132 -12.6070 -11.3874 -11.2887
   -11.1936 -10.0133  -9.9259  -9.8428  -7.2500  -7.1865  -7.1271  -5.9881
    -5.9313  -5.8773  -5.2981  -4.6206  -4.5645  -4.5355  -4.5152  -4.4888
    -4.4467  -3.4507  -3.4101  -3.3740  -3.3068  -2.9482  -2.7851  -2.1099
    -1.6303  -1.4398  -1.3793  -1.3554  -1.3447  -1.3294  -1.3152  -1.3048
    -1.2735  -0.9102  -0.8744  -0.3514  -0.0819  -0.0600  -0.0380   0.1834
     0.4385   1.0039   1.6064   1.8936   2.3425   2.8379   4.1014   6.1206
     6.3420   6.6203   7.5028   7.6414   7.9117   8.1982   8.6187   9.0872
     9.6507   9.8578

          k = 0.0720-0.2027 0.0523 (  8559 PWs)   bands (ev):

   -14.8755 -14.7516 -14.6295 -11.4632 -11.3638 -11.2682 -10.9951 -10.8995
   -10.8078  -9.6927  -9.6172  -9.5471  -8.4571  -8.3933  -8.3327  -7.2264
    -7.1574  -7.0913  -6.7820  -6.7130  -6.6502  -5.7069  -3.9008  -3.1963
    -3.1437  -3.1057  -3.0711  -2.7910  -2.3971  -2.3643  -2.3344  -2.2341
    -1.9146  -1.8875  -1.8673  -1.8603  -1.4114  -0.7717  -0.5546   0.3159
     0.3657   0.3844   0.4068   0.7747   0.8150   0.8311   0.8504   0.8723
     1.3146   1.4479   1.8328   1.9362   2.2543   2.5980   3.7296   5.8373
     6.1109   6.3341   6.7984   7.1244   7.3122   7.4928   7.6583   7.7085
     8.0840   8.2463

          k = 0.0763-0.2235-0.0939 (  8572 PWs)   bands (ev):

   -14.8755 -14.7517 -14.6294 -11.4632 -11.3639 -11.2682 -10.9951 -10.8995
   -10.8079  -9.6927  -9.6172  -9.5472  -8.4570  -8.3933  -8.3327  -7.2264
    -7.1574  -7.0913  -6.7820  -6.7130  -6.6502  -5.7093  -3.7768  -3.4789
    -3.1438  -3.1056  -3.0710  -2.5964  -2.3971  -2.3642  -2.3343  -2.1921
    -1.9147  -1.9059  -1.8868  -1.8608  -1.4523  -0.7755  -0.5479   0.2975
     0.3656   0.3843   0.4068   0.7835   0.8150   0.8311   0.8506   0.8962
     1.2975   1.4404   1.8387   1.9397   2.2492   2.6008   3.7333   5.8369
     6.1035   6.3434   6.8013   7.1147   7.3087   7.5161   7.6589   7.6902
     8.0852   8.3831

          k = 0.0705-0.0323 0.0671 (  8571 PWs)   bands (ev):

   -15.1253 -14.9995 -14.8754 -10.3164 -10.2283 -10.1453  -9.9090  -9.9077
    -9.8337  -9.8295  -9.7617  -9.7582  -8.6702  -8.6685  -8.6046  -8.6022
    -8.5416  -8.5402  -8.2878  -8.2157  -8.1454  -5.9212  -4.1598  -3.5482
    -2.8948  -2.2545  -2.1657  -2.1628  -2.1372  -2.1348  -2.1104  -2.1080
    -1.9949  -1.9675  -1.9412  -1.5814  -1.3292  -0.6123  -0.3985   1.2578
     1.2736   1.2890   1.3355   1.3473   1.3506   1.3716   1.6358   1.6492
     1.7431   1.9405   1.9584   2.1373   2.2829   2.3017   3.5034   5.8567
     5.8859   6.0841   6.1958   6.2195   6.4013   6.4745   6.4899   6.7647
     7.6398   8.1102

          k = 0.0748-0.0531-0.0790 (  8584 PWs)   bands (ev):

   -15.1253 -14.9996 -14.8754 -10.3164 -10.2283 -10.1453  -9.9090  -9.9077
    -9.8338  -9.8295  -9.7617  -9.7582  -8.6702  -8.6686  -8.6046  -8.6020
    -8.5416  -8.5402  -8.2878  -8.2157  -8.1455  -5.9220  -4.1219  -3.6385
    -2.8081  -2.2811  -2.1658  -2.1628  -2.1372  -2.1348  -2.1104  -2.1080
    -1.9950  -1.9675  -1.9412  -1.5854  -1.3335  -0.6120  -0.3987   1.2578
     1.2735   1.2891   1.3354   1.3472   1.3533   1.3716   1.6369   1.6487
     1.7419   1.9477   1.9529   2.1350   2.2765   2.3036   3.5076   5.8579
     5.8837   6.0815   6.1990   6.2264   6.4168   6.4687   6.4882   6.7498
     7.6524   8.1423

          k = 0.2126 0.2230 0.0850 (  8558 PWs)   bands (ev):

   -14.6263 -14.5043 -14.3841 -12.1774 -12.0729 -11.9716 -11.2303 -11.1328
   -11.0390  -9.8748  -9.7903  -9.7112  -7.8874  -7.8201  -7.7548  -6.6133
    -6.5470  -6.4869  -5.7152  -5.6538  -5.5964  -5.4866  -3.8252  -3.7809
    -3.7417  -3.5149  -3.2471  -2.8820  -2.8459  -2.8121  -2.7446  -2.0620
    -1.7526  -1.6741  -1.6465  -1.6206  -1.5825  -0.9966  -0.8049  -0.4286
    -0.4031  -0.3788  -0.3573   0.1578   0.3827   0.4022   0.4229   0.5731
     0.8157   1.1491   1.7088   1.9310   2.3288   2.7176   3.9603   5.9768
     6.1786   6.4735   7.2293   7.5543   7.8866   8.0262   8.4279   8.5467
     8.8002   9.1500

          k = 0.2169 0.2022-0.0612 (  8562 PWs)   bands (ev):

   -14.6263 -14.5043 -14.3841 -12.1774 -12.0729 -11.9715 -11.2303 -11.1327
   -11.0390  -9.8748  -9.7903  -9.7112  -7.8874  -7.8201  -7.7547  -6.6133
    -6.5470  -6.4869  -5.7153  -5.6535  -5.5967  -5.4849  -3.8253  -3.7809
    -3.7418  -3.6130  -3.0861  -2.8820  -2.8460  -2.8121  -2.7089  -2.2632
    -1.7325  -1.6739  -1.6465  -1.6203  -1.5028  -0.9750  -0.7799  -0.4661
    -0.4285  -0.4029  -0.3776   0.2555   0.3827   0.4021   0.4229   0.5825
     0.7803   1.1400   1.7080   1.9373   2.3172   2.7228   3.9593   5.9760
     6.1820   6.4701   7.2391   7.5336   7.8972   8.0258   8.4094   8.5857
     8.7785   9.1006

          k = 0.2111 0.3933 0.0998 (  8539 PWs)   bands (ev):

   -14.0479 -13.9301 -13.8144 -12.5821 -12.5795 -12.4761 -12.4707 -12.3710
   -12.3671  -8.7687  -8.7242  -8.6821  -7.9952  -7.9666  -7.9461  -5.4325
    -5.3829  -5.3376  -5.1285  -4.5426  -4.5401  -4.4929  -4.4892  -4.4474
    -4.4438  -3.3413  -2.6879  -2.5383  -2.4069  -2.2808  -2.2788  -2.2478
    -2.2466  -2.2181  -2.2168  -1.7227  -1.7011  -1.6766  -1.4427  -1.3410
    -1.2327  -0.9774  -0.8565  -0.7331  -0.7150  -0.6971  -0.6507  -0.2064
    -0.1288   0.4154   0.4449   3.0895   3.2979   3.5977   4.2004   5.3245
     5.4384   5.4650   7.9881   8.5850   9.4231   9.4465   9.6370   9.6875
     9.7044   9.9680

          k = 0.2154 0.3725-0.0463 (  8559 PWs)   bands (ev):

   -14.0479 -13.9300 -13.8144 -12.5821 -12.5795 -12.4761 -12.4707 -12.3710
   -12.3671  -8.7687  -8.7242  -8.6821  -7.9952  -7.9666  -7.9461  -5.4326
    -5.3826  -5.3378  -5.1275  -4.5426  -4.5401  -4.4929  -4.4892  -4.4474
    -4.4439  -3.3328  -2.8762  -2.4278  -2.2810  -2.2788  -2.2483  -2.2470
    -2.2185  -2.2168  -2.0206  -1.9531  -1.7227  -1.7010  -1.6760  -1.3343
    -1.1191  -0.8808  -0.8066  -0.7342  -0.7298  -0.7146  -0.6958  -0.1975
    -0.1278   0.3996   0.4570   3.0888   3.3047   3.5880   4.2023   5.3253
     5.4380   5.4639   7.9957   8.6160   9.4150   9.4417   9.4982   9.6906
     9.7016   9.9569

          k = 0.2095 0.5637 0.1147 (  8537 PWs)   bands (ev):

   -13.6375 -13.5226 -13.4102 -13.1476 -13.0362 -12.9275 -12.6616 -12.5537
   -12.4487  -8.6431  -8.5755  -8.5136  -7.6852  -7.6440  -7.6025  -6.0398
    -6.0048  -5.9709  -5.0411  -4.0732  -4.0394  -4.0061  -3.5202  -3.4784
    -3.4428  -3.2161  -2.8889  -2.6399  -2.6123  -2.5857  -2.5640  -2.5330
    -2.5053  -2.3505  -1.8626  -1.8459  -1.8208  -1.7941  -1.6136  -1.5662
    -1.3297  -1.3068  -1.3038  -1.2827  -1.0403  -0.9203  -0.6145  -0.4723
    -0.2011  -0.0905   0.3210   3.3675   3.6739   4.0288   4.1825   4.9138
     5.1175   5.3357   7.8743   8.6016   9.2459   9.7201   9.9198  10.0685
    10.1465  10.5724

          k = 0.2138 0.5429-0.0314 (  8523 PWs)   bands (ev):

   -13.6375 -13.5226 -13.4102 -13.1476 -13.0361 -12.9275 -12.6616 -12.5537
   -12.4487  -8.6431  -8.5755  -8.5136  -7.6852  -7.6440  -7.6025  -6.0397
    -6.0049  -5.9709  -5.0412  -4.0733  -4.0393  -4.0061  -3.5201  -3.4785
    -3.4428  -3.2189  -2.8860  -2.6399  -2.6122  -2.5856  -2.5640  -2.5330
    -2.5050  -2.2576  -2.0062  -1.8488  -1.8218  -1.8053  -1.7886  -1.3827
    -1.3289  -1.3061  -1.2833  -1.2131  -0.9680  -0.8615  -0.6981  -0.5217
    -0.2999  -0.0818   0.3783   3.3687   3.6735   4.0289   4.1804   4.9093
     5.1313   5.3281   7.8797   8.6118   9.2594   9.7278   9.9135  10.0943
    10.1565  10.5776

          k = 0.2172-0.2881 0.0404 (  8571 PWs)   bands (ev):

   -14.3781 -14.2578 -14.1396 -12.4190 -12.3128 -12.2096 -11.9400 -11.8372
   -11.7379  -9.2659  -9.1938  -9.1273  -8.0599  -8.0014  -7.9464  -5.5844
    -5.5253  -5.4725  -5.3594  -5.1265  -5.0705  -5.0174  -4.6421  -4.5944
    -4.5502  -3.3864  -3.0085  -2.6236  -2.5900  -2.5567  -2.4827  -2.2831
    -1.9791  -1.9026  -1.8714  -1.8427  -1.2404  -1.0801  -1.0223  -0.9978
    -0.9738  -0.7788  -0.6496  -0.1609  -0.1250  -0.1069  -0.0846   0.0623
     0.4698   0.5368   1.0624   2.5285   2.8364   3.1882   3.9108   5.6664
     5.7728   5.9438   7.7629   8.3064   8.3713   8.6070   8.8287   8.9356
     8.9931   9.2509

          k = 0.2215-0.3089-0.1058 (  8562 PWs)   bands (ev):

   -14.3780 -14.2579 -14.1396 -12.4190 -12.3128 -12.2097 -11.9400 -11.8372
   -11.7378  -9.2659  -9.1938  -9.1273  -8.0599  -8.0014  -7.9464  -5.5845
    -5.5252  -5.4726  -5.3608  -5.1265  -5.0705  -5.0174  -4.6423  -4.5941
    -4.5503  -3.3410  -2.9925  -2.6368  -2.6212  -2.5873  -2.5560  -2.3807
    -1.9027  -1.8715  -1.8430  -1.5947  -1.4212  -1.1677  -1.0223  -0.9980
    -0.9744  -0.7135  -0.5402  -0.1624  -0.1251  -0.1099  -0.1055  -0.0834
     0.4613   0.6117   1.0618   2.5284   2.8378   3.1857   3.9140   5.6620
     5.7716   5.9493   7.7619   8.3046   8.3934   8.6200   8.8633   8.9456
     8.9901   9.2973

          k = 0.2157-0.1178 0.0552 (  8556 PWs)   bands (ev):

   -14.7924 -14.6691 -14.5476 -11.8582 -11.7561 -11.6572 -10.4623 -10.4614
   -10.3720 -10.3697 -10.2849 -10.2832  -7.5999  -7.5982  -7.5285  -7.5274
    -7.4630  -7.4616  -6.2740  -6.2095  -6.1481  -5.6480  -3.8035  -3.1978
    -3.0572  -3.0545  -3.0198  -3.0177  -2.9854  -2.9830  -2.6836  -2.1733
    -1.9923  -1.6670  -1.6402  -1.6142  -1.4340  -0.7927  -0.5015  -0.1383
     0.0523   0.0761   0.0995   0.5280   0.7023   0.7210   0.7449   1.0692
     1.3310   1.3343   1.7968   1.8142   2.2748   2.2879   3.6754   6.3455
     6.3664   6.6386   6.6611   6.9931   7.0095   7.7012   7.8498   8.1308
     8.2546   8.6536

          k = 0.2200-0.1386-0.0909 (  8574 PWs)   bands (ev):

   -14.7923 -14.6692 -14.5476 -11.8582 -11.7560 -11.6573 -10.4623 -10.4614
   -10.3721 -10.3697 -10.2849 -10.2832  -7.5999  -7.5982  -7.5286  -7.5274
    -7.4630  -7.4616  -6.2740  -6.2095  -6.1481  -5.6498  -3.7141  -3.3751
    -3.0572  -3.0545  -3.0196  -3.0176  -2.9855  -2.9830  -2.6266  -2.0593
    -2.0037  -1.6670  -1.6402  -1.6142  -1.5070  -0.8079  -0.5011  -0.0860
     0.0523   0.0761   0.0997   0.4636   0.7023   0.7210   0.7449   1.0959
     1.3281   1.3409   1.7968   1.8047   2.2787   2.2898   3.6779   6.3502
     6.3570   6.6416   6.6701   6.9887   7.0071   7.7069   7.8693   8.1279
     8.3414   8.6174

          k = 0.2142 0.0526 0.0701 (  8560 PWs)   bands (ev):

   -14.8754 -14.7516 -14.6294 -11.4625 -11.3632 -11.2675 -10.9954 -10.8998
   -10.8082  -9.6932  -9.6192  -9.5497  -8.4570  -8.3931  -8.3334  -7.2260
    -7.1569  -7.0908  -6.7803  -6.7122  -6.6487  -5.7001  -3.8512  -3.3517
    -3.1412  -3.1039  -3.0689  -2.6548  -2.3974  -2.3644  -2.3347  -2.2459
    -1.9175  -1.8895  -1.8630  -1.8560  -1.4676  -0.7551  -0.5777   0.3212
     0.3679   0.3861   0.4064   0.7784   0.8133   0.8284   0.8509   0.8635
     1.3132   1.4577   1.8325   1.9496   2.2483   2.5750   3.7143   5.8496
     6.1271   6.3232   6.8037   7.1259   7.2976   7.5257   7.6696   7.8491
     8.0902   8.4968

          k = 0.2185 0.0318-0.0760 (  8567 PWs)   bands (ev):

   -14.8754 -14.7516 -14.6294 -11.4625 -11.3632 -11.2674 -10.9955 -10.8998
   -10.8082  -9.6932  -9.6192  -9.5497  -8.4569  -8.3932  -8.3334  -7.2260
    -7.1569  -7.0908  -6.7803  -6.7121  -6.6488  -5.7002  -3.8533  -3.3358
    -3.1412  -3.1039  -3.0689  -2.7094  -2.3973  -2.3645  -2.3346  -2.1746
    -1.9176  -1.8900  -1.8806  -1.8626  -1.4746  -0.7540  -0.5704   0.2891
     0.3678   0.3861   0.4063   0.7820   0.8133   0.8285   0.8515   0.9063
     1.3018   1.4395   1.8407   1.9511   2.2416   2.5819   3.7122   5.8620
     6.0968   6.3412   6.7998   7.1344   7.3038   7.5267   7.6446   7.8764
     8.0871   8.5094

          k = 0.3563 0.3079 0.0879 (  8564 PWs)   bands (ev):

   -13.8831 -13.7665 -13.6521 -13.3914 -13.2782 -13.1676 -11.4674 -11.3681
   -11.2725 -10.0869  -9.9984  -9.9144  -6.6895  -6.6411  -6.5970  -5.4656
    -5.4220  -5.3838  -5.1148  -5.0949  -5.0697  -5.0381  -3.9360  -3.9019
    -3.8708  -3.5192  -3.5086  -3.4627  -3.4206  -2.5892  -2.4192  -2.3810
    -2.3614  -2.3425  -2.2230  -1.9297  -1.4859  -1.2091  -1.0335  -0.9781
    -0.9523  -0.9411  -0.9270  -0.7652  -0.5471  -0.5230  -0.4990  -0.3240
     0.3503   0.9540   1.5556   1.8617   2.3625   2.8619   4.1361   6.2053
     6.4436   6.7185   7.8619   8.0798   8.3235   8.3681   8.6070   9.6154
    10.0256  10.4161

          k = 0.3606 0.2871-0.0582 (  8567 PWs)   bands (ev):

   -13.8831 -13.7664 -13.6521 -13.3914 -13.2782 -13.1676 -11.4675 -11.3681
   -11.2725 -10.0868  -9.9984  -9.9144  -6.6895  -6.6411  -6.5970  -5.4656
    -5.4221  -5.3837  -5.1158  -5.0914  -5.0724  -5.0374  -3.9359  -3.9020
    -3.8707  -3.5191  -3.5055  -3.4638  -3.4202  -2.7062  -2.4193  -2.3789
    -2.3431  -2.2935  -2.0183  -1.8922  -1.6601  -1.4588  -0.9781  -0.9526
    -0.9361  -0.9272  -0.8304  -0.6673  -0.5471  -0.5229  -0.4990  -0.4039
     0.3572   0.9502   1.5534   1.8700   2.3420   2.8767   4.1340   6.2053
     6.4431   6.7192   7.8614   8.0853   8.3296   8.3608   8.6061   9.6183
     9.8923  10.4833

          k = 0.3548 0.4782 0.1028 (  8528 PWs)   bands (ev):

   -13.6371 -13.5223 -13.4098 -13.1475 -13.0361 -12.9274 -12.6621 -12.5541
   -12.4492  -8.6438  -8.5776  -8.5159  -7.6865  -7.6415  -7.6002  -6.0401
    -6.0039  -5.9698  -5.0211  -4.0740  -4.0376  -4.0046  -3.5183  -3.4773
    -3.4416  -3.2995  -2.8267  -2.6406  -2.6124  -2.5862  -2.5619  -2.5336
    -2.5056  -2.2725  -1.9609  -1.8500  -1.8227  -1.7955  -1.6763  -1.5918
    -1.3297  -1.3074  -1.2833  -1.2565  -0.9532  -0.8591  -0.6313  -0.4803
    -0.2587  -0.1447   0.3562   3.3760   3.6546   4.0074   4.1741   4.8919
     5.1177   5.3422   8.2039   8.8001   9.3486   9.7102   9.8880   9.9722
    10.1548  10.5692

          k = 0.3591 0.4575-0.0433 (  8540 PWs)   bands (ev):

   -13.6371 -13.5223 -13.4098 -13.1475 -13.0360 -12.9274 -12.6621 -12.5541
   -12.4492  -8.6438  -8.5776  -8.5159  -7.6865  -7.6415  -7.6002  -6.0400
    -6.0039  -5.9698  -5.0209  -4.0741  -4.0376  -4.0046  -3.5183  -3.4774
    -3.4415  -3.2936  -2.8291  -2.6407  -2.6122  -2.5862  -2.5619  -2.5336
    -2.5055  -2.3401  -1.9405  -1.8501  -1.8223  -1.7963  -1.6818  -1.3776
    -1.3295  -1.3076  -1.2830  -1.2602  -1.0505  -0.9403  -0.7253  -0.4752
    -0.2207  -0.0609   0.3418   3.3734   3.6687   3.9774   4.1919   4.8925
     5.1167   5.3426   8.2270   8.7953   9.3330   9.7119   9.8342   9.9337
    10.1571  10.4322

          k = 0.3532 0.6486 0.1177 (  8556 PWs)   bands (ev):

   -13.5566 -13.5540 -13.4438 -13.4383 -13.3311 -13.3272 -12.1004 -11.9965
   -11.8958  -9.3604  -9.2792  -9.2024  -7.1124  -7.0730  -7.0383  -5.7271
    -5.6979  -5.6729  -5.1042  -4.6944  -4.6630  -4.6344  -3.3791  -3.3699
    -3.3454  -3.3221  -2.9735  -2.9730  -2.9340  -2.9316  -2.8963  -2.8931
    -2.6487  -2.2870  -2.0855  -1.9174  -1.5304  -1.2666  -1.1192  -1.1180
    -1.0927  -1.0903  -1.0677  -1.0624  -0.9360  -0.6998  -0.6283  -0.4668
    -0.2923   0.3440   0.9189   2.6433   3.0558   3.5200   4.0111   5.4942
     5.7324   5.9725   7.8557   8.6697   8.8359   9.0324   9.2409   9.3072
     9.7901  10.5498

          k = 0.3575 0.6278-0.0285 (  8555 PWs)   bands (ev):

   -13.5566 -13.5540 -13.4438 -13.4383 -13.3311 -13.3272 -12.1005 -11.9964
   -11.8959  -9.3604  -9.2792  -9.2024  -7.1125  -7.0730  -7.0383  -5.7271
    -5.6978  -5.6729  -5.1041  -4.6944  -4.6631  -4.6344  -3.3777  -3.3707
    -3.3450  -3.3222  -2.9733  -2.9730  -2.9341  -2.9316  -2.8962  -2.8931
    -2.6482  -2.2931  -2.1077  -1.8982  -1.4595  -1.3212  -1.1193  -1.1180
    -1.0927  -1.0903  -1.0678  -1.0625  -0.9638  -0.7251  -0.6032  -0.4403
    -0.2832   0.3144   0.9333   2.6415   3.0607   3.5155   4.0120   5.4947
     5.7312   5.9728   7.8611   8.6710   8.8308   9.0343   9.2400   9.3726
     9.6861  10.5457

          k = 0.3609-0.2032 0.0433 (  8560 PWs)   bands (ev):

   -14.1302 -14.0118 -13.8955 -13.1468 -13.0355 -12.9267 -10.7676 -10.7670
   -10.6741 -10.6722 -10.5838 -10.5824  -6.3461  -6.3444  -6.2897  -6.2886
    -6.2404  -6.2390  -5.2580  -4.3103  -4.3084  -4.2698  -4.2680  -4.2312
    -4.2292  -4.0752  -4.0243  -3.9762  -3.4323  -2.9288  -2.3108  -2.0318
    -1.8761  -1.8456  -1.8290  -1.8044  -1.6141  -1.4593  -1.0415  -1.0159
    -0.9905  -0.9524  -0.6019  -0.5257  -0.2255  -0.1957  -0.1726  -0.1480
     1.1082   1.1175   1.6451   1.6706   2.2179   2.2257   3.8511   6.9473
     6.9517   7.1638   7.1869   7.4427   7.4509   7.7952   8.4701   9.0710
     9.8702  10.2723

          k = 0.3652-0.2240-0.1028 (  8567 PWs)   bands (ev):

   -14.1302 -14.0119 -13.8955 -13.1469 -13.0354 -12.9268 -10.7676 -10.7670
   -10.6741 -10.6722 -10.5837 -10.5824  -6.3461  -6.3444  -6.2897  -6.2886
    -6.2404  -6.2390  -5.2588  -4.3104  -4.3085  -4.2694  -4.2679  -4.2315
    -4.2293  -4.0752  -4.0244  -3.9762  -3.4416  -2.7545  -2.5647  -2.1711
    -1.8762  -1.8396  -1.8064  -1.8028  -1.3274  -1.2307  -1.0655  -1.0414
    -1.0159  -0.9904  -0.8729  -0.5919  -0.1957  -0.1726  -0.1480  -0.0934
     1.1060   1.1219   1.6483   1.6611   2.2183   2.2302   3.8515   6.9416
     6.9510   7.1777   7.1871   7.4313   7.4510   7.8055   8.4657   9.1649
     9.8026  10.2799

          k = 0.3594-0.0329 0.0582 (  8575 PWs)   bands (ev):

   -14.3779 -14.2577 -14.1394 -12.4193 -12.3131 -12.2100 -11.9397 -11.8368
   -11.7375  -9.2656  -9.1952  -9.1291  -8.0602  -8.0017  -7.9476  -5.5824
    -5.5242  -5.4708  -5.3474  -5.1261  -5.0698  -5.0168  -4.6400  -4.5931
    -4.5483  -3.3841  -3.0336  -2.6261  -2.5917  -2.5588  -2.4807  -2.3259
    -1.9073  -1.9030  -1.8717  -1.8432  -1.2622  -1.1168  -1.0213  -0.9983
    -0.9748  -0.7456  -0.6369  -0.1468  -0.1251  -0.1076  -0.0834   0.0222
     0.4392   0.5580   1.0753   2.5403   2.8227   3.1704   3.8865   5.6833
     5.7535   5.9474   7.9266   8.3098   8.5849   8.6236   8.9035   8.9559
     9.0640   9.2786

          k = 0.3637-0.0536-0.0879 (  8561 PWs)   bands (ev):

   -14.3779 -14.2577 -14.1394 -12.4193 -12.3131 -12.2100 -11.9397 -11.8369
   -11.7374  -9.2656  -9.1953  -9.1291  -8.0602  -8.0017  -7.9476  -5.5825
    -5.5240  -5.4710  -5.3482  -5.1260  -5.0698  -5.0167  -4.6401  -4.5928
    -4.5484  -3.3725  -2.9828  -2.6322  -2.6142  -2.5901  -2.5570  -2.3686
    -1.9032  -1.8721  -1.8435  -1.6788  -1.3638  -1.1433  -1.0213  -0.9986
    -0.9751  -0.7246  -0.5890  -0.1805  -0.1252  -0.1076  -0.0846  -0.0561
     0.4815   0.6014   1.0507   2.5374   2.8345   3.1574   3.8924   5.6733
     5.7732   5.9369   7.9284   8.3069   8.5682   8.6826   8.8974   8.9619
     9.0484   9.3177

          k = 0.3578 0.1375 0.0731 (  8570 PWs)   bands (ev):

   -14.2952 -14.1756 -14.0580 -12.8220 -12.7128 -12.6066 -11.3880 -11.2893
   -11.1943 -10.0144  -9.9272  -9.8442  -7.2508  -7.1859  -7.1270  -5.9876
    -5.9300  -5.8760  -5.2704  -4.6185  -4.5634  -4.5338  -4.5135  -4.4880
    -4.4450  -3.4515  -3.4110  -3.3745  -3.3464  -3.0706  -2.5931  -2.1227
    -1.7259  -1.4828  -1.3768  -1.3581  -1.3444  -1.3314  -1.3136  -1.3060
    -1.1863  -0.9497  -0.7898  -0.4561  -0.0840  -0.0618  -0.0386   0.2151
     0.4303   1.0165   1.6020   1.8957   2.3424   2.8289   4.0196   6.1088
     6.3397   6.6284   7.6161   7.8765   8.1726   8.3451   8.6419   9.0971
     9.6413   9.8456

          k = 0.3622 0.1167-0.0731 (  8571 PWs)   bands (ev):

   -14.2952 -14.1756 -14.0580 -12.8219 -12.7129 -12.6066 -11.3880 -11.2893
   -11.1943 -10.0144  -9.9272  -9.8443  -7.2508  -7.1859  -7.1269  -5.9875
    -5.9300  -5.8760  -5.2701  -4.6185  -4.5635  -4.5338  -4.5135  -4.4879
    -4.4451  -3.4515  -3.4110  -3.3780  -3.3713  -3.0232  -2.6138  -2.1055
    -1.7357  -1.4137  -1.3767  -1.3580  -1.3444  -1.3314  -1.3130  -1.3058
    -1.2664  -1.0335  -0.8115  -0.2599  -0.0840  -0.0618  -0.0386   0.1322
     0.4274   1.0104   1.6082   1.8905   2.3540   2.8221   4.0182   6.1145
     6.3301   6.6324   7.6186   7.8674   8.1859   8.3323   8.6240   9.1471
     9.6322   9.7694

     the Fermi energy is     4.5645 ev

!    total energy              =    -302.93930435 Ry
     estimated scf accuracy    <       0.00000090 Ry
     smearing contrib. (-TS)   =      -0.00000286 Ry
     internal energy E=F+TS    =    -302.93930148 Ry

     The total energy is F=E-TS. E is the sum of the following terms:
     one-electron contribution =    -438.51362911 Ry
     hartree contribution      =     264.30730889 Ry
     xc contribution           =    -108.98082944 Ry
     ewald contribution        =     -19.75215182 Ry

     convergence has been achieved in 106 iterations

     Forces acting on atoms (cartesian axes, Ry/au):

     atom    1 type  1   force =     0.00046116   -0.00054033    0.00009023
     atom    2 type  1   force =     0.00027530    0.00019558   -0.00006252
     atom    3 type  1   force =    -0.00008993    0.00006624    0.00034641
     atom    4 type  1   force =    -0.00054959    0.00055084   -0.00046758
     atom    5 type  1   force =    -0.00090144    0.00063009   -0.00011906
     atom    6 type  1   force =     0.00039258   -0.00007680   -0.00035636
     atom    7 type  1   force =     0.00046899   -0.00057421    0.00058020
     atom    8 type  1   force =     0.00042437   -0.00145286    0.00010459
     atom    9 type  1   force =    -0.00015728   -0.00000668    0.00029587
     atom   10 type  1   force =    -0.00047490    0.00052139   -0.00002494
     atom   11 type  1   force =    -0.00035655    0.00084092    0.00035695
     atom   12 type  1   force =     0.00028930   -0.00046041    0.00010844
     atom   13 type  1   force =     0.00057509   -0.00069179    0.00024865
     atom   14 type  1   force =     0.00062156   -0.00003142    0.00010739
     atom   15 type  1   force =     0.00025736    0.00046093    0.00011125
     atom   16 type  1   force =    -0.00040654    0.00069522    0.00021401
     atom   17 type  1   force =    -0.00046038    0.00064333   -0.00080398
     atom   18 type  1   force =     0.00087503   -0.00007615    0.00060584
     atom   19 type  1   force =     0.00042208   -0.00069075   -0.00003796
     atom   20 type  1   force =    -0.00045112    0.00000071    0.00026438
     atom   21 type  1   force =    -0.00008468    0.00054257   -0.00032867
     atom   22 type  1   force =    -0.00053184    0.00063877   -0.00010906
     atom   23 type  1   force =    -0.00028377   -0.00003364    0.00015970
     atom   24 type  1   force =     0.00031942   -0.00032535   -0.00014310
     atom   25 type  2   force =     0.00434420   -0.00111543   -0.00310310
     atom   26 type  2   force =     0.00781606    0.00042414   -0.00105517
     atom   27 type  2   force =     0.01975553    0.03029301    0.04736290
     atom   28 type  2   force =     0.01526826    0.02012958    0.03092224
     atom   29 type  2   force =    -0.00255543    0.00122238    0.00068936
     atom   30 type  2   force =     0.00493107   -0.00154760   -0.00097393
     atom   31 type  2   force =    -0.00072253    0.00146163   -0.00008322
     atom   32 type  2   force =    -0.00170429    0.00235834    0.00000956
     atom   33 type  2   force =    -0.00621009    0.02800628   -0.02438373
     atom   34 type  2   force =    -0.01506569    0.03931816   -0.03883820
     atom   35 type  2   force =     0.00324286   -0.03252996   -0.00227379
     atom   36 type  2   force =    -0.03543317   -0.06344479   -0.00200981
     atom   37 type  2   force =     0.11556959    0.13876477   -0.01229791
     atom   38 type  2   force =    -0.10987060   -0.16416672    0.00489413
     The non-local contrib.  to forces
     atom    1 type  1   force =     0.00024613   -0.00044090    0.00014274
     atom    2 type  1   force =     0.00147817   -0.00089011    0.00271771
     atom    3 type  1   force =    -0.00145957    0.00126110   -0.00084239
     atom    4 type  1   force =    -0.00042844    0.00043245   -0.00052370
     atom    5 type  1   force =    -0.00064831   -0.00079095    0.00149967
     atom    6 type  1   force =    -0.00093165   -0.00180743   -0.00035888
     atom    7 type  1   force =     0.00029693   -0.00048118    0.00016723
     atom    8 type  1   force =    -0.00160228   -0.00031185   -0.00173405
     atom    9 type  1   force =     0.00108561    0.00269546    0.00104149
     atom   10 type  1   force =    -0.00022666    0.00039523   -0.00038439
     atom   11 type  1   force =     0.00029167   -0.00148429   -0.00169633
     atom   12 type  1   force =     0.00139402   -0.00097711   -0.00089207
     atom   13 type  1   force =     0.00036018   -0.00057487   -0.00011561
     atom   14 type  1   force =    -0.00157957   -0.00073302   -0.00375523
     atom   15 type  1   force =    -0.00072123   -0.00185159    0.00051093
     atom   16 type  1   force =    -0.00023592    0.00042919   -0.00029455
     atom   17 type  1   force =     0.00107900    0.00198129   -0.00555017
     atom   18 type  1   force =    -0.00046611    0.00011392    0.00263673
     atom   19 type  1   force =     0.00026816   -0.00048111    0.00013084
     atom   20 type  1   force =     0.00193433   -0.00087219    0.00018800
     atom   21 type  1   force =     0.00081710   -0.00032059    0.00166319
     atom   22 type  1   force =    -0.00025159    0.00048073   -0.00018881
     atom   23 type  1   force =    -0.00157846    0.00258226    0.00150410
     atom   24 type  1   force =     0.00135448    0.00146187    0.00043995
     atom   25 type  2   force =     0.03838886    0.01381389    0.04802342
     atom   26 type  2   force =    -0.03754307   -0.01362620   -0.04779173
     atom   27 type  2   force =     0.01633553   -0.05992539    0.00662325
     atom   28 type  2   force =    -0.01383182    0.06262124   -0.00658493
     atom   29 type  2   force =     0.05875882   -0.02146590    0.00259667
     atom   30 type  2   force =    -0.05841464    0.02077853   -0.00345801
     atom   31 type  2   force =     0.04488364    0.04372194    0.00366620
     atom   32 type  2   force =    -0.04517993   -0.04323711   -0.00447403
     atom   33 type  2   force =     0.04331820    0.04684433   -0.00438422
     atom   34 type  2   force =    -0.04340012   -0.04388563    0.00312074
     atom   35 type  2   force =    -0.06314992   -0.00597756    0.00320452
     atom   36 type  2   force =     0.05921871    0.01190684   -0.00144474
     atom   37 type  2   force =     0.02193220    0.01416554   -0.00286540
     atom   38 type  2   force =    -0.02066577   -0.02524810    0.00448204
     The ionic contribution  to forces
     atom    1 type  1   force =    -0.00439769    0.02250199    0.16590796
     atom    2 type  1   force =    -0.28475603    1.22251440    9.01660911
     atom    3 type  1   force =     0.19243476   -1.21044998   -8.80237182
     atom    4 type  1   force =    -0.00620513    0.02411436    0.16252747
     atom    5 type  1   force =    -0.25098565    1.28450306    8.93714405
     atom    6 type  1   force =     0.19894800   -1.30046246   -8.77311916
     atom    7 type  1   force =    -0.00366936    0.02101645    0.15281348
     atom    8 type  1   force =    -0.23541998    1.25799992    8.91185935
     atom    9 type  1   force =     0.32611834   -1.20633455   -8.77313516
     atom   10 type  1   force =    -0.00489144    0.02376723    0.15332517
     atom   11 type  1   force =    -0.28487943    1.26925212    8.97812634
     atom   12 type  1   force =     0.32042773   -1.28612631   -8.75720417
     atom   13 type  1   force =    -0.00392592    0.02136460    0.15830493
     atom   14 type  1   force =    -0.31284986    1.29787551    8.99111871
     atom   15 type  1   force =     0.25609411   -1.32271590   -8.75078161
     atom   16 type  1   force =    -0.00594026    0.02111158    0.14851102
     atom   17 type  1   force =    -0.25006877    1.29138158    8.97020166
     atom   18 type  1   force =     0.24808589   -1.22879128   -8.69513605
     atom   19 type  1   force =    -0.00384552    0.02344746    0.16995358
     atom   20 type  1   force =    -0.21994840    1.32773533    9.03977625
     atom   21 type  1   force =     0.25728347   -1.23470609   -8.68041689
     atom   22 type  1   force =    -0.00456784    0.02316460    0.15934960
     atom   23 type  1   force =    -0.28166990    1.28453857    9.09314191
     atom   24 type  1   force =     0.26709454   -1.17140085   -8.79382038
     atom   25 type  2   force =    -0.44787539    0.04041520    1.17428692
     atom   26 type  2   force =     0.56199772    0.29679584    1.51814793
     atom   27 type  2   force =    -0.02713122    0.71327277   -1.65067956
     atom   28 type  2   force =     0.31681702   -1.01679620   -1.34373787
     atom   29 type  2   force =    -0.72278267    0.11525100   -1.81992577
     atom   30 type  2   force =     0.70704205   -0.53059206   -1.64478666
     atom   31 type  2   force =    -0.57715951   -0.76615952   -1.73188211
     atom   32 type  2   force =     0.69298955    0.25908597   -1.76385219
     atom   33 type  2   force =    -0.80848751   -0.22630487    1.41873430
     atom   34 type  2   force =     0.46075132    1.01454398    1.33801752
     atom   35 type  2   force =     0.82506648   -0.21631725    0.49968709
     atom   36 type  2   force =    -0.87679250   -0.31841943    0.54304594
     atom   37 type  2   force =    -0.31731517   -0.06923385    0.25932018
     atom   38 type  2   force =     0.30441417    0.24915704    0.02093893
     The local contribution  to forces
     atom    1 type  1   force =     0.00459546   -0.02251995   -0.16531417
     atom    2 type  1   force =     0.28357603   -1.22145623   -9.01948968
     atom    3 type  1   force =    -0.19110689    1.20934801    8.80390106
     atom    4 type  1   force =     0.00605559   -0.02390765   -0.16188495
     atom    5 type  1   force =     0.25071896   -1.28310504   -8.93894689
     atom    6 type  1   force =    -0.19766273    1.30218623    8.77343890
     atom    7 type  1   force =     0.00383778   -0.02103719   -0.15177457
     atom    8 type  1   force =     0.23743985   -1.25919908   -8.91038360
     atom    9 type  1   force =    -0.32734712    1.20374542    8.77275118
     atom   10 type  1   force =     0.00461594   -0.02354480   -0.15239988
     atom   11 type  1   force =     0.28425328   -1.26693687   -8.97626452
     atom   12 type  1   force =    -0.32149439    1.28665205    8.75855599
     atom   13 type  1   force =     0.00414135   -0.02140569   -0.15730769
[...]
     atom   18 type  1   force =     0.34241738   -1.43009534  -10.32098497
     atom   19 type  1   force =    -0.00816855    0.01679604    0.11688020
     atom   20 type  1   force =    -0.34456813    1.47385913   10.54781353
     atom   21 type  1   force =     0.40108528   -1.48838731  -10.21328252
     atom   22 type  1   force =     0.00829632    0.01176510    0.10713531
     atom   23 type  1   force =    -0.40147239    1.51513963   10.58991376
     atom   24 type  1   force =     0.42130224   -1.37885474  -10.31778232
     atom   25 type  2   force =    -0.38006124    0.44268022    1.74449514
     atom   26 type  2   force =     0.23802317    0.13861003    2.25103976
     atom   27 type  2   force =     0.00292321    0.49413828   -2.67151065
     atom   28 type  2   force =     0.18536387   -1.20077526   -2.41432989
     atom   29 type  2   force =    -0.67845643   -0.01436534   -2.13151914
     atom   30 type  2   force =     0.84855006   -0.57792842   -2.01690650
     atom   31 type  2   force =    -0.58834676   -0.76626115   -1.71985581
     atom   32 type  2   force =     0.69169150    0.26172757   -1.72574788
     atom   33 type  2   force =    -0.19448620   -0.50708948    2.03837773
     atom   34 type  2   force =     0.04251857    1.05325273    1.85812393
     atom   35 type  2   force =     0.77846433    0.09050856    0.87519698
     atom   36 type  2   force =    -0.79840313    0.18901357    0.80724844
     atom   37 type  2   force =    -0.60567579   -0.46206551    0.81034219
     atom   38 type  2   force =     0.51829234    0.63077911    0.74306052
     The local contribution  to forces
     atom    1 type  1   force =     0.00818823   -0.01295605   -0.06628462
     atom    2 type  1   force =     0.34454459   -1.47410389  -10.61811749
     atom    3 type  1   force =    -0.33526622    1.42542646   10.44904906
     atom    4 type  1   force =    -0.00799677    0.00076689   -0.05024822
     atom    5 type  1   force =     0.41430707   -1.51559617  -10.59054223
     atom    6 type  1   force =    -0.33682335    1.55084216   10.30678659
     atom    7 type  1   force =     0.01356296   -0.02300737   -0.10960762
     atom    8 type  1   force =     0.41347570   -1.48166873  -10.34293719
     atom    9 type  1   force =    -0.41016927    1.38005986   10.39629836
     atom   10 type  1   force =    -0.00081526   -0.01271380   -0.09864969
     atom   11 type  1   force =     0.36236886   -1.47469474  -10.39494917
     atom   12 type  1   force =    -0.43058842    1.52311224   10.43591217
     atom   13 type  1   force =     0.01280271   -0.01023053   -0.05098907
     atom   14 type  1   force =     0.40768215   -1.48346383  -10.30157709
     atom   15 type  1   force =    -0.34199232    1.55025731   10.30752212
     atom   16 type  1   force =    -0.00172186   -0.00580432   -0.04723992
     atom   17 type  1   force =     0.36869984   -1.44251300  -10.26240441
     atom   18 type  1   force =    -0.34320945    1.42913952   10.31948434
     atom   19 type  1   force =     0.00916152   -0.01755814   -0.11777542
     atom   20 type  1   force =     0.34279436   -1.47244629  -10.54800060
     atom   21 type  1   force =    -0.40031508    1.48938765   10.20982290
     atom   22 type  1   force =    -0.00944993   -0.01113650   -0.10843033
     atom   23 type  1   force =     0.40335493   -1.51692640  -10.59059204
     atom   24 type  1   force =    -0.42220745    1.37756772   10.31542976
     atom   25 type  2   force =     0.35921467   -0.43683332   -1.80268668
     atom   26 type  2   force =    -0.21631924   -0.14443191   -2.19190566
     atom   27 type  2   force =    -0.01355401   -0.43329084    2.66196865
     atom   28 type  2   force =    -0.17513471    1.13892732    2.42302654
     atom   29 type  2   force =     0.61875821    0.03172497    2.12913628
     atom   30 type  2   force =    -0.78817072    0.56089510    2.01823510
     atom   31 type  2   force =     0.54387291    0.72348195    1.71154985
     atom   32 type  2   force =    -0.64724663   -0.21920882    1.73403187
     atom   33 type  2   force =     0.18489536    0.44830107   -2.03472816
     atom   34 type  2   force =    -0.03256017   -0.99398730   -1.86195278
     atom   35 type  2   force =    -0.71826028   -0.09546674   -0.87520212
     atom   36 type  2   force =     0.73797430   -0.18580373   -0.80738842
     atom   37 type  2   force =     0.56227076    0.41770972   -0.81589195
     atom   38 type  2   force =    -0.47492554   -0.58703982   -0.73856817
     The core correction contribution to forces
     atom    1 type  1   force =     0.00007675   -0.00002891    0.00001144
     atom    2 type  1   force =    -0.00004383    0.00002446   -0.00027505
     atom    3 type  1   force =     0.00006482   -0.00007832    0.00010002
     atom    4 type  1   force =    -0.00007442    0.00004157    0.00008361
     atom    5 type  1   force =     0.00001935   -0.00005533   -0.00022828
     atom    6 type  1   force =    -0.00002884    0.00004814   -0.00005269
     atom    7 type  1   force =     0.00008068   -0.00004031   -0.00008902
     atom    8 type  1   force =    -0.00006535    0.00001140    0.00012838
     atom    9 type  1   force =     0.00005209   -0.00005254    0.00007405
     atom   10 type  1   force =    -0.00007169    0.00002375   -0.00001702
     atom   11 type  1   force =     0.00010577    0.00004507    0.00002651
     atom   12 type  1   force =    -0.00005293    0.00007608    0.00013237
     atom   13 type  1   force =     0.00007037   -0.00002533    0.00002837
     atom   14 type  1   force =    -0.00005265    0.00006954    0.00031583
     atom   15 type  1   force =     0.00003417    0.00001630   -0.00008694
     atom   16 type  1   force =    -0.00007733    0.00004330    0.00008707
     atom   17 type  1   force =     0.00003129   -0.00003744    0.00033709
     atom   18 type  1   force =    -0.00008018    0.00000198    0.00003769
     atom   19 type  1   force =     0.00007343   -0.00004451   -0.00009595
     atom   20 type  1   force =    -0.00006714    0.00004598   -0.00011578
     atom   21 type  1   force =     0.00005205   -0.00001518   -0.00016924
     atom   22 type  1   force =    -0.00007645    0.00002727   -0.00003266
     atom   23 type  1   force =     0.00008516   -0.00011002   -0.00017960
     atom   24 type  1   force =    -0.00004441   -0.00000915   -0.00007275
     atom   25 type  2   force =     0.00000000    0.00000000    0.00000000
     atom   26 type  2   force =     0.00000000    0.00000000    0.00000000
     atom   27 type  2   force =     0.00000000    0.00000000    0.00000000
     atom   28 type  2   force =     0.00000000    0.00000000    0.00000000
     atom   29 type  2   force =     0.00000000    0.00000000    0.00000000
     atom   30 type  2   force =     0.00000000    0.00000000    0.00000000
     atom   31 type  2   force =     0.00000000    0.00000000    0.00000000
     atom   32 type  2   force =     0.00000000    0.00000000    0.00000000
     atom   33 type  2   force =     0.00000000    0.00000000    0.00000000
     atom   34 type  2   force =     0.00000000    0.00000000    0.00000000
     atom   35 type  2   force =     0.00000000    0.00000000    0.00000000
     atom   36 type  2   force =     0.00000000    0.00000000    0.00000000
     atom   37 type  2   force =     0.00000000    0.00000000    0.00000000
     atom   38 type  2   force =     0.00000000    0.00000000    0.00000000
     The Hubbard contrib.    to forces
     atom    1 type  1   force =     0.00000000    0.00000000    0.00000000
     atom    2 type  1   force =     0.00000000    0.00000000    0.00000000
     atom    3 type  1   force =     0.00000000    0.00000000    0.00000000
     atom    4 type  1   force =     0.00000000    0.00000000    0.00000000
     atom    5 type  1   force =     0.00000000    0.00000000    0.00000000
     atom    6 type  1   force =     0.00000000    0.00000000    0.00000000
     atom    7 type  1   force =     0.00000000    0.00000000    0.00000000
     atom    8 type  1   force =     0.00000000    0.00000000    0.00000000
     atom    9 type  1   force =     0.00000000    0.00000000    0.00000000
     atom   10 type  1   force =     0.00000000    0.00000000    0.00000000
     atom   11 type  1   force =     0.00000000    0.00000000    0.00000000
     atom   12 type  1   force =     0.00000000    0.00000000    0.00000000
     atom   13 type  1   force =     0.00000000    0.00000000    0.00000000
     atom   14 type  1   force =     0.00000000    0.00000000    0.00000000
     atom   15 type  1   force =     0.00000000    0.00000000    0.00000000
     atom   16 type  1   force =     0.00000000    0.00000000    0.00000000
     atom   17 type  1   force =     0.00000000    0.00000000    0.00000000
     atom   18 type  1   force =     0.00000000    0.00000000    0.00000000
     atom   19 type  1   force =     0.00000000    0.00000000    0.00000000
     atom   20 type  1   force =     0.00000000    0.00000000    0.00000000
     atom   21 type  1   force =     0.00000000    0.00000000    0.00000000
     atom   22 type  1   force =     0.00000000    0.00000000    0.00000000
     atom   23 type  1   force =     0.00000000    0.00000000    0.00000000
     atom   24 type  1   force =     0.00000000    0.00000000    0.00000000
     atom   25 type  2   force =     0.00000000    0.00000000    0.00000000
     atom   26 type  2   force =     0.00000000    0.00000000    0.00000000
     atom   27 type  2   force =     0.00000000    0.00000000    0.00000000
     atom   28 type  2   force =     0.00000000    0.00000000    0.00000000
     atom   29 type  2   force =     0.00000000    0.00000000    0.00000000
     atom   30 type  2   force =     0.00000000    0.00000000    0.00000000
     atom   31 type  2   force =     0.00000000    0.00000000    0.00000000
     atom   32 type  2   force =     0.00000000    0.00000000    0.00000000
     atom   33 type  2   force =     0.00000000    0.00000000    0.00000000
     atom   34 type  2   force =     0.00000000    0.00000000    0.00000000
     atom   35 type  2   force =     0.00000000    0.00000000    0.00000000
     atom   36 type  2   force =     0.00000000    0.00000000    0.00000000
     atom   37 type  2   force =     0.00000000    0.00000000    0.00000000
     atom   38 type  2   force =     0.00000000    0.00000000    0.00000000
     The SCF correction term to forces
     atom    1 type  1   force =     0.00000109   -0.00000139   -0.00002276
     atom    2 type  1   force =     0.00000699   -0.00001647   -0.00011236
     atom    3 type  1   force =    -0.00000310    0.00000868    0.00005257
     atom    4 type  1   force =     0.00000085   -0.00000314   -0.00002285
     atom    5 type  1   force =     0.00000273   -0.00001534   -0.00011053
     atom    6 type  1   force =    -0.00000290    0.00000712    0.00005109
     atom    7 type  1   force =     0.00000019   -0.00000412   -0.00002329
     atom    8 type  1   force =     0.00000262   -0.00001699   -0.00011362
     atom    9 type  1   force =    -0.00000101    0.00000568    0.00005325
     atom   10 type  1   force =     0.00000043   -0.00000407   -0.00002292
     atom   11 type  1   force =     0.00000607   -0.00001414   -0.00011325
     atom   12 type  1   force =    -0.00000108    0.00000476    0.00005334
     atom   13 type  1   force =     0.00000236   -0.00000268   -0.00002285
     atom   14 type  1   force =     0.00000435   -0.00001393   -0.00010786
     atom   15 type  1   force =    -0.00000067    0.00000536    0.00005200
     atom   16 type  1   force =     0.00000266   -0.00000270   -0.00002241
     atom   17 type  1   force =     0.00000345   -0.00001791   -0.00010777
     atom   18 type  1   force =    -0.00000092    0.00000650    0.00005283
     atom   19 type  1   force =    -0.00000025   -0.00000350   -0.00002355
     atom   20 type  1   force =     0.00000411   -0.00001637   -0.00010850
     atom   21 type  1   force =    -0.00000557    0.00000598    0.00005113
     atom   22 type  1   force =    -0.00000067   -0.00000293   -0.00002314
     atom   23 type  1   force =     0.00000605   -0.00001648   -0.00010915
     atom   24 type  1   force =    -0.00000524    0.00000781    0.00005191
     atom   25 type  2   force =    -0.00000533   -0.00000003   -0.00000103
     atom   26 type  2   force =    -0.00000334   -0.00000050    0.00001032
     atom   27 type  2   force =    -0.00000273    0.00000161    0.00001356
     atom   28 type  2   force =    -0.00000419    0.00000345    0.00001197
     atom   29 type  2   force =     0.00000114    0.00000522    0.00001934
     atom   30 type  2   force =     0.00000457    0.00000399    0.00001906
     atom   31 type  2   force =    -0.00000512    0.00000167    0.00001476
     atom   32 type  2   force =    -0.00000544   -0.00000004    0.00001525
     atom   33 type  2   force =     0.00000462    0.00000469    0.00000223
     atom   34 type  2   force =     0.00000225    0.00000337    0.00000360
     atom   35 type  2   force =    -0.00000381    0.00000379    0.00001189
     atom   36 type  2   force =    -0.00000140   -0.00000033    0.00001267
     atom   37 type  2   force =     0.00000421    0.00000444    0.00001974
     atom   38 type  2   force =    -0.00000050    0.00000365    0.00001986

     Total force =     0.011365     Total SCF correction =     0.000360


     Computing stress (Cartesian axis) and pressure

          total   stress  (Ry/bohr**3)                   (kbar)     P=       -0.27
   0.00000108   0.00000138   0.00000260            0.16        0.20        0.38
   0.00000138  -0.00000320  -0.00000198            0.20       -0.47       -0.29
   0.00000260  -0.00000198  -0.00000330            0.38       -0.29       -0.48

     Energy error            =      2.1E-04 Ry
     Gradient error          =      5.0E-03 Ry/Bohr
     Cell gradient error     =      4.8E-01 kbar

     number of scf cycles    =  50
     number of bfgs steps    =  49

     enthalpy           old  =    -303.1697416797 Ry
     enthalpy           new  =    -303.1699509061 Ry

     CASE: enthalpy          _new < enthalpy          _old

     new trust radius        =       0.1003473853 bohr

     The maximum number of steps has been reached.

     End of BFGS Geometry Optimization
     new unit-cell volume =   2069.32968 a.u.^3 (   306.64302 Ang^3 )
     density =      1.63742 g/cm^3

CELL_PARAMETERS (alat=  8.00000437)
   1.154899478   0.008911771   0.039704213
  -0.579518560   0.986765361  -0.160709345
   0.124494796  -0.285972594   3.575541597

ATOMIC_POSITIONS (crystal)
C            -0.0515304278       -0.1008405176        0.1580667522
C            -0.0111879912        0.0857116051        0.3803716544
C             0.0817773482        0.0659380847        0.9371207775
C             0.1150791883        0.2324895650        0.1580142556
C             0.3220839999        0.2522732343        0.3801959244
C             0.2486276323        0.3996627979        0.9375538031
C             0.4485490048       -0.1005507801        0.1583746784
C             0.4886147986        0.0847699645        0.3791880984
C             0.5817515950        0.0658880100        0.9369862874
C             0.6151578799        0.2327790508        0.1583236170
C             0.8221323701        0.2518002905        0.3794554195
C             0.7485119751        0.3992671984        0.9370458440
C            -0.0515725345        0.3991473126        0.1580166112
C            -0.0113015596        0.5844494751        0.3787077278
C             0.0819135382        0.5662387978        0.9373428470
C             0.1151455729        0.7324456717        0.1579194663
C             0.3218958655        0.7508762590        0.3784965261
C             0.2484361355        0.8991588857        0.9369983144
C             0.4484904076        0.3995037894        0.1584760079
C             0.4887723538        0.5851818425        0.3796730786
C             0.5820067787        0.5665607914        0.9377267500
C             0.6151986703        0.7327949683        0.1583722587
C             0.8221912734        0.7519910016        0.3799097764
C             0.7485677279        0.8995225252        0.9374241721
H             0.6005649891        1.2097465492        0.5437347364
H             0.6416285313        1.1993389072        0.5907799325
H             0.4362691596        0.7109508509        0.7704780775
H             0.3732008925        0.5312817651        0.7704033847
H             0.8249248963        0.6086043529        0.7496406909
H             0.9513351508        0.5565618373        0.7475406781
H             0.2927815942        0.0185864725        0.7297638694
H             0.4692057709        0.1461821035        0.7412179169
H             0.0667174330        0.6074263336        0.5675595877
H             0.1771145075        0.7918291294        0.5717858734
H             0.7167472269        0.7430118275        0.6183104014
H             0.5691801946        0.7634708410        0.6199246489
H             0.0511011078        0.1817705491        0.6145274026
H             0.2254286246        0.3188746538        0.6233433104



     Writing config-only to output data dir ../../results/server/7h2_abs/7H2abs_C.save/
     NEW-OLD atomic charge density approx. for the potential

     Check: negative core charge=   -0.000002
     extrapolated charge  109.73875, renormalised to  110.00000

     Writing all to output data dir ../../results/server/7h2_abs/7H2abs_C.save/
 
     init_run     :      0.72s CPU      0.89s WALL (       1 calls)
     electrons    :   1468.56s CPU   1529.37s WALL (      50 calls)
     update_pot   :     11.69s CPU     11.96s WALL (      50 calls)
     forces       :     13.90s CPU     16.09s WALL (      50 calls)
     stress       :    149.59s CPU    152.24s WALL (      50 calls)

     Called by init_run:
     wfcinit      :      0.50s CPU      0.57s WALL (       1 calls)
     potinit      :      0.07s CPU      0.08s WALL (       1 calls)
     hinit0       :      0.11s CPU      0.14s WALL (       1 calls)

     Called by electrons:
     c_bands      :   1285.94s CPU   1328.57s WALL (    1368 calls)
     sum_band     :    156.57s CPU    164.50s WALL (    1368 calls)
     v_of_rho     :      1.98s CPU      2.83s WALL (    1419 calls)
     newd         :      7.73s CPU      8.62s WALL (    1419 calls)
     mix_rho      :     11.18s CPU     13.93s WALL (    1368 calls)

     Called by c_bands:
     init_us_2    :     11.74s CPU     12.68s WALL (   51066 calls)
     init_us_2:cp :     11.57s CPU     12.51s WALL (   51066 calls)
     cegterg      :   1159.91s CPU   1197.06s WALL (   24652 calls)

     Called by *egterg:
     cdiaghg      :    401.39s CPU    409.69s WALL (   94088 calls)
     h_psi        :    591.31s CPU    617.04s WALL (   95016 calls)
     s_psi        :     32.56s CPU     33.17s WALL (   95016 calls)
     g_psi        :      2.04s CPU      2.10s WALL (   70346 calls)

     Called by h_psi:
     h_psi:calbec :     67.74s CPU     70.56s WALL (   95016 calls)
     vloc_psi     :    486.21s CPU    508.24s WALL (   95016 calls)
     add_vuspsi   :     33.62s CPU     34.35s WALL (   95016 calls)

     General routines
     calbec       :    105.12s CPU    109.16s WALL (  124140 calls)
     fft          :      4.25s CPU      5.29s WALL (    8864 calls)
     ffts         :      4.54s CPU      5.25s WALL (   36503 calls)
     fftw         :    497.04s CPU    519.11s WALL ( 9488362 calls)
     interpolate  :      0.68s CPU      0.94s WALL (    1419 calls)
     davcio       :      0.00s CPU      0.04s WALL (      18 calls)
 
     Parallel routines
 
     PWSCF        :  27m26.90s CPU  28m35.47s WALL

 
   This run was terminated on:  23:17:49   2Sep2024            

=------------------------------------------------------------------------------=
   JOB DONE.
=------------------------------------------------------------------------------=
