
     Program PWSCF v.7.2 starts on  3Sep2024 at  0:21:22 

     This program is part of the open-source Quantum ESPRESSO suite
     for quantum simulation of materials; please cite
         "P. Giannozzi et al., J. Phys.:Condens. Matter 21 395502 (2009);
         "P. Giannozzi et al., J. Phys.:Condens. Matter 29 465901 (2017);
         "P. Giannozzi et al., J. Chem. Phys. 152 154105 (2020);
          URL http://www.quantum-espresso.org", 
     in publications or presentations arising from this work. More details at
     http://www.quantum-espresso.org/quote

     Parallel version (MPI & OpenMP), running on      96 processor cores
     Number of MPI processes:                96
     Threads/MPI process:                     1

     MPI processes distributed on     2 nodes
     366358 MiB available memory on the printing compute node when the environment starts
 
     Reading input from hydrogen_absorption7.in

     Current dimensions of program PWSCF are:
     Max number of different atomic species (ntypx) = 10
     Max number of k-points (npk) =  40000
     Max angular momentum in pseudopotentials (lmaxx) =  4

     IMPORTANT: XC functional enforced from input :
     Exchange-correlation= LDA
                           (   1   1   0   0   0   0   0)
     Any further DFT definition will be discarded
     Please, verify this is what you really want

 
     K-points division:     npool     =       2
     R & G space division:  proc/nbgrp/npool/nimage =      48
     Subspace diagonalization in iterative solution of the eigenvalue problem:
     a serial algorithm will be used

 
     Parallelization info
     --------------------
     sticks:   dense  smooth     PW     G-vecs:    dense   smooth      PW
     Min          48      19      5                 5701     1440     225
     Max          49      20      6                 5724     1461     245
     Sum        2347     955    283               274553    69559   11335
 
     Using Slab Decomposition
 

     Title: 
     7H2_absorption_C                                                           


     bravais-lattice index     =            0
     lattice parameter (alat)  =       8.0000  a.u.
     unit-cell volume          =    2032.6413 (a.u.)^3
     number of atoms/cell      =           38
     number of atomic types    =            2
     number of electrons       =       110.00
     number of Kohn-Sham states=           66
     kinetic-energy cutoff     =      40.0000  Ry
     charge density cutoff     =     400.0000  Ry
     scf convergence threshold =      1.0E-06
     mixing beta               =       0.0100
     number of iterations used =            8  local-TF  mixing
     energy convergence thresh.=      1.0E-04
     force convergence thresh. =      1.0E-03
     press convergence thresh. =      5.0E-01
     Exchange-correlation= LDA
                           (   1   1   0   0   0   0   0)
     nstep                     =           50


     celldm(1)=   8.000004  celldm(2)=   0.000000  celldm(3)=   0.000000
     celldm(4)=   0.000000  celldm(5)=   0.000000  celldm(6)=   0.000000

     crystal axes: (cart. coord. in units of alat)
               a(1) = (   1.154054   0.012357   0.063277 )  
               a(2) = (  -0.578343   0.982388  -0.191068 )  
               a(3) = (   0.197460  -0.355098   3.548190 )  

     reciprocal axes: (cart. coord. in units 2 pi/alat)
               b(1) = (  0.860921  0.507391  0.002868 )  
               b(2) = ( -0.016704  1.028290  0.103840 )  
               b(3) = ( -0.016253  0.046324  0.287374 )  


     PseudoPot. # 1 for C  read from file:
     ../../potentials/C.pz-n-rrkjus_psl.0.1.UPF
     MD5 check sum: a3cecbabebb5b3a1aff122f23eb09bb0
     Pseudo is Ultrasoft + core correction, Zval =  4.0
     Generated using "atomic" code by A. Dal Corso  v.5.0.2 svn rev. 9415
     Using radial grid of 1073 points,  4 beta functions with: 
                l(1) =   0
                l(2) =   0
                l(3) =   1
                l(4) =   1
     Q(r) pseudized with 0 coefficients 


     PseudoPot. # 2 for H  read from file:
     ../../potentials/H.pz-rrkjus_psl.0.1.UPF
     MD5 check sum: 1467ebfaa2880178e80d097b970df8c7
     Pseudo is Ultrasoft, Zval =  1.0
     Generated using "atomic" code by A. Dal Corso  v.5.0.2 svn rev. 9415
     Using radial grid of  929 points,  2 beta functions with: 
                l(1) =   0
                l(2) =   0
     Q(r) pseudized with 0 coefficients 


     atomic species   valence    mass     pseudopotential
        C              4.00    12.01100     C ( 1.00)
        H              1.00     1.00784     H ( 1.00)

     No symmetry found



   Cartesian axes

     site n.     atom                  positions (alat units)
         1           C   tau(   1) = (   0.0211816  -0.1342421   0.5864740  )
         2           C   tau(   2) = (  -0.0509213   0.0035963   1.3539388  )
         3           C   tau(   3) = (   0.2535850  -0.2667786   3.3087033  )
         4           C   tau(   4) = (   0.0206530   0.1952618   0.5329620  )
         5           C   tau(   5) = (   0.2371949   0.1715479   1.3435281  )
         6           C   tau(   6) = (   0.2532468   0.0628271   3.2558580  )
         7           C   tau(   7) = (   0.5981903  -0.1280892   0.6181954  )
         8           C   tau(   8) = (   0.5260575   0.0098564   1.3856013  )
         9           C   tau(   9) = (   0.8305168  -0.2605096   3.3405611  )
        10           C   tau(  10) = (   0.5976615   0.2014126   0.5647410  )
        11           C   tau(  11) = (   0.8144040   0.1776395   1.3746596  )
        12           C   tau(  12) = (   0.8302996   0.0690062   3.2869496  )
        13           C   tau(  13) = (  -0.2681059   0.3568989   0.4907015  )
        14           C   tau(  14) = (  -0.3399985   0.4948285   1.2584745  )
        15           C   tau(  15) = (  -0.0355133   0.2246122   3.2138906  )
        16           C   tau(  16) = (  -0.2684540   0.6864374   0.4374581  )
        17           C   tau(  17) = (  -0.0517588   0.6625122   1.2473441  )
        18           C   tau(  18) = (  -0.0360414   0.5540138   3.1605164  )
        19           C   tau(  19) = (   0.3089444   0.3631069   0.5224861  )
        20           C   tau(  20) = (   0.2370198   0.5008946   1.2898040  )
        21           C   tau(  21) = (   0.5414474   0.2307612   3.2451576  )
        22           C   tau(  22) = (   0.3086001   0.6926363   0.4693329  )
        23           C   tau(  23) = (   0.5252533   0.6688232   1.2797099  )
        24           C   tau(  24) = (   0.5409831   0.5601628   3.1918498  )
        25           H   tau(  25) = (   0.1341100   0.9613363   1.7630742  )
        26           H   tau(  26) = (   0.2186845   0.9195931   1.9190202  )
        27           H   tau(  27) = (   0.2505763   0.3758013   2.6063874  )
        28           H   tau(  28) = (   0.2835679   0.1975214   2.6255776  )
        29           H   tau(  29) = (   0.7645686   0.3260712   2.5452564  )
        30           H   tau(  30) = (   0.9407720   0.2775409   2.5452770  )
        31           H   tau(  31) = (   0.5231539  -0.2673144   2.6258429  )
        32           H   tau(  32) = (   0.6470136  -0.1364053   2.6553932  )
        33           H   tau(  33) = (  -0.0953221   0.3434492   1.9144912  )
        34           H   tau(  34) = (  -0.1044634   0.5237857   1.8897112  )
        35           H   tau(  35) = (   0.5470580   0.4498362   2.0903936  )
        36           H   tau(  36) = (   0.3779703   0.5129161   2.0605358  )
        37           H   tau(  37) = (   0.1268730  -0.1092314   2.1059924  )
        38           H   tau(  38) = (   0.2264908   0.0434518   2.1144106  )

     number of k points=    36  Gaussian smearing, width (Ry)=  0.0100
                       cart. coord. in units 2pi/alat
        k(    1) = (   0.0662882   0.1395545   0.0807359), wk =   0.0555556
        k(    2) = (   0.0744146   0.1163924  -0.0629513), wk =   0.0555556
        k(    3) = (   0.0635042   0.3109362   0.0980425), wk =   0.0555556
        k(    4) = (   0.0716306   0.2877741  -0.0456447), wk =   0.0555556
        k(    5) = (   0.0607202   0.4823179   0.1153491), wk =   0.0555556
        k(    6) = (   0.0688466   0.4591558  -0.0283381), wk =   0.0555556
        k(    7) = (   0.0746402  -0.3745906   0.0288161), wk =   0.0555556
        k(    8) = (   0.0827665  -0.3977527  -0.1148710), wk =   0.0555556
        k(    9) = (   0.0718562  -0.2032089   0.0461227), wk =   0.0555556
        k(   10) = (   0.0799825  -0.2263710  -0.0975645), wk =   0.0555556
        k(   11) = (   0.0690722  -0.0318272   0.0634293), wk =   0.0555556
        k(   12) = (   0.0771985  -0.0549893  -0.0802579), wk =   0.0555556
        k(   13) = (   0.2097750   0.2241197   0.0812139), wk =   0.0555556
        k(   14) = (   0.2179013   0.2009576  -0.0624733), wk =   0.0555556
        k(   15) = (   0.2069910   0.3955014   0.0985205), wk =   0.0555556
        k(   16) = (   0.2151173   0.3723393  -0.0451667), wk =   0.0555556
        k(   17) = (   0.2042070   0.5668831   0.1158271), wk =   0.0555556
        k(   18) = (   0.2123334   0.5437210  -0.0278601), wk =   0.0555556
        k(   19) = (   0.2181269  -0.2900254   0.0292941), wk =   0.0555556
        k(   20) = (   0.2262533  -0.3131875  -0.1143930), wk =   0.0555556
        k(   21) = (   0.2153429  -0.1186437   0.0466007), wk =   0.0555556
        k(   22) = (   0.2234693  -0.1418058  -0.0970865), wk =   0.0555556
        k(   23) = (   0.2125590   0.0527380   0.0639073), wk =   0.0555556
        k(   24) = (   0.2206853   0.0295759  -0.0797799), wk =   0.0555556
        k(   25) = (   0.3532617   0.3086849   0.0816919), wk =   0.0555556
        k(   26) = (   0.3613881   0.2855228  -0.0619953), wk =   0.0555556
        k(   27) = (   0.3504778   0.4800666   0.0989985), wk =   0.0555556
        k(   28) = (   0.3586041   0.4569045  -0.0446887), wk =   0.0555556
        k(   29) = (   0.3476938   0.6514483   0.1163051), wk =   0.0555556
        k(   30) = (   0.3558201   0.6282862  -0.0273821), wk =   0.0555556
        k(   31) = (   0.3616137  -0.2054602   0.0297722), wk =   0.0555556
        k(   32) = (   0.3697400  -0.2286223  -0.1139150), wk =   0.0555556
        k(   33) = (   0.3588297  -0.0340785   0.0470787), wk =   0.0555556
        k(   34) = (   0.3669561  -0.0572406  -0.0966084), wk =   0.0555556
        k(   35) = (   0.3560457   0.1373032   0.0643853), wk =   0.0555556
        k(   36) = (   0.3641721   0.1141411  -0.0793019), wk =   0.0555556

     Dense  grid:   274553 G-vectors     FFT dimensions: (  60,  60, 192)

     Smooth grid:    69559 G-vectors     FFT dimensions: (  40,  40, 120)

     Estimated max dynamical RAM per process >      14.38 MB

     Estimated total dynamical RAM >       1.28 GB

     Check: negative core charge=   -0.000002

     Initial potential from superposition of free atoms

     starting charge     109.9990, renormalised to     110.0000
     Starting wfcs are  110 randomized atomic wfcs

     total cpu time spent up to now is        1.1 secs

     Self-consistent Calculation

     iteration #  1     ecut=    40.00 Ry     beta= 0.01
     Davidson diagonalization with overlap
     ethr =  1.00E-02,  avg # of iterations =  3.0

     total cpu time spent up to now is        2.4 secs

     total energy              =    -304.15568933 Ry
     estimated scf accuracy    <       2.12208451 Ry

     iteration #  2     ecut=    40.00 Ry     beta= 0.01
     Davidson diagonalization with overlap
     ethr =  1.93E-03,  avg # of iterations =  3.6

     total cpu time spent up to now is        3.6 secs

     total energy              =    -304.62113628 Ry
     estimated scf accuracy    <       2.72041991 Ry

     iteration #  3     ecut=    40.00 Ry     beta= 0.01
     Davidson diagonalization with overlap
     ethr =  1.93E-03,  avg # of iterations =  1.0

     total cpu time spent up to now is        4.4 secs

     total energy              =    -303.16661773 Ry
     estimated scf accuracy    <       3.05442509 Ry

     iteration #  4     ecut=    40.00 Ry     beta= 0.01
     Davidson diagonalization with overlap
     ethr =  1.93E-03,  avg # of iterations =  1.1

     total cpu time spent up to now is        5.1 secs

     total energy              =    -303.14401975 Ry
     estimated scf accuracy    <       0.47685826 Ry

     iteration #  5     ecut=    40.00 Ry     beta= 0.01
     Davidson diagonalization with overlap
     ethr =  4.34E-04,  avg # of iterations =  5.2

     total cpu time spent up to now is        6.6 secs

     total energy              =    -303.21012111 Ry
     estimated scf accuracy    <       0.20427173 Ry

     iteration #  6     ecut=    40.00 Ry     beta= 0.01
     Davidson diagonalization with overlap
     ethr =  1.86E-04,  avg # of iterations =  5.1

     total cpu time spent up to now is        8.0 secs

     total energy              =    -303.24679802 Ry
     estimated scf accuracy    <       0.17548644 Ry

     iteration #  7     ecut=    40.00 Ry     beta= 0.01
     Davidson diagonalization with overlap
     ethr =  1.60E-04,  avg # of iterations =  1.0

     total cpu time spent up to now is        8.8 secs

     total energy              =    -303.13849958 Ry
     estimated scf accuracy    <       0.19724819 Ry

     iteration #  8     ecut=    40.00 Ry     beta= 0.01
     Davidson diagonalization with overlap
     ethr =  1.60E-04,  avg # of iterations =  8.2

     total cpu time spent up to now is       10.9 secs

     total energy              =    -303.17684192 Ry
     estimated scf accuracy    <       0.01173097 Ry

     iteration #  9     ecut=    40.00 Ry     beta= 0.01
     Davidson diagonalization with overlap
     c_bands:  2 eigenvalues not converged
     ethr =  1.07E-05,  avg # of iterations = 11.2

     total cpu time spent up to now is       13.3 secs

     total energy              =    -303.18117551 Ry
     estimated scf accuracy    <       0.01280130 Ry

     iteration # 10     ecut=    40.00 Ry     beta= 0.01
     Davidson diagonalization with overlap
     ethr =  1.07E-05,  avg # of iterations =  2.4

     total cpu time spent up to now is       14.3 secs

     total energy              =    -303.18078569 Ry
     estimated scf accuracy    <       0.01242984 Ry

     iteration # 11     ecut=    40.00 Ry     beta= 0.01
     Davidson diagonalization with overlap
     ethr =  1.07E-05,  avg # of iterations =  1.0

     negative rho (up, down):  1.307E-07 0.000E+00

     total cpu time spent up to now is       15.1 secs

     total energy              =    -303.19806310 Ry
     estimated scf accuracy    <       0.01064214 Ry

     iteration # 12     ecut=    40.00 Ry     beta= 0.01
     Davidson diagonalization with overlap
     c_bands:  1 eigenvalues not converged
     ethr =  9.67E-06,  avg # of iterations = 11.1

     total cpu time spent up to now is       17.7 secs

     total energy              =    -303.18190612 Ry
     estimated scf accuracy    <       0.07597943 Ry

     iteration # 13     ecut=    40.00 Ry     beta= 0.01
     Davidson diagonalization with overlap
     ethr =  9.67E-06,  avg # of iterations =  4.5

     total cpu time spent up to now is       19.0 secs

     total energy              =    -303.19206479 Ry
     estimated scf accuracy    <       0.02398174 Ry

     iteration # 14     ecut=    40.00 Ry     beta= 0.01
     Davidson diagonalization with overlap
     ethr =  9.67E-06,  avg # of iterations =  1.5

     total cpu time spent up to now is       19.9 secs

     total energy              =    -303.19954689 Ry
     estimated scf accuracy    <       0.03499039 Ry

     iteration # 15     ecut=    40.00 Ry     beta= 0.01
     Davidson diagonalization with overlap
     ethr =  9.67E-06,  avg # of iterations =  7.5

     total cpu time spent up to now is       21.4 secs

     total energy              =    -303.18575016 Ry
     estimated scf accuracy    <       0.04971138 Ry

     iteration # 16     ecut=    40.00 Ry     beta= 0.01
     Davidson diagonalization with overlap
     ethr =  9.67E-06,  avg # of iterations =  1.9

     total cpu time spent up to now is       22.4 secs

     total energy              =    -303.18289498 Ry
     estimated scf accuracy    <       0.02534507 Ry

     iteration # 17     ecut=    40.00 Ry     beta= 0.01
     Davidson diagonalization with overlap
     ethr =  9.67E-06,  avg # of iterations =  1.0

     total cpu time spent up to now is       23.1 secs

     total energy              =    -303.18046668 Ry
     estimated scf accuracy    <       0.01803067 Ry

     iteration # 18     ecut=    40.00 Ry     beta= 0.01
     Davidson diagonalization with overlap
     ethr =  9.67E-06,  avg # of iterations =  1.0

     total cpu time spent up to now is       23.9 secs

     total energy              =    -303.17579070 Ry
     estimated scf accuracy    <       0.01281383 Ry

     iteration # 19     ecut=    40.00 Ry     beta= 0.01
     Davidson diagonalization with overlap
     ethr =  9.67E-06,  avg # of iterations =  2.9

     total cpu time spent up to now is       25.0 secs

     total energy              =    -303.17528830 Ry
     estimated scf accuracy    <       0.00336995 Ry

     iteration # 20     ecut=    40.00 Ry     beta= 0.01
     Davidson diagonalization with overlap
     c_bands:  1 eigenvalues not converged
     c_bands:  1 eigenvalues not converged
     c_bands:  2 eigenvalues not converged
     ethr =  3.06E-06,  avg # of iterations = 11.2

     total cpu time spent up to now is       27.3 secs

     total energy              =    -303.17625914 Ry
     estimated scf accuracy    <       0.00065004 Ry

     iteration # 21     ecut=    40.00 Ry     beta= 0.01
     Davidson diagonalization with overlap
     c_bands:  1 eigenvalues not converged
     ethr =  5.91E-07,  avg # of iterations =  6.7

     total cpu time spent up to now is       29.1 secs

     total energy              =    -303.17633659 Ry
     estimated scf accuracy    <       0.00065894 Ry

     iteration # 22     ecut=    40.00 Ry     beta= 0.01
     Davidson diagonalization with overlap
     c_bands:  1 eigenvalues not converged
     ethr =  5.91E-07,  avg # of iterations =  2.2

     total cpu time spent up to now is       30.0 secs

     total energy              =    -303.17731757 Ry
     estimated scf accuracy    <       0.00064864 Ry

     iteration # 23     ecut=    40.00 Ry     beta= 0.01
     Davidson diagonalization with overlap
     ethr =  5.90E-07,  avg # of iterations =  5.8

     total cpu time spent up to now is       31.8 secs

     total energy              =    -303.17605106 Ry
     estimated scf accuracy    <       0.00353877 Ry

     iteration # 24     ecut=    40.00 Ry     beta= 0.01
     Davidson diagonalization with overlap
     ethr =  5.90E-07,  avg # of iterations =  4.0

     total cpu time spent up to now is       33.2 secs

     total energy              =    -303.17602129 Ry
     estimated scf accuracy    <       0.00052668 Ry

     iteration # 25     ecut=    40.00 Ry     beta= 0.01
     Davidson diagonalization with overlap
     ethr =  4.79E-07,  avg # of iterations =  3.2

     total cpu time spent up to now is       34.5 secs

     total energy              =    -303.17621401 Ry
     estimated scf accuracy    <       0.00025782 Ry

     iteration # 26     ecut=    40.00 Ry     beta= 0.01
     Davidson diagonalization with overlap
     ethr =  2.34E-07,  avg # of iterations =  2.1

     total cpu time spent up to now is       35.4 secs

     total energy              =    -303.17613986 Ry
     estimated scf accuracy    <       0.00030687 Ry

     iteration # 27     ecut=    40.00 Ry     beta= 0.01
     Davidson diagonalization with overlap
     ethr =  2.34E-07,  avg # of iterations =  5.1

     total cpu time spent up to now is       37.0 secs

     total energy              =    -303.17613429 Ry
     estimated scf accuracy    <       0.00014620 Ry

     iteration # 28     ecut=    40.00 Ry     beta= 0.01
     Davidson diagonalization with overlap
     ethr =  1.33E-07,  avg # of iterations =  2.5

     total cpu time spent up to now is       37.9 secs

     total energy              =    -303.17613943 Ry
     estimated scf accuracy    <       0.00003522 Ry

     iteration # 29     ecut=    40.00 Ry     beta= 0.01
     Davidson diagonalization with overlap
     ethr =  3.20E-08,  avg # of iterations =  2.8

     total cpu time spent up to now is       39.0 secs

     total energy              =    -303.17614426 Ry
     estimated scf accuracy    <       0.00002841 Ry

     iteration # 30     ecut=    40.00 Ry     beta= 0.01
     Davidson diagonalization with overlap
     ethr =  2.58E-08,  avg # of iterations =  1.0

     total cpu time spent up to now is       39.7 secs

     total energy              =    -303.17614531 Ry
     estimated scf accuracy    <       0.00002823 Ry

     iteration # 31     ecut=    40.00 Ry     beta= 0.01
     Davidson diagonalization with overlap
     ethr =  2.57E-08,  avg # of iterations =  1.0

     total cpu time spent up to now is       40.5 secs

     total energy              =    -303.17614634 Ry
     estimated scf accuracy    <       0.00002926 Ry

     iteration # 32     ecut=    40.00 Ry     beta= 0.01
     Davidson diagonalization with overlap
     ethr =  2.57E-08,  avg # of iterations =  1.0

     total cpu time spent up to now is       41.2 secs

     total energy              =    -303.17614570 Ry
     estimated scf accuracy    <       0.00003007 Ry

     iteration # 33     ecut=    40.00 Ry     beta= 0.01
     Davidson diagonalization with overlap
     ethr =  2.57E-08,  avg # of iterations =  1.0

     total cpu time spent up to now is       42.0 secs

     total energy              =    -303.17614706 Ry
     estimated scf accuracy    <       0.00003059 Ry

     iteration # 34     ecut=    40.00 Ry     beta= 0.01
     Davidson diagonalization with overlap
     ethr =  2.57E-08,  avg # of iterations =  1.0

     total cpu time spent up to now is       42.8 secs

     total energy              =    -303.17614803 Ry
     estimated scf accuracy    <       0.00002972 Ry

     iteration # 35     ecut=    40.00 Ry     beta= 0.01
     Davidson diagonalization with overlap
     ethr =  2.57E-08,  avg # of iterations =  1.0

     total cpu time spent up to now is       43.5 secs

     total energy              =    -303.17614531 Ry
     estimated scf accuracy    <       0.00003263 Ry

     iteration # 36     ecut=    40.00 Ry     beta= 0.01
     Davidson diagonalization with overlap
     ethr =  2.57E-08,  avg # of iterations =  1.0

     total cpu time spent up to now is       44.3 secs

     total energy              =    -303.17614736 Ry
     estimated scf accuracy    <       0.00002922 Ry

     iteration # 37     ecut=    40.00 Ry     beta= 0.01
     Davidson diagonalization with overlap
     ethr =  2.57E-08,  avg # of iterations =  1.0

     total cpu time spent up to now is       45.0 secs

     total energy              =    -303.17614693 Ry
     estimated scf accuracy    <       0.00003229 Ry

     iteration # 38     ecut=    40.00 Ry     beta= 0.01
     Davidson diagonalization with overlap
     ethr =  2.57E-08,  avg # of iterations =  1.1

     total cpu time spent up to now is       45.8 secs

     total energy              =    -303.17614162 Ry
     estimated scf accuracy    <       0.00002598 Ry

     iteration # 39     ecut=    40.00 Ry     beta= 0.01
     Davidson diagonalization with overlap
     ethr =  2.36E-08,  avg # of iterations =  1.9

     total cpu time spent up to now is       46.7 secs

     total energy              =    -303.17614280 Ry
     estimated scf accuracy    <       0.00001640 Ry

     iteration # 40     ecut=    40.00 Ry     beta= 0.01
     Davidson diagonalization with overlap
     ethr =  1.49E-08,  avg # of iterations =  1.0

     total cpu time spent up to now is       47.4 secs

     total energy              =    -303.17614194 Ry
     estimated scf accuracy    <       0.00001626 Ry

     iteration # 41     ecut=    40.00 Ry     beta= 0.01
     Davidson diagonalization with overlap
     ethr =  1.48E-08,  avg # of iterations =  1.0

     total cpu time spent up to now is       48.2 secs

     total energy              =    -303.17614127 Ry
     estimated scf accuracy    <       0.00001244 Ry

     iteration # 42     ecut=    40.00 Ry     beta= 0.01
     Davidson diagonalization with overlap
     ethr =  1.13E-08,  avg # of iterations =  1.0

     total cpu time spent up to now is       49.0 secs

     total energy              =    -303.17614221 Ry
     estimated scf accuracy    <       0.00000928 Ry

     iteration # 43     ecut=    40.00 Ry     beta= 0.01
     Davidson diagonalization with overlap
     ethr =  8.44E-09,  avg # of iterations =  2.0

     total cpu time spent up to now is       49.9 secs

     total energy              =    -303.17614373 Ry
     estimated scf accuracy    <       0.00001406 Ry

     iteration # 44     ecut=    40.00 Ry     beta= 0.01
     Davidson diagonalization with overlap
     ethr =  8.44E-09,  avg # of iterations =  1.0

     total cpu time spent up to now is       50.7 secs

     total energy              =    -303.17614139 Ry
     estimated scf accuracy    <       0.00001507 Ry

     iteration # 45     ecut=    40.00 Ry     beta= 0.01
     Davidson diagonalization with overlap
     ethr =  8.44E-09,  avg # of iterations =  1.0

     total cpu time spent up to now is       51.5 secs

     total energy              =    -303.17614174 Ry
     estimated scf accuracy    <       0.00001095 Ry

     iteration # 46     ecut=    40.00 Ry     beta= 0.01
     Davidson diagonalization with overlap
     ethr =  8.44E-09,  avg # of iterations =  1.0

     total cpu time spent up to now is       52.3 secs

     total energy              =    -303.17614151 Ry
     estimated scf accuracy    <       0.00001079 Ry

     iteration # 47     ecut=    40.00 Ry     beta= 0.01
     Davidson diagonalization with overlap
     ethr =  8.44E-09,  avg # of iterations =  1.0

     total cpu time spent up to now is       53.1 secs

     total energy              =    -303.17614090 Ry
     estimated scf accuracy    <       0.00001043 Ry

     iteration # 48     ecut=    40.00 Ry     beta= 0.01
     Davidson diagonalization with overlap
     ethr =  8.44E-09,  avg # of iterations =  1.0

     total cpu time spent up to now is       53.9 secs

     total energy              =    -303.17614128 Ry
     estimated scf accuracy    <       0.00000927 Ry

     iteration # 49     ecut=    40.00 Ry     beta= 0.01
     Davidson diagonalization with overlap
     ethr =  8.42E-09,  avg # of iterations =  1.0

     total cpu time spent up to now is       54.6 secs

     total energy              =    -303.17614198 Ry
     estimated scf accuracy    <       0.00000983 Ry

     iteration # 50     ecut=    40.00 Ry     beta= 0.01
     Davidson diagonalization with overlap
     ethr =  8.42E-09,  avg # of iterations =  1.0

     total cpu time spent up to now is       55.4 secs

     total energy              =    -303.17614092 Ry
     estimated scf accuracy    <       0.00001118 Ry

     iteration # 51     ecut=    40.00 Ry     beta= 0.01
     Davidson diagonalization with overlap
     ethr =  8.42E-09,  avg # of iterations =  1.0

     total cpu time spent up to now is       56.2 secs

     total energy              =    -303.17614027 Ry
     estimated scf accuracy    <       0.00000930 Ry

     iteration # 52     ecut=    40.00 Ry     beta= 0.01
     Davidson diagonalization with overlap
     ethr =  8.42E-09,  avg # of iterations =  1.0

     total cpu time spent up to now is       56.9 secs

     total energy              =    -303.17614056 Ry
     estimated scf accuracy    <       0.00000904 Ry

     iteration # 53     ecut=    40.00 Ry     beta= 0.01
     Davidson diagonalization with overlap
     ethr =  8.22E-09,  avg # of iterations =  1.0

     total cpu time spent up to now is       57.7 secs

     total energy              =    -303.17614060 Ry
     estimated scf accuracy    <       0.00000884 Ry

     iteration # 54     ecut=    40.00 Ry     beta= 0.01
     Davidson diagonalization with overlap
     ethr =  8.04E-09,  avg # of iterations =  1.0

     total cpu time spent up to now is       58.4 secs

     total energy              =    -303.17614032 Ry
     estimated scf accuracy    <       0.00000791 Ry

     iteration # 55     ecut=    40.00 Ry     beta= 0.01
     Davidson diagonalization with overlap
     ethr =  7.19E-09,  avg # of iterations =  1.0

     total cpu time spent up to now is       59.2 secs

     total energy              =    -303.17614033 Ry
     estimated scf accuracy    <       0.00000753 Ry

     iteration # 56     ecut=    40.00 Ry     beta= 0.01
     Davidson diagonalization with overlap
     ethr =  6.85E-09,  avg # of iterations =  1.0

     total cpu time spent up to now is       60.0 secs

     total energy              =    -303.17614028 Ry
     estimated scf accuracy    <       0.00000738 Ry

     iteration # 57     ecut=    40.00 Ry     beta= 0.01
     Davidson diagonalization with overlap
     ethr =  6.71E-09,  avg # of iterations =  1.0

     total cpu time spent up to now is       60.8 secs

     total energy              =    -303.17614130 Ry
     estimated scf accuracy    <       0.00000735 Ry

     iteration # 58     ecut=    40.00 Ry     beta= 0.01
     Davidson diagonalization with overlap
     ethr =  6.68E-09,  avg # of iterations =  1.0

     total cpu time spent up to now is       61.6 secs

     total energy              =    -303.17614143 Ry
     estimated scf accuracy    <       0.00000884 Ry

     iteration # 59     ecut=    40.00 Ry     beta= 0.01
     Davidson diagonalization with overlap
     ethr =  6.68E-09,  avg # of iterations =  1.0

     total cpu time spent up to now is       62.4 secs

     total energy              =    -303.17614086 Ry
     estimated scf accuracy    <       0.00000846 Ry

     iteration # 60     ecut=    40.00 Ry     beta= 0.01
     Davidson diagonalization with overlap
     ethr =  6.68E-09,  avg # of iterations =  1.0

     total cpu time spent up to now is       63.1 secs

     total energy              =    -303.17614049 Ry
     estimated scf accuracy    <       0.00000754 Ry

     iteration # 61     ecut=    40.00 Ry     beta= 0.01
     Davidson diagonalization with overlap
     ethr =  6.68E-09,  avg # of iterations =  1.0

     total cpu time spent up to now is       63.9 secs

     total energy              =    -303.17614167 Ry
     estimated scf accuracy    <       0.00000872 Ry

     iteration # 62     ecut=    40.00 Ry     beta= 0.01
     Davidson diagonalization with overlap
     ethr =  6.68E-09,  avg # of iterations =  1.0

     total cpu time spent up to now is       64.7 secs

     total energy              =    -303.17614172 Ry
     estimated scf accuracy    <       0.00001036 Ry

     iteration # 63     ecut=    40.00 Ry     beta= 0.01
     Davidson diagonalization with overlap
     ethr =  6.68E-09,  avg # of iterations =  1.0

     total cpu time spent up to now is       65.4 secs

     total energy              =    -303.17614094 Ry
     estimated scf accuracy    <       0.00000994 Ry

     iteration # 64     ecut=    40.00 Ry     beta= 0.01
     Davidson diagonalization with overlap
     ethr =  6.68E-09,  avg # of iterations =  1.0

     total cpu time spent up to now is       66.2 secs

     total energy              =    -303.17614046 Ry
     estimated scf accuracy    <       0.00000895 Ry

     iteration # 65     ecut=    40.00 Ry     beta= 0.01
     Davidson diagonalization with overlap
     ethr =  6.68E-09,  avg # of iterations =  1.0

     total cpu time spent up to now is       67.0 secs

     total energy              =    -303.17614068 Ry
     estimated scf accuracy    <       0.00000698 Ry

     iteration # 66     ecut=    40.00 Ry     beta= 0.01
     Davidson diagonalization with overlap
     ethr =  6.35E-09,  avg # of iterations =  1.0

     total cpu time spent up to now is       67.7 secs

     total energy              =    -303.17614103 Ry
     estimated scf accuracy    <       0.00000687 Ry

     iteration # 67     ecut=    40.00 Ry     beta= 0.01
     Davidson diagonalization with overlap
     ethr =  6.25E-09,  avg # of iterations =  1.4

     total cpu time spent up to now is       68.5 secs

     total energy              =    -303.17614074 Ry
     estimated scf accuracy    <       0.00000686 Ry

     iteration # 68     ecut=    40.00 Ry     beta= 0.01
     Davidson diagonalization with overlap
     ethr =  6.23E-09,  avg # of iterations =  1.1

     total cpu time spent up to now is       69.3 secs

     total energy              =    -303.17614065 Ry
     estimated scf accuracy    <       0.00000491 Ry

     iteration # 69     ecut=    40.00 Ry     beta= 0.01
     Davidson diagonalization with overlap
     ethr =  4.46E-09,  avg # of iterations =  2.0

     total cpu time spent up to now is       70.2 secs

     total energy              =    -303.17614114 Ry
     estimated scf accuracy    <       0.00000447 Ry

     iteration # 70     ecut=    40.00 Ry     beta= 0.01
     Davidson diagonalization with overlap
     ethr =  4.06E-09,  avg # of iterations =  1.0

     total cpu time spent up to now is       71.0 secs

     total energy              =    -303.17614134 Ry
     estimated scf accuracy    <       0.00000373 Ry

     iteration # 71     ecut=    40.00 Ry     beta= 0.01
     Davidson diagonalization with overlap
     ethr =  3.39E-09,  avg # of iterations =  1.0

     total cpu time spent up to now is       71.7 secs

     total energy              =    -303.17614120 Ry
     estimated scf accuracy    <       0.00000358 Ry

     iteration # 72     ecut=    40.00 Ry     beta= 0.01
     Davidson diagonalization with overlap
     ethr =  3.25E-09,  avg # of iterations =  1.0

     total cpu time spent up to now is       72.5 secs

     total energy              =    -303.17614041 Ry
     estimated scf accuracy    <       0.00000361 Ry

     iteration # 73     ecut=    40.00 Ry     beta= 0.01
     Davidson diagonalization with overlap
     ethr =  3.25E-09,  avg # of iterations =  1.6

     total cpu time spent up to now is       73.3 secs

     total energy              =    -303.17614035 Ry
     estimated scf accuracy    <       0.00000270 Ry

     iteration # 74     ecut=    40.00 Ry     beta= 0.01
     Davidson diagonalization with overlap
     ethr =  2.45E-09,  avg # of iterations =  1.0

     total cpu time spent up to now is       74.1 secs

     total energy              =    -303.17614039 Ry
     estimated scf accuracy    <       0.00000251 Ry

     iteration # 75     ecut=    40.00 Ry     beta= 0.01
     Davidson diagonalization with overlap
     ethr =  2.28E-09,  avg # of iterations =  1.0

     total cpu time spent up to now is       74.8 secs

     total energy              =    -303.17614118 Ry
     estimated scf accuracy    <       0.00000232 Ry

     iteration # 76     ecut=    40.00 Ry     beta= 0.01
     Davidson diagonalization with overlap
     ethr =  2.11E-09,  avg # of iterations =  2.0

     total cpu time spent up to now is       75.7 secs

     total energy              =    -303.17614119 Ry
     estimated scf accuracy    <       0.00000260 Ry

     iteration # 77     ecut=    40.00 Ry     beta= 0.01
     Davidson diagonalization with overlap
     ethr =  2.11E-09,  avg # of iterations =  1.0

     total cpu time spent up to now is       76.5 secs

     total energy              =    -303.17614129 Ry
     estimated scf accuracy    <       0.00000271 Ry

     iteration # 78     ecut=    40.00 Ry     beta= 0.01
     Davidson diagonalization with overlap
     ethr =  2.11E-09,  avg # of iterations =  1.0

     total cpu time spent up to now is       77.2 secs

     total energy              =    -303.17614047 Ry
     estimated scf accuracy    <       0.00000177 Ry

     iteration # 79     ecut=    40.00 Ry     beta= 0.01
     Davidson diagonalization with overlap
     ethr =  1.61E-09,  avg # of iterations =  4.0

     total cpu time spent up to now is       78.3 secs

     End of self-consistent calculation

          k = 0.0663 0.1396 0.0807 (  8695 PWs)   bands (ev):

   -15.2275 -15.1022 -14.9794 -10.8808 -10.8783 -10.7893 -10.7836 -10.7005
   -10.6983  -9.7967  -9.7410  -9.6948  -8.9677  -8.9183  -8.8915  -7.9866
    -7.9841  -7.9153  -7.9098  -7.8468  -7.8446  -4.8592  -4.1332  -3.7165
    -2.7648  -2.7332  -2.7167  -2.7073  -2.3016  -2.2698  -2.2689  -2.2421
    -2.2403  -2.2215  -2.2210  -0.8386  -0.6734  -0.4813  -0.3096   0.0497
     0.7490   0.7637   0.7708   0.8582   0.8784   0.9572   0.9697   0.9802
     1.3299   1.3627   1.6494   1.7972   1.8096   1.9209   2.2584   5.5850
     5.9346   6.1518   6.2024   6.2207   6.5458   6.5648   6.9408   6.9522
     8.1114   8.6389

          k = 0.0744 0.1164-0.0630 (  8685 PWs)   bands (ev):

   -15.2275 -15.1021 -14.9794 -10.8808 -10.8783 -10.7892 -10.7836 -10.7005
   -10.6983  -9.7967  -9.7410  -9.6948  -8.9677  -8.9183  -8.8915  -7.9866
    -7.9841  -7.9153  -7.9098  -7.8468  -7.8446  -4.8368  -4.2620  -3.4744
    -2.9563  -2.7646  -2.7328  -2.7078  -2.2698  -2.2690  -2.2423  -2.2405
    -2.2216  -2.2213  -2.1947  -0.8379  -0.6734  -0.4801  -0.3107   0.0469
     0.7490   0.7636   0.7708   0.8573   0.8786   0.9572   0.9697   0.9802
     1.3359   1.3615   1.6483   1.7941   1.8093   1.9227   2.2575   5.5818
     5.9401   6.1504   6.1961   6.2150   6.5587   6.5793   6.9282   6.9472
     8.0612   8.4930

          k = 0.0635 0.3109 0.0980 (  8684 PWs)   bands (ev):

   -14.8126 -14.6903 -14.5709 -12.3669 -12.2621 -12.1620 -11.4192 -11.3213
   -11.2291 -10.0629  -9.9775  -9.8994  -8.0780  -8.0087  -7.9467  -6.8093
    -6.7443  -6.6855  -5.9116  -5.8498  -5.7954  -4.4033  -4.0223  -3.9796
    -3.9438  -3.5189  -3.4200  -3.0709  -3.0340  -3.0059  -2.1436  -2.0395
    -1.8624  -1.8354  -1.8156  -1.7534  -1.0130  -0.9925  -0.6729  -0.6275
    -0.6020  -0.5843  -0.4738  -0.0773   0.1884   0.2072   0.2188   0.2221
     0.4149   0.6267   1.0205   1.5311   1.7326   2.1389   2.5578   5.7570
     6.0013   6.2828   7.0403   7.3383   7.7143   8.2147   8.4554   8.5552
     8.9273   8.9558

          k = 0.0716 0.2878-0.0456 (  8677 PWs)   bands (ev):

   -14.8126 -14.6902 -14.5709 -12.3670 -12.2621 -12.1620 -11.4192 -11.3213
   -11.2291 -10.0629  -9.9775  -9.8994  -8.0780  -8.0087  -7.9468  -6.8093
    -6.7443  -6.6855  -5.9116  -5.8498  -5.7954  -4.3650  -4.0221  -3.9800
    -3.9436  -3.8175  -3.0710  -3.0342  -3.0061  -2.8312  -2.7075  -1.8754
    -1.8614  -1.8342  -1.8153  -1.6705  -1.0878  -0.9983  -0.6275  -0.6023
    -0.5845  -0.5348  -0.4734  -0.0972   0.1111   0.1884   0.2075   0.2210
     0.4417   0.6772   0.9939   1.5400   1.7316   2.1413   2.5564   5.7570
     5.9998   6.2848   7.0331   7.3522   7.7075   8.2055   8.3662   8.5919
     8.9240   9.0043

          k = 0.0607 0.4823 0.1153 (  8687 PWs)   bands (ev):

   -14.0706 -13.9536 -13.8402 -13.5791 -13.4656 -13.3560 -11.6552 -11.5555
   -11.4612 -10.2751 -10.1861 -10.1037  -6.8839  -6.8364  -6.7957  -5.6636
    -5.6221  -5.5864  -5.3028  -5.2670  -5.2352  -4.1223  -4.0905  -4.0641
    -3.7107  -3.6637  -3.6327  -3.6214  -3.0688  -2.7341  -2.6173  -2.5778
    -2.5454  -2.4859  -2.1832  -1.7817  -1.4658  -1.2867  -1.1677  -1.1428
    -1.1243  -1.0961  -0.9941  -0.7394  -0.7155  -0.6985  -0.5765  -0.4133
    -0.0019   0.1936   0.8748   1.3830   1.6835   2.1814   2.6963   6.0060
     6.2379   6.5078   7.6612   7.8867   8.1385   8.3903   9.3786  10.0963
    10.3200  10.6493

          k = 0.0688 0.4592-0.0283 (  8690 PWs)   bands (ev):

   -14.0706 -13.9536 -13.8402 -13.5791 -13.4656 -13.3561 -11.6552 -11.5554
   -11.4612 -10.2751 -10.1861 -10.1037  -6.8839  -6.8365  -6.7957  -5.6636
    -5.6221  -5.5864  -5.3028  -5.2670  -5.2352  -4.1223  -4.0905  -4.0641
    -3.7105  -3.6637  -3.6251  -3.6132  -3.0928  -2.8431  -2.6176  -2.5774
    -2.5451  -2.3156  -2.1127  -1.8115  -1.6460  -1.2687  -1.1675  -1.1428
    -1.1243  -1.0664  -0.9637  -0.7394  -0.7156  -0.6985  -0.5745  -0.4219
    -0.0238   0.2790   0.8002   1.4097   1.6790   2.1876   2.6941   6.0057
     6.2377   6.5083   7.6626   7.8836   8.1414   8.4004   9.3248  10.0372
    10.2287  10.6164

          k = 0.0746-0.3746 0.0288 (  8684 PWs)   bands (ev):

   -14.4817 -14.3617 -14.2450 -13.0111 -12.9016 -12.7965 -11.5751 -11.4759
   -11.3822 -10.2037 -10.1161 -10.0352  -7.4470  -7.3837  -7.3261  -6.1794
    -6.1208  -6.0705  -4.8151  -4.7602  -4.7218  -4.7127  -4.6757  -4.6371
    -4.0184  -3.6467  -3.6085  -3.5756  -3.4148  -2.6524  -2.4238  -2.1497
    -1.6927  -1.5763  -1.5482  -1.5436  -1.5222  -1.5209  -1.5027  -1.4872
    -1.2349  -0.9563  -0.5831  -0.3856  -0.2759  -0.2547  -0.2390  -0.1081
     0.1257   0.2722   0.9151   1.4418   1.7104   2.1738   2.6317   5.9174
     6.1296   6.4233   7.4178   7.6817   7.9965   8.5043   8.8734   9.4149
     9.7385   9.9730

          k = 0.0828-0.3978-0.1149 (  8683 PWs)   bands (ev):

   -14.4817 -14.3617 -14.2450 -13.0110 -12.9016 -12.7965 -11.5751 -11.4759
   -11.3822 -10.2037 -10.1161 -10.0352  -7.4470  -7.3837  -7.3261  -6.1794
    -6.1208  -6.0705  -4.8152  -4.7602  -4.7218  -4.7128  -4.6757  -4.6370
    -4.0428  -3.6469  -3.6080  -3.5758  -3.2334  -2.9764  -2.4032  -1.8668
    -1.6837  -1.5854  -1.5761  -1.5480  -1.5431  -1.5218  -1.5183  -1.5026
    -1.2739  -1.0261  -0.5163  -0.3896  -0.2759  -0.2547  -0.2390  -0.1029
     0.0960   0.3171   0.8718   1.4582   1.7093   2.1733   2.6331   5.9165
     6.1324   6.4215   7.4160   7.6873   7.9921   8.4812   9.0143   9.4330
     9.7168   9.9204

          k = 0.0719-0.2032 0.0461 (  8707 PWs)   bands (ev):

   -15.0612 -14.9370 -14.8156 -11.6539 -11.5543 -11.4599 -11.1826 -11.0863
   -10.9960  -9.8843  -9.8103  -9.7454  -8.6469  -8.5866  -8.5282  -7.4155
    -7.3450  -7.2821  -6.9743  -6.9060  -6.8448  -4.6411  -4.1076  -3.3310
    -3.2928  -3.2635  -3.1115  -2.9574  -2.5964  -2.5651  -2.5405  -2.1059
    -2.0784  -2.0581  -2.0116  -1.2691  -1.0105  -0.5143  -0.2607  -0.1099
     0.1708   0.1817   0.1896   0.2000   0.6104   0.6180   0.6317   0.6437
     0.7234   1.1527   1.2840   1.6783   1.7660   2.0530   2.3571   5.6836
     5.9271   6.1200   6.5885   6.9513   7.0966   7.3457   7.4808   7.8794
     8.2146   8.8263

          k = 0.0800-0.2264-0.0976 (  8687 PWs)   bands (ev):

   -15.0611 -14.9370 -14.8156 -11.6539 -11.5543 -11.4599 -11.1826 -11.0863
   -10.9960  -9.8843  -9.8103  -9.7454  -8.6469  -8.5866  -8.5282  -7.4155
    -7.3450  -7.2821  -6.9743  -6.9060  -6.8448  -4.6815  -3.8208  -3.6789
    -3.3309  -3.2926  -3.2633  -2.5964  -2.5652  -2.5406  -2.3990  -2.2510
    -2.1059  -2.0783  -2.0580  -1.2732  -1.0172  -0.4868  -0.2557  -0.1137
     0.1346   0.1709   0.1894   0.1997   0.6050   0.6180   0.6317   0.6437
     0.7678   1.1617   1.2683   1.6760   1.7687   2.0484   2.3590   5.6835
     5.9204   6.1277   6.5894   6.9521   7.1059   7.3424   7.4628   7.8891
     8.4158   8.7575

          k = 0.0691-0.0318 0.0634 (  8709 PWs)   bands (ev):

   -15.3107 -15.1847 -15.0613 -10.5043 -10.4152 -10.3331 -10.1037 -10.1012
   -10.0269 -10.0251  -9.9583  -9.9570  -8.8589  -8.8558  -8.7967  -8.7906
    -8.7344  -8.7311  -8.4765  -8.4024  -8.3354  -4.9344  -4.3486  -3.5979
    -3.0174  -2.3533  -2.3525  -2.3256  -2.3237  -2.3051  -2.3043  -2.2905
    -2.1947  -2.1686  -2.1492  -0.8359  -0.4204  -0.3056  -0.1528   0.0019
     1.0643   1.0781   1.0892   1.1355   1.1488   1.1536   1.1561   1.4355
     1.4666   1.5558   1.7300   1.7591   1.9760   2.0578   2.0879   5.6759
     5.7135   5.8559   6.0230   6.0440   6.2516   6.2693   6.3008   6.5875
     8.0009   8.4242

          k = 0.0772-0.0550-0.0803 (  8699 PWs)   bands (ev):

   -15.3107 -15.1847 -15.0613 -10.5043 -10.4152 -10.3330 -10.1037 -10.1011
   -10.0269 -10.0251  -9.9582  -9.9570  -8.8589  -8.8558  -8.7967  -8.7906
    -8.7344  -8.7311  -8.4765  -8.4024  -8.3354  -4.9521  -4.2497  -3.7827
    -2.8351  -2.3717  -2.3533  -2.3524  -2.3253  -2.3236  -2.3047  -2.3042
    -2.1947  -2.1686  -2.1492  -0.8381  -0.4207  -0.3057  -0.1495   0.0034
     1.0643   1.0781   1.0891   1.1355   1.1454   1.1488   1.1560   1.4364
     1.4672   1.5654   1.7301   1.7591   1.9732   2.0566   2.0867   5.6794
     5.7168   5.8645   6.0172   6.0430   6.2370   6.2671   6.2992   6.6017
     8.0497   8.4992

          k = 0.2098 0.2241 0.0812 (  8698 PWs)   bands (ev):

   -14.8126 -14.6903 -14.5709 -12.3667 -12.2619 -12.1619 -11.4196 -11.3216
   -11.2292 -10.0631  -9.9777  -9.8996  -8.0774  -8.0083  -7.9467  -6.8081
    -6.7428  -6.6849  -5.9126  -5.8510  -5.7960  -4.3987  -4.0225  -3.9798
    -3.9440  -3.6342  -3.2832  -3.0719  -3.0355  -3.0066  -2.2742  -1.9472
    -1.8612  -1.8341  -1.8151  -1.7863  -1.0740  -0.9315  -0.6295  -0.6039
    -0.5906  -0.5838  -0.4741  -0.0450   0.1589   0.1899   0.2101   0.2213
     0.4114   0.6512   1.0250   1.5315   1.7317   2.1326   2.5558   5.7683
     6.0111   6.2739   7.0404   7.3509   7.7039   8.2200   8.5072   8.6006
     8.8187   8.9675

          k = 0.2179 0.2010-0.0625 (  8678 PWs)   bands (ev):

   -14.8126 -14.6903 -14.5709 -12.3667 -12.2619 -12.1619 -11.4195 -11.3216
   -11.2291 -10.0631  -9.9777  -9.8995  -8.0774  -8.0083  -7.9467  -6.8081
    -6.7428  -6.6848  -5.9126  -5.8511  -5.7960  -4.3751  -4.0223  -3.9802
    -3.9438  -3.7857  -3.0719  -3.0362  -3.0078  -2.9950  -2.5462  -1.8963
    -1.8605  -1.8334  -1.8148  -1.7242  -1.0648  -0.9240  -0.6291  -0.6055
    -0.5975  -0.5849  -0.5017  -0.0356   0.1629   0.1899   0.2101   0.2214
     0.4506   0.6456   0.9869   1.5437   1.7279   2.1379   2.5537   5.7689
     6.0075   6.2777   7.0395   7.3517   7.7042   8.2070   8.5007   8.5832
     8.7377   8.9435

          k = 0.2070 0.3955 0.0985 (  8672 PWs)   bands (ev):

   -14.2352 -14.1171 -14.0023 -12.7701 -12.7671 -12.6642 -12.6574 -12.5590
   -12.5562  -8.9621  -8.9106  -8.8688  -8.1913  -8.1542  -8.1412  -5.6251
    -5.5777  -5.5349  -4.7410  -4.7387  -4.6921  -4.6881  -4.6485  -4.6473
    -3.7820  -2.9068  -2.7917  -2.4740  -2.4689  -2.4446  -2.4371  -2.4171
    -2.4121  -2.3862  -1.9912  -1.9205  -1.8957  -1.8817  -1.5765  -1.4616
    -1.3861  -1.1231  -1.0849  -0.9282  -0.9080  -0.8984  -0.7322  -0.2211
    -0.0518   0.1825   0.2475   0.4037   2.8597   3.1146   3.4457   5.1405
     5.1964   5.2810   8.5965   9.1669   9.2353   9.2714   9.4736   9.4870
     9.7448   9.7644

          k = 0.2151 0.3723-0.0452 (  8685 PWs)   bands (ev):

   -14.2352 -14.1170 -14.0023 -12.7701 -12.7672 -12.6642 -12.6574 -12.5591
   -12.5562  -8.9621  -8.9106  -8.8688  -8.1913  -8.1542  -8.1412  -5.6251
    -5.5777  -5.5348  -4.7410  -4.7387  -4.6921  -4.6881  -4.6485  -4.6472
    -3.7517  -3.1639  -2.4755  -2.4690  -2.4493  -2.4376  -2.4214  -2.4125
    -2.3995  -2.3181  -2.0796  -1.9205  -1.8958  -1.8820  -1.8278  -1.6163
    -1.2852  -1.0713  -0.9285  -0.9145  -0.9075  -0.8984  -0.5720  -0.4086
    -0.1916   0.1918   0.3241   0.4369   2.8587   3.1170   3.4441   5.1434
     5.1955   5.2793   8.6111   9.1518   9.2322   9.2598   9.4711   9.4954
     9.7440   9.7635

          k = 0.2042 0.5669 0.1158 (  8659 PWs)   bands (ev):

   -13.8240 -13.7087 -13.5973 -13.3363 -13.2246 -13.1169 -12.8487 -12.7404
   -12.6366  -8.8338  -8.7673  -8.7098  -7.8808  -7.8404  -7.8009  -6.2248
    -6.1902  -6.1600  -4.2686  -4.2331  -4.2041  -3.7147  -3.6736  -3.6409
    -3.3788  -2.8859  -2.8334  -2.8037  -2.7866  -2.7588  -2.7298  -2.7099
    -2.5357  -2.3503  -2.0815  -2.0435  -2.0136  -1.9938  -1.9101  -1.6290
    -1.5202  -1.5001  -1.4842  -1.4481  -1.2043  -0.9818  -0.7573  -0.5354
    -0.3265  -0.0473   0.1715   0.3799   3.1876   3.4839   3.8066   4.6944
     4.9131   5.1316   8.5482   9.4552   9.5105   9.7164   9.9345  10.2209
    10.3460  10.3949

          k = 0.2123 0.5437-0.0279 (  8667 PWs)   bands (ev):

   -13.8240 -13.7087 -13.5972 -13.3363 -13.2245 -13.1169 -12.8487 -12.7404
   -12.6367  -8.8338  -8.7673  -8.7098  -7.8808  -7.8404  -7.8009  -6.2248
    -6.1902  -6.1600  -4.2686  -4.2332  -4.2042  -3.7147  -3.6736  -3.6409
    -3.3789  -2.8758  -2.8300  -2.8076  -2.7846  -2.7586  -2.7299  -2.7098
    -2.5368  -2.3595  -2.1027  -2.0432  -2.0138  -1.9938  -1.9604  -1.5824
    -1.5197  -1.4998  -1.4837  -1.3920  -1.1882  -0.9231  -0.8375  -0.5527
    -0.3005  -0.1882   0.2789   0.3777   3.1879   3.4834   3.8068   4.6943
     4.9132   5.1317   8.5596   9.4461   9.5151   9.7154   9.9349  10.1129
    10.3526  10.4612

          k = 0.2181-0.2900 0.0293 (  8689 PWs)   bands (ev):

   -14.5639 -14.4433 -14.3259 -12.6057 -12.4991 -12.3971 -12.1306 -12.0275
   -11.9293  -9.4605  -9.3898  -9.3282  -8.2481  -8.1920  -8.1389  -5.7767
    -5.7181  -5.6673  -5.3170  -5.2593  -5.2102  -4.8300  -4.7816  -4.7415
    -4.1090  -3.5095  -2.8168  -2.7814  -2.7543  -2.6585  -2.3959  -2.1736
    -2.1020  -2.0708  -2.0496  -1.6454  -1.4663  -1.2145  -1.1910  -1.1759
    -1.1557  -0.8604  -0.5282  -0.3224  -0.3062  -0.2938  -0.2308  -0.0486
     0.1606   0.3714   0.4294   0.9179   2.3539   2.6421   2.9494   5.4725
     5.5629   5.7633   8.0849   8.3727   8.5346   8.6686   8.7402   8.7910
     9.0719   9.4226

          k = 0.2263-0.3132-0.1144 (  8687 PWs)   bands (ev):

   -14.5638 -14.4433 -14.3259 -12.6057 -12.4990 -12.3972 -12.1306 -12.0275
   -11.9293  -9.4605  -9.3898  -9.3282  -8.2481  -8.1920  -8.1389  -5.7767
    -5.7181  -5.6672  -5.3170  -5.2593  -5.2102  -4.8299  -4.7817  -4.7414
    -4.1364  -3.2993  -3.0717  -2.8167  -2.7813  -2.7541  -2.2298  -2.1017
    -2.0728  -2.0495  -1.9128  -1.7854  -1.5286  -1.2146  -1.1949  -1.1885
    -1.1753  -0.7898  -0.4683  -0.3227  -0.3088  -0.3045  -0.2937  -0.1195
     0.1569   0.4132   0.4695   0.8983   2.3556   2.6389   2.9511   5.4709
     5.5640   5.7636   8.0853   8.3749   8.5071   8.7127   8.7420   8.9074
     9.0999   9.4067

          k = 0.2153-0.1186 0.0466 (  8699 PWs)   bands (ev):

   -14.9779 -14.8543 -14.7337 -12.0450 -11.9422 -11.8447 -10.6555 -10.6548
   -10.5647 -10.5632 -10.4791 -10.4786  -7.7909  -7.7891  -7.7214  -7.7176
    -7.6561  -7.6542  -6.4634  -6.3974  -6.3396  -4.5548  -4.0055  -3.2464
    -3.2454  -3.2093  -3.2069  -3.1795  -3.1784  -3.0484  -2.8472  -2.0001
    -1.8669  -1.8415  -1.8225  -1.5922  -0.8501  -0.6729  -0.4088  -0.1983
    -0.1412  -0.1161  -0.1000   0.1217   0.3582   0.5023   0.5201   0.5325
     0.9429   1.1374   1.1632   1.5963   1.6529   2.0718   2.0955   6.1475
     6.1630   6.4531   6.4687   6.8017   6.8143   7.6411   8.0010   8.2458
     8.4426   8.6015

          k = 0.2235-0.1418-0.0971 (  8694 PWs)   bands (ev):

   -14.9779 -14.8544 -14.7337 -12.0450 -11.9422 -11.8447 -10.6555 -10.6547
   -10.5647 -10.5632 -10.4791 -10.4786  -7.7909  -7.7890  -7.7214  -7.7176
    -7.6561  -7.6542  -6.4634  -6.3974  -6.3396  -4.5920  -3.7411  -3.5679
    -3.2463  -3.2454  -3.2091  -3.2069  -3.1791  -3.1783  -2.3469  -2.1803
    -1.8669  -1.8415  -1.8225  -1.6342  -0.8242  -0.6612  -0.4063  -0.2682
    -0.1413  -0.1161  -0.1000   0.1273   0.4174   0.5023   0.5201   0.5325
     0.9230   1.1320   1.1631   1.5988   1.6474   2.0731   2.0993   6.1511
     6.1668   6.4497   6.4602   6.8029   6.8185   7.6442   8.0032   8.3738
     8.5386   8.5494

          k = 0.2126 0.0527 0.0639 (  8691 PWs)   bands (ev):

   -15.0611 -14.9370 -14.8156 -11.6536 -11.5541 -11.4599 -11.1827 -11.0864
   -10.9960  -9.8870  -9.8120  -9.7444  -8.6462  -8.5843  -8.5261  -7.4152
    -7.3447  -7.2820  -6.9750  -6.9071  -6.8453  -4.6590  -4.0415  -3.3516
    -3.3310  -3.2938  -3.2635  -2.7221  -2.5965  -2.5653  -2.5406  -2.1051
    -2.0770  -2.0643  -2.0576  -1.3094  -1.0144  -0.5366  -0.2305  -0.0133
     0.1671   0.1752   0.1849   0.1993   0.6206   0.6240   0.6367   0.6447
     0.7301   1.1360   1.2761   1.6820   1.7397   2.0416   2.3843   5.6564
     5.9322   6.1427   6.5905   6.9712   7.1118   7.3345   7.4650   7.8849
     8.2889   8.7122

          k = 0.2207 0.0296-0.0798 (  8695 PWs)   bands (ev):

   -15.0611 -14.9370 -14.8156 -11.6536 -11.5541 -11.4598 -11.1827 -11.0864
   -10.9960  -9.8870  -9.8120  -9.7444  -8.6462  -8.5843  -8.5261  -7.4152
    -7.3447  -7.2821  -6.9750  -6.9070  -6.8454  -4.6704  -3.9750  -3.4759
    -3.3316  -3.2937  -3.2637  -2.5994  -2.5960  -2.5649  -2.5407  -2.1180
    -2.1050  -2.0769  -2.0579  -1.3142  -1.0167  -0.5099  -0.2229  -0.0376
     0.1559   0.1675   0.1847   0.1992   0.5946   0.6213   0.6367   0.6447
     0.7614   1.1750   1.2667   1.6669   1.7402   2.0383   2.3866   5.6519
     5.9339   6.1453   6.6003   6.9472   7.1098   7.3519   7.4735   7.8778
     8.3473   8.6521

          k = 0.3533 0.3087 0.0817 (  8686 PWs)   bands (ev):

   -14.0705 -13.9536 -13.8401 -13.5790 -13.4655 -13.3560 -11.6554 -11.5556
   -11.4613 -10.2755 -10.1865 -10.1038  -6.8803  -6.8341  -6.7972  -5.6598
    -5.6191  -5.5873  -5.3025  -5.2685  -5.2378  -4.1228  -4.0929  -4.0669
    -3.7124  -3.6660  -3.6362  -3.6206  -3.1030  -2.7242  -2.6181  -2.5791
    -2.5465  -2.5185  -2.1886  -1.7546  -1.4576  -1.2431  -1.1666  -1.1598
    -1.1405  -1.1236  -0.9449  -0.7381  -0.7134  -0.6981  -0.5673  -0.4255
     0.0501   0.2077   0.8767   1.3835   1.6775   2.1749   2.6930   6.0384
     6.2472   6.4813   7.6897   7.8925   8.1164   8.4303   9.2666  10.0871
    10.1534  10.5436

          k = 0.3614 0.2855-0.0620 (  8675 PWs)   bands (ev):

   -14.0705 -13.9536 -13.8402 -13.5790 -13.4655 -13.3560 -11.6554 -11.5556
   -11.4612 -10.2755 -10.1865 -10.1038  -6.8803  -6.8341  -6.7972  -5.6598
    -5.6191  -5.5873  -5.3025  -5.2685  -5.2378  -4.1227  -4.0930  -4.0668
    -3.7120  -3.6662  -3.6269  -3.6124  -3.1227  -2.8619  -2.6186  -2.5791
    -2.5458  -2.3366  -2.0586  -1.8265  -1.6619  -1.2713  -1.1661  -1.1405
    -1.1237  -1.0505  -0.9255  -0.7381  -0.7135  -0.6981  -0.5589  -0.4399
     0.0182   0.2986   0.8028   1.4087   1.6749   2.1783   2.6922   6.0383
     6.2465   6.4820   7.6897   7.8926   8.1163   8.4390   9.2174   9.9611
    10.1329  10.5986

          k = 0.3505 0.4801 0.0990 (  8652 PWs)   bands (ev):

   -13.8239 -13.7087 -13.5972 -13.3362 -13.2246 -13.1169 -12.8488 -12.7405
   -12.6367  -8.8363  -8.7692  -8.7094  -7.8758  -7.8368  -7.8025  -6.2244
    -6.1914  -6.1623  -4.2652  -4.2304  -4.2050  -3.7153  -3.6745  -3.6414
    -3.3945  -2.8916  -2.8335  -2.8085  -2.7888  -2.7623  -2.7334  -2.7097
    -2.4731  -2.3197  -2.2501  -2.0429  -2.0127  -1.9935  -1.8041  -1.7227
    -1.5181  -1.4964  -1.4815  -1.3824  -1.1676  -0.9745  -0.7623  -0.4829
    -0.4085  -0.0766   0.2076   0.4185   3.1677   3.4700   3.8246   4.7242
     4.9241   5.1015   8.5669   9.4127   9.5368   9.7255   9.9157  10.0399
    10.3408  10.4767

          k = 0.3586 0.4569-0.0447 (  8667 PWs)   bands (ev):

   -13.8239 -13.7087 -13.5972 -13.3362 -13.2245 -13.1169 -12.8489 -12.7404
   -12.6367  -8.8363  -8.7692  -8.7094  -7.8758  -7.8368  -7.8025  -6.2244
    -6.1914  -6.1623  -4.2652  -4.2304  -4.2050  -3.7154  -3.6744  -3.6414
    -3.3754  -2.9042  -2.8333  -2.8089  -2.7887  -2.7623  -2.7334  -2.7096
    -2.6016  -2.3298  -2.0673  -2.0420  -2.0126  -1.9932  -1.8772  -1.6096
    -1.5181  -1.4965  -1.4815  -1.4169  -1.1325  -1.0390  -0.8204  -0.5597
    -0.2798  -0.1616   0.2719   0.4201   3.1673   3.4708   3.8240   4.7249
     4.9230   5.1022   8.5985   9.3200   9.5329   9.7210   9.9173   9.9799
    10.3447  10.4769

          k = 0.3477 0.6514 0.1163 (  8679 PWs)   bands (ev):

   -13.7431 -13.7399 -13.6304 -13.6231 -13.5175 -13.5143 -12.2910 -12.1868
   -12.0874  -9.5563  -9.4748  -9.4003  -7.3068  -7.2616  -7.2289  -5.9175
    -5.8825  -5.8640  -4.8901  -4.8546  -4.8310  -3.5662  -3.5364  -3.5215
    -3.4388  -3.1664  -3.1642  -3.1247  -3.1218  -3.0915  -3.0907  -3.0729
    -2.6031  -2.3584  -2.1925  -1.9569  -1.6627  -1.3183  -1.3165  -1.2944
    -1.2906  -1.2761  -1.2722  -1.2714  -1.0480  -0.8402  -0.7189  -0.5249
    -0.3009   0.2218   0.3618   0.7814   2.4498   2.8746   3.3280   5.2569
     5.5253   5.8042   8.3792   8.5916   8.8190   9.0543   9.3757   9.7125
    10.5149  10.7195

          k = 0.3558 0.6283-0.0274 (  8676 PWs)   bands (ev):

   -13.7432 -13.7399 -13.6304 -13.6231 -13.5174 -13.5143 -12.2910 -12.1868
   -12.0874  -9.5563  -9.4748  -9.4003  -7.3068  -7.2616  -7.2289  -5.9175
    -5.8825  -5.8640  -4.8901  -4.8546  -4.8310  -3.5662  -3.5362  -3.5216
    -3.4312  -3.1664  -3.1644  -3.1245  -3.1217  -3.0912  -3.0904  -3.0641
    -2.6583  -2.4429  -2.0790  -1.8670  -1.5644  -1.4451  -1.3178  -1.3164
    -1.2929  -1.2904  -1.2731  -1.2719  -1.1601  -0.8339  -0.6780  -0.4729
    -0.2477   0.1118   0.4181   0.7853   2.4484   2.8778   3.3262   5.2565
     5.5260   5.8039   8.3858   8.5919   8.8185   9.0530   9.3452   9.6361
    10.5041  10.8199

          k = 0.3616-0.2055 0.0298 (  8689 PWs)   bands (ev):

   -14.3160 -14.1972 -14.0818 -13.3330 -13.2212 -13.1136 -10.9605 -10.9599
   -10.8669 -10.8650 -10.7778 -10.7770  -6.5382  -6.5369  -6.4824  -6.4797
    -6.4336  -6.4322  -4.5016  -4.5002  -4.4598  -4.4565  -4.4250  -4.4234
    -4.2660  -4.2135  -4.1699  -3.8650  -3.2331  -2.8221  -2.4035  -2.1990
    -2.0682  -2.0300  -2.0011  -1.9049  -1.5301  -1.2415  -1.2175  -1.1998
    -1.1921  -0.8736  -0.7544  -0.4890  -0.3958  -0.3741  -0.3583  -0.2853
     0.1862   0.9333   0.9511   1.4629   1.5279   2.0278   2.0554   6.7160
     6.7231   6.9703   6.9850   7.2642   7.2766   8.2547   8.8865   9.7615
    10.0693  10.2761

          k = 0.3697-0.2286-0.1139 (  8697 PWs)   bands (ev):

   -14.3160 -14.1973 -14.0819 -13.3330 -13.2212 -13.1136 -10.9605 -10.9599
   -10.8669 -10.8650 -10.7778 -10.7770  -6.5382  -6.5369  -6.4824  -6.4797
    -6.4336  -6.4322  -4.5016  -4.5001  -4.4598  -4.4565  -4.4250  -4.4234
    -4.2660  -4.2136  -4.1698  -3.8900  -3.0118  -2.8411  -2.8102  -2.0689
    -2.0627  -2.0298  -2.0010  -1.6990  -1.4900  -1.3252  -1.2415  -1.2174
    -1.1996  -0.8952  -0.7710  -0.5032  -0.3958  -0.3741  -0.3583  -0.2540
     0.1905   0.9207   0.9501   1.4754   1.5274   2.0241   2.0563   6.7149
     6.7234   6.9723   6.9848   7.2630   7.2764   8.2467   9.0410   9.7085
    10.0836  10.1856

          k = 0.3588-0.0341 0.0471 (  8676 PWs)   bands (ev):

   -14.5638 -14.4432 -14.3259 -12.6058 -12.4991 -12.3972 -12.1304 -12.0274
   -11.9293  -9.4629  -9.3914  -9.3272  -8.2476  -8.1899  -8.1368  -5.7773
    -5.7190  -5.6677  -5.3164  -5.2588  -5.2100  -4.8306  -4.7827  -4.7420
    -4.1119  -3.5184  -2.8161  -2.7803  -2.7540  -2.6493  -2.3966  -2.1784
    -2.1024  -2.0720  -2.0500  -1.6544  -1.4706  -1.2177  -1.2045  -1.1935
    -1.1757  -0.8109  -0.4768  -0.3204  -0.3033  -0.2922  -0.1986  -0.1149
     0.1218   0.4025   0.4801   0.9200   2.3291   2.6339   2.9770   5.4537
     5.5692   5.7725   8.0844   8.3659   8.5151   8.6500   8.7322   8.7975
     9.0790   9.4014

          k = 0.3670-0.0572-0.0966 (  8690 PWs)   bands (ev):

   -14.5638 -14.4433 -14.3259 -12.6058 -12.4991 -12.3972 -12.1304 -12.0274
   -11.9293  -9.4628  -9.3913  -9.3271  -8.2476  -8.1899  -8.1368  -5.7773
    -5.7190  -5.6677  -5.3164  -5.2588  -5.2100  -4.8306  -4.7826  -4.7420
    -4.1415  -3.2881  -3.0930  -2.8160  -2.7801  -2.7537  -2.2273  -2.1022
    -2.0734  -2.0498  -1.9311  -1.7573  -1.5476  -1.2173  -1.1943  -1.1761
    -1.1366  -0.8651  -0.4792  -0.3791  -0.3204  -0.3032  -0.2921   0.0178
     0.2414   0.3954   0.4366   0.8920   2.3314   2.6306   2.9778   5.4539
     5.5698   5.7720   8.0864   8.3668   8.5006   8.7124   8.7550   8.8550
     9.1025   9.4068

          k = 0.3560 0.1373 0.0644 (  8690 PWs)   bands (ev):

   -14.4816 -14.3617 -14.2450 -13.0109 -12.9015 -12.7965 -11.5753 -11.4760
   -11.3823 -10.2045 -10.1167 -10.0353  -7.4450  -7.3816  -7.3256  -6.1781
    -6.1197  -6.0704  -4.8160  -4.7614  -4.7225  -4.7135  -4.6771  -4.6381
    -4.0341  -3.6473  -3.6090  -3.5767  -3.3708  -2.7821  -2.4318  -2.0609
    -1.6940  -1.5785  -1.5475  -1.5465  -1.5346  -1.5203  -1.5168  -1.5024
    -1.1877  -0.8787  -0.6909  -0.4009  -0.2737  -0.2514  -0.2379  -0.0350
     0.1504   0.3457   0.8561   1.4608   1.6992   2.1635   2.6385   5.9333
     6.1411   6.4040   7.4350   7.6984   7.9796   8.5246   8.8747   9.4238
     9.6623   9.7211

          k = 0.3642 0.1141-0.0793 (  8677 PWs)   bands (ev):

   -14.4816 -14.3617 -14.2450 -13.0109 -12.9015 -12.7964 -11.5753 -11.4761
   -11.3823 -10.2045 -10.1167 -10.0353  -7.4450  -7.3816  -7.3255  -6.1781
    -6.1197  -6.0705  -4.8160  -4.7614  -4.7225  -4.7134  -4.6771  -4.6381
    -4.0393  -3.6472  -3.6092  -3.5766  -3.3341  -2.8578  -2.4149  -2.0178
    -1.5965  -1.5780  -1.5473  -1.5465  -1.5331  -1.5198  -1.5177  -1.5024
    -1.3440  -1.0120  -0.4328  -0.3632  -0.2737  -0.2513  -0.2380  -0.1260
     0.1523   0.2643   0.9311   1.4350   1.6989   2.1640   2.6379   5.9351
     6.1370   6.4061   7.4384   7.6912   7.9844   8.5106   8.8984   9.4136
     9.6334   9.7805

     the Fermi energy is     4.2609 ev

!    total energy              =    -303.17614208 Ry
     estimated scf accuracy    <       0.00000066 Ry
     smearing contrib. (-TS)   =      -0.00000003 Ry
     internal energy E=F+TS    =    -303.17614205 Ry

     The total energy is F=E-TS. E is the sum of the following terms:
     one-electron contribution =    -487.07994683 Ry
     hartree contribution      =     287.77990830 Ry
     xc contribution           =    -108.88572113 Ry
     ewald contribution        =       5.00961760 Ry

     convergence has been achieved in  79 iterations

     Forces acting on atoms (cartesian axes, Ry/au):

     atom    1 type  1   force =    -0.00051881    0.00039979   -0.00011338
     atom    2 type  1   force =    -0.00010845   -0.00032479   -0.00020444
     atom    3 type  1   force =     0.00026987    0.00024441    0.00016213
     atom    4 type  1   force =    -0.00000261   -0.00026868    0.00008400
     atom    5 type  1   force =     0.00045509    0.00042511   -0.00006603
     atom    6 type  1   force =    -0.00013133   -0.00009134    0.00027307
     atom    7 type  1   force =    -0.00028612    0.00036710   -0.00007905
     atom    8 type  1   force =    -0.00024117   -0.00061630   -0.00031846
     atom    9 type  1   force =     0.00039084   -0.00027579    0.00007637
     atom   10 type  1   force =     0.00009553   -0.00016037   -0.00005849
     atom   11 type  1   force =     0.00037184    0.00063640   -0.00077403
     atom   12 type  1   force =    -0.00022345   -0.00011921    0.00033561
     atom   13 type  1   force =     0.00006473    0.00036821    0.00036053
     atom   14 type  1   force =    -0.00045013   -0.00073460   -0.00017315
     atom   15 type  1   force =    -0.00043153    0.00001486   -0.00010952
     atom   16 type  1   force =     0.00001478   -0.00014792    0.00025480
     atom   17 type  1   force =     0.00002430    0.00032582   -0.00011873
     atom   18 type  1   force =    -0.00006240   -0.00017058    0.00005157
     atom   19 type  1   force =    -0.00011185    0.00028572    0.00020303
     atom   20 type  1   force =    -0.00029896   -0.00031424    0.00012736
     atom   21 type  1   force =    -0.00003087   -0.00025345   -0.00001802
     atom   22 type  1   force =    -0.00024939    0.00000085   -0.00030120
     atom   23 type  1   force =    -0.00020884    0.00060423   -0.00020410
     atom   24 type  1   force =     0.00007502   -0.00016682   -0.00021526
     atom   25 type  2   force =     0.00005137    0.00020339    0.00137302
     atom   26 type  2   force =    -0.00004772    0.00090958   -0.00080396
     atom   27 type  2   force =     0.00049432    0.00014816   -0.00001004
     atom   28 type  2   force =     0.00051121   -0.00020337    0.00011794
     atom   29 type  2   force =    -0.00012121    0.00008249    0.00044093
     atom   30 type  2   force =    -0.00014680    0.00012778    0.00058742
     atom   31 type  2   force =    -0.00009688   -0.00005421   -0.00001893
     atom   32 type  2   force =     0.00018996    0.00000683   -0.00022511
     atom   33 type  2   force =    -0.00036010    0.00009649    0.00038135
     atom   34 type  2   force =    -0.00011254    0.00133031   -0.00003602
     atom   35 type  2   force =    -0.00108839   -0.00020627   -0.00041359
     atom   36 type  2   force =     0.00154018   -0.00239244    0.00016382
     atom   37 type  2   force =     0.00074034    0.00074593   -0.00047166
     atom   38 type  2   force =     0.00004017   -0.00082309   -0.00025976
     The non-local contrib.  to forces
     atom    1 type  1   force =    -0.00142785    0.00097079   -0.00006469
     atom    2 type  1   force =    -0.00029111   -0.00149540   -0.00092223
     atom    3 type  1   force =    -0.00143137    0.00141853    0.00024294
     atom    4 type  1   force =     0.00092309   -0.00106228   -0.00006209
     atom    5 type  1   force =     0.00265033   -0.00153799   -0.00164300
     atom    6 type  1   force =     0.00012022   -0.00163458    0.00205688
     atom    7 type  1   force =    -0.00123782    0.00111387    0.00027253
     atom    8 type  1   force =     0.00173319   -0.00160936    0.00327919
     atom    9 type  1   force =     0.00101100    0.00190419   -0.00069947
     atom   10 type  1   force =     0.00110499   -0.00069275    0.00009956
     atom   11 type  1   force =    -0.00284692   -0.00169216   -0.00069770
     atom   12 type  1   force =     0.00027058   -0.00203321   -0.00017139
     atom   13 type  1   force =    -0.00058325    0.00097174    0.00009461
     atom   14 type  1   force =    -0.00043274   -0.00097479   -0.00303647
     atom   15 type  1   force =    -0.00268800   -0.00098711    0.00279881
     atom   16 type  1   force =     0.00081207   -0.00093193    0.00042592
     atom   17 type  1   force =    -0.00030274    0.00455932   -0.00076078
     atom   18 type  1   force =     0.00041825    0.00133082    0.00258813
     atom   19 type  1   force =    -0.00071103    0.00083568    0.00024776
     atom   20 type  1   force =     0.00040237    0.00032708   -0.00228327
     atom   21 type  1   force =     0.00060529   -0.00051532    0.00144989
     atom   22 type  1   force =     0.00051868   -0.00060702    0.00003086
     atom   23 type  1   force =    -0.00065158    0.00138951   -0.00062927
     atom   24 type  1   force =     0.00092194    0.00124108    0.00040643
     atom   25 type  2   force =     0.02932916   -0.01443698    0.05386618
     atom   26 type  2   force =    -0.02901657    0.01406211   -0.05408236
     atom   27 type  2   force =     0.01134874   -0.06182154    0.00669957
     atom   28 type  2   force =    -0.01136688    0.06190080   -0.00658158
     atom   29 type  2   force =     0.06059845   -0.01679016   -0.00005015
     atom   30 type  2   force =    -0.06061954    0.01681606   -0.00001230
     atom   31 type  2   force =     0.04288421    0.04495880    0.01037416
     atom   32 type  2   force =    -0.04266257   -0.04510536   -0.01014142
     atom   33 type  2   force =    -0.00310537    0.06265498   -0.00850325
     atom   34 type  2   force =     0.00315835   -0.06251229    0.00870869
     atom   35 type  2   force =    -0.05803064    0.02189867   -0.01018618
     atom   36 type  2   force =     0.05805693   -0.02119453    0.01027384
     atom   37 type  2   force =     0.03420177    0.05265023    0.00290117
     atom   38 type  2   force =    -0.03468509   -0.05263251   -0.00312904
     The ionic contribution  to forces
     atom    1 type  1   force =     0.00077591   -0.01151286   -0.10049093
     atom    2 type  1   force =    -0.46128822    1.43390540    9.11387925
     atom    3 type  1   force =     0.47639037   -1.50988667   -9.51293836
     atom    4 type  1   force =     0.00906852   -0.02187558   -0.11146630
     atom    5 type  1   force =    -0.47783286    1.46960799    9.19080159
     atom    6 type  1   force =     0.48417612   -1.59730346   -9.42288075
     atom    7 type  1   force =     0.00145317   -0.01140822   -0.09685253
     atom    8 type  1   force =    -0.57357741    1.50904989    9.12430162
     atom    9 type  1   force =     0.58919418   -1.44772915   -9.44518854
     atom   10 type  1   force =     0.01005956   -0.02001106   -0.10391525
     atom   11 type  1   force =    -0.55832178    1.50749933    9.07311920
     atom   12 type  1   force =     0.59824017   -1.55536424   -9.50320375
     atom   13 type  1   force =     0.00056540   -0.01420219   -0.11208469
     atom   14 type  1   force =    -0.57258188    1.49725482    9.16291485
     atom   15 type  1   force =     0.48461246   -1.59484543   -9.41515219
     atom   16 type  1   force =     0.01080647   -0.02251484   -0.10972043
     atom   17 type  1   force =    -0.55952823    1.47696895    9.06466423
     atom   18 type  1   force =     0.48751515   -1.49884880   -9.37382912
     atom   19 type  1   force =     0.00180051   -0.01367811   -0.10596454
     atom   20 type  1   force =    -0.45370544    1.43356280    9.12212442
     atom   21 type  1   force =     0.57048599   -1.51945033   -9.37340794
     atom   22 type  1   force =     0.01159365   -0.01926534   -0.10099973
     atom   23 type  1   force =    -0.48182721    1.45200347    9.20297693
     atom   24 type  1   force =     0.57903661   -1.44826958   -9.46360601
     atom   25 type  2   force =    -0.52909150    0.59689218    1.82242424
     atom   26 type  2   force =     0.28308008    0.08405825    2.36282309
     atom   27 type  2   force =     0.01903287    0.47694274   -2.24017169
     atom   28 type  2   force =     0.20893349   -1.19536772   -1.99089362
     atom   29 type  2   force =    -0.69119485    0.04779573   -1.48620755
     atom   30 type  2   force =     0.85281146   -0.49169646   -1.36288278
     atom   31 type  2   force =    -0.52470851   -0.78754327   -1.63984794
     atom   32 type  2   force =     0.71197306    0.26975846   -1.63206220
     atom   33 type  2   force =    -0.07485323   -0.44065428    2.22593829
     atom   34 type  2   force =    -0.18299122    1.13901634    1.98979815
     atom   35 type  2   force =     0.67779318   -0.05388321    1.30993665
     atom   36 type  2   force =    -0.77324205    0.48068690    1.11194151
     atom   37 type  2   force =    -0.51473311   -0.44490819    1.46539375
     atom   38 type  2   force =     0.36007912    0.84521574    1.36072907
     The local contribution  to forces
     atom    1 type  1   force =     0.00009720    0.01093527    0.10009872
     atom    2 type  1   force =     0.46148770   -1.43275668   -9.11295522
     atom    3 type  1   force =    -0.47477556    1.50876223    9.51274914
     atom    4 type  1   force =    -0.00992011    0.02255799    0.11121738
     atom    5 type  1   force =     0.47565295   -1.46760994   -9.18893831
     atom    6 type  1   force =    -0.48442780    1.59874571    9.42109207
     atom    7 type  1   force =    -0.00054126    0.01065067    0.09616776
     atom    8 type  1   force =     0.57160478   -1.50805980   -9.12763502
     atom    9 type  1   force =    -0.58977759    1.44563914    9.44591634
     atom   10 type  1   force =    -0.01099625    0.02043615    0.10337115
     atom   11 type  1   force =     0.56145246   -1.50511758   -9.07301673
     atom   12 type  1   force =    -0.59865264    1.55718409    9.50358454
     atom   13 type  1   force =     0.00005562    0.01358954    0.11198412
     atom   14 type  1   force =     0.57256399   -1.49701942   -9.15983254
     atom   15 type  1   force =    -0.48243747    1.59579813    9.41230980
     atom   16 type  1   force =    -0.01152332    0.02318601    0.10915769
     atom   17 type  1   force =     0.55980614   -1.48106650   -9.06385490
     atom   18 type  1   force =    -0.48798071    1.49736031    9.37134015
     atom   19 type  1   force =    -0.00123238    0.01310551    0.10556567
     atom   20 type  1   force =     0.45303276   -1.43419601   -9.11953025
     atom   21 type  1   force =    -0.57112203    1.51971584    9.37198103
     atom   22 type  1   force =    -0.01228654    0.01977465    0.10028479
     atom   23 type  1   force =     0.48223130   -1.45269490   -9.20224008
     atom   24 type  1   force =    -0.57983838    1.44691791    9.46292726
     atom   25 type  2   force =     0.49981167   -0.58223232   -1.87476523
     atom   26 type  2   force =    -0.25411209   -0.09720369   -2.30948599
     atom   27 type  2   force =    -0.02987705   -0.41496619    2.23342864
     atom   28 type  2   force =    -0.19706540    1.13324019    1.99756149
     atom   29 type  2   force =     0.63048295   -0.03091490    1.48666483
     atom   30 type  2   force =    -0.79234348    0.47499033    1.36345189
     atom   31 type  2   force =     0.48172122    0.74253245    1.62941883
     atom   32 type  2   force =    -0.66910183   -0.22465710    1.64194607
     atom   33 type  2   force =     0.07759126    0.37812245   -2.21694725
     atom   34 type  2   force =     0.17971198   -1.07516343   -1.99843435
     atom   35 type  2   force =    -0.62086404    0.03180473   -1.30012755
     atom   36 type  2   force =     0.71674514   -0.46186983   -1.12200599
     atom   37 type  2   force =     0.48126681    0.39301529   -1.46869425
     atom   38 type  2   force =    -0.32536863   -0.79341945   -1.35781393
     The core correction contribution to forces
     atom    1 type  1   force =     0.00006278   -0.00005382   -0.00002850
     atom    2 type  1   force =    -0.00001491    0.00006534    0.00001325
     atom    3 type  1   force =     0.00005144   -0.00003706    0.00005723
     atom    4 type  1   force =    -0.00004814    0.00005191    0.00002951
     atom    5 type  1   force =    -0.00002604    0.00000358   -0.00005452
     atom    6 type  1   force =    -0.00003485    0.00006085   -0.00002189
     atom    7 type  1   force =     0.00005314   -0.00004885   -0.00004029
     atom    8 type  1   force =    -0.00003188    0.00005583   -0.00002936
     atom    9 type  1   force =     0.00000532   -0.00006754    0.00000833
     atom   10 type  1   force =    -0.00005204    0.00004518    0.00001239
     atom   11 type  1   force =     0.00007594    0.00000293    0.00004353
     atom   12 type  1   force =    -0.00003271    0.00006963    0.00008371
     atom   13 type  1   force =     0.00004734   -0.00004411   -0.00000745
     atom   14 type  1   force =    -0.00001322    0.00003628    0.00001198
     atom   15 type  1   force =     0.00006820   -0.00000199   -0.00009589
     atom   16 type  1   force =    -0.00005962    0.00005211    0.00002394
     atom   17 type  1   force =     0.00002241   -0.00011297    0.00005881
     atom   18 type  1   force =    -0.00002544   -0.00001178   -0.00004445
     atom   19 type  1   force =     0.00004903   -0.00004103   -0.00002031
     atom   20 type  1   force =    -0.00003910    0.00001019    0.00005262
     atom   21 type  1   force =     0.00000668    0.00000007   -0.00004024
     atom   22 type  1   force =    -0.00005055    0.00003529    0.00000727
     atom   23 type  1   force =     0.00003834   -0.00006540   -0.00007255
     atom   24 type  1   force =    -0.00003361   -0.00001867    0.00001141
     atom   25 type  2   force =     0.00000000    0.00000000    0.00000000
     atom   26 type  2   force =     0.00000000    0.00000000    0.00000000
     atom   27 type  2   force =     0.00000000    0.00000000    0.00000000
     atom   28 type  2   force =     0.00000000    0.00000000    0.00000000
     atom   29 type  2   force =     0.00000000    0.00000000    0.00000000
     atom   30 type  2   force =     0.00000000    0.00000000    0.00000000
     atom   31 type  2   force =     0.00000000    0.00000000    0.00000000
     atom   32 type  2   force =     0.00000000    0.00000000    0.00000000
     atom   33 type  2   force =     0.00000000    0.00000000    0.00000000
     atom   34 type  2   force =     0.00000000    0.00000000    0.00000000
     atom   35 type  2   force =     0.00000000    0.00000000    0.00000000
     atom   36 type  2   force =     0.00000000    0.00000000    0.00000000
     atom   37 type  2   force =     0.00000000    0.00000000    0.00000000
     atom   38 type  2   force =     0.00000000    0.00000000    0.00000000
     The Hubbard contrib.    to forces
     atom    1 type  1   force =     0.00000000    0.00000000    0.00000000
     atom    2 type  1   force =     0.00000000    0.00000000    0.00000000
     atom    3 type  1   force =     0.00000000    0.00000000    0.00000000
     atom    4 type  1   force =     0.00000000    0.00000000    0.00000000
     atom    5 type  1   force =     0.00000000    0.00000000    0.00000000
     atom    6 type  1   force =     0.00000000    0.00000000    0.00000000
     atom    7 type  1   force =     0.00000000    0.00000000    0.00000000
     atom    8 type  1   force =     0.00000000    0.00000000    0.00000000
     atom    9 type  1   force =     0.00000000    0.00000000    0.00000000
     atom   10 type  1   force =     0.00000000    0.00000000    0.00000000
     atom   11 type  1   force =     0.00000000    0.00000000    0.00000000
     atom   12 type  1   force =     0.00000000    0.00000000    0.00000000
     atom   13 type  1   force =     0.00000000    0.00000000    0.00000000
     atom   14 type  1   force =     0.00000000    0.00000000    0.00000000
     atom   15 type  1   force =     0.00000000    0.00000000    0.00000000
     atom   16 type  1   force =     0.00000000    0.00000000    0.00000000
     atom   17 type  1   force =     0.00000000    0.00000000    0.00000000
     atom   18 type  1   force =     0.00000000    0.00000000    0.00000000
     atom   19 type  1   force =     0.00000000    0.00000000    0.00000000
     atom   20 type  1   force =     0.00000000    0.00000000    0.00000000
     atom   21 type  1   force =     0.00000000    0.00000000    0.00000000
     atom   22 type  1   force =     0.00000000    0.00000000    0.00000000
     atom   23 type  1   force =     0.00000000    0.00000000    0.00000000
     atom   24 type  1   force =     0.00000000    0.00000000    0.00000000
     atom   25 type  2   force =     0.00000000    0.00000000    0.00000000
     atom   26 type  2   force =     0.00000000    0.00000000    0.00000000
     atom   27 type  2   force =     0.00000000    0.00000000    0.00000000
     atom   28 type  2   force =     0.00000000    0.00000000    0.00000000
     atom   29 type  2   force =     0.00000000    0.00000000    0.00000000
     atom   30 type  2   force =     0.00000000    0.00000000    0.00000000
     atom   31 type  2   force =     0.00000000    0.00000000    0.00000000
     atom   32 type  2   force =     0.00000000    0.00000000    0.00000000
     atom   33 type  2   force =     0.00000000    0.00000000    0.00000000
     atom   34 type  2   force =     0.00000000    0.00000000    0.00000000
     atom   35 type  2   force =     0.00000000    0.00000000    0.00000000
     atom   36 type  2   force =     0.00000000    0.00000000    0.00000000
     atom   37 type  2   force =     0.00000000    0.00000000    0.00000000
     atom   38 type  2   force =     0.00000000    0.00000000    0.00000000
     The SCF correction term to forces
     atom    1 type  1   force =    -0.00002646    0.00005964    0.00036881
     atom    2 type  1   force =    -0.00000152   -0.00004422   -0.00022271
     atom    3 type  1   force =     0.00003537   -0.00001338    0.00004796
     atom    4 type  1   force =    -0.00002558    0.00005852    0.00036229
     atom    5 type  1   force =     0.00001109   -0.00003929   -0.00023502
     atom    6 type  1   force =     0.00003536    0.00003939    0.00002354
     atom    7 type  1   force =    -0.00001297    0.00005887    0.00037027
     atom    8 type  1   force =     0.00003053   -0.00005361   -0.00023811
     atom    9 type  1   force =    -0.00004168   -0.00002320    0.00003649
     atom   10 type  1   force =    -0.00002035    0.00006135    0.00037045
[...]
     atom    7 type  1   force =    -0.00140052    0.00106499    0.00006716
     atom    8 type  1   force =     0.00230654   -0.00082931    0.00336383
     atom    9 type  1   force =     0.00127593    0.00180360   -0.00048800
     atom   10 type  1   force =     0.00125110   -0.00034486   -0.00002104
     atom   11 type  1   force =    -0.00302978   -0.00288560   -0.00038324
     atom   12 type  1   force =    -0.00021929   -0.00233575   -0.00009239
     atom   13 type  1   force =    -0.00044186    0.00083436   -0.00002977
     atom   14 type  1   force =    -0.00070396    0.00071656   -0.00278902
     atom   15 type  1   force =    -0.00204549   -0.00147209    0.00245071
     atom   16 type  1   force =     0.00014556   -0.00060784    0.00046830
     atom   17 type  1   force =    -0.00093503    0.00329154   -0.00016678
     atom   18 type  1   force =     0.00040693    0.00168949    0.00242872
     atom   19 type  1   force =    -0.00051018    0.00085991    0.00018916
     atom   20 type  1   force =     0.00010682    0.00085286   -0.00234107
     atom   21 type  1   force =     0.00071370   -0.00054472    0.00143837
     atom   22 type  1   force =     0.00016230   -0.00084457    0.00003618
     atom   23 type  1   force =    -0.00034676    0.00050934   -0.00051611
     atom   24 type  1   force =     0.00125902    0.00124389    0.00038174
     atom   25 type  2   force =     0.03273619   -0.01386177    0.05223986
     atom   26 type  2   force =    -0.03249282    0.01362854   -0.05245253
     atom   27 type  2   force =     0.01118498   -0.06175164    0.00730182
     atom   28 type  2   force =    -0.01116346    0.06183283   -0.00718053
     atom   29 type  2   force =     0.06064871   -0.01658701    0.00072598
     atom   30 type  2   force =    -0.06063961    0.01660331   -0.00082541
     atom   31 type  2   force =     0.04344308    0.04461828    0.00941005
     atom   32 type  2   force =    -0.04325868   -0.04472336   -0.00913292
     atom   33 type  2   force =    -0.00180658    0.06243327   -0.00937190
     atom   34 type  2   force =     0.00184377   -0.06236361    0.00960475
     atom   35 type  2   force =    -0.05958540    0.01808368   -0.01020349
     atom   36 type  2   force =     0.05956043   -0.01760140    0.01027700
     atom   37 type  2   force =     0.03510987    0.05207447    0.00398368
     atom   38 type  2   force =    -0.03554448   -0.05205265   -0.00423282
     The ionic contribution  to forces
     atom    1 type  1   force =     0.00668021   -0.02100542   -0.14385303
     atom    2 type  1   force =    -0.49305343    1.47829134    9.18678355
     atom    3 type  1   force =     0.50302732   -1.54064242   -9.52589637
     atom    4 type  1   force =     0.01211732   -0.02862152   -0.15956639
     atom    5 type  1   force =    -0.51030610    1.50937554    9.25531414
     atom    6 type  1   force =     0.50511597   -1.62934473   -9.44270440
     atom    7 type  1   force =     0.00469835   -0.01974149   -0.14120736
     atom    8 type  1   force =    -0.59652324    1.55157096    9.19844859
     atom    9 type  1   force =     0.61227509   -1.47718472   -9.45892662
     atom   10 type  1   force =     0.01199757   -0.02687846   -0.15044334
     atom   11 type  1   force =    -0.58419551    1.54251096    9.15625969
     atom   12 type  1   force =     0.62478459   -1.59131756   -9.52196900
     atom   13 type  1   force =     0.00261427   -0.02217514   -0.15964777
     atom   14 type  1   force =    -0.59804379    1.54111513    9.23013790
     atom   15 type  1   force =     0.51503739   -1.63136516   -9.43029457
     atom   16 type  1   force =     0.01221054   -0.03046263   -0.16153486
     atom   17 type  1   force =    -0.58334514    1.51501460    9.13854687
     atom   18 type  1   force =     0.51347149   -1.52954443   -9.38470948
     atom   19 type  1   force =     0.00530482   -0.02170605   -0.15466357
     atom   20 type  1   force =    -0.48367749    1.47846401    9.19222290
     atom   21 type  1   force =     0.59561556   -1.55409630   -9.38097884
     atom   22 type  1   force =     0.01483142   -0.02864586   -0.14773665
     atom   23 type  1   force =    -0.51074688    1.49185883    9.27136812
     atom   24 type  1   force =     0.60053718   -1.47598342   -9.46291248
     atom   25 type  2   force =    -0.56382928    0.57925479    1.79451047
     atom   26 type  2   force =     0.33803953    0.07771559    2.33453353
     atom   27 type  2   force =     0.01880109    0.47278436   -2.24863410
     atom   28 type  2   force =     0.20296842   -1.20085562   -1.98996333
     atom   29 type  2   force =    -0.67756906    0.03602081   -1.53672938
     atom   30 type  2   force =     0.86785063   -0.50298329   -1.40260858
     atom   31 type  2   force =    -0.52515587   -0.79164858   -1.62903266
     atom   32 type  2   force =     0.72760328    0.25644280   -1.62919684
     atom   33 type  2   force =    -0.08951241   -0.43986005    2.20780170
     atom   34 type  2   force =    -0.16250502    1.13450123    1.96187826
     atom   35 type  2   force =     0.68666549    0.02263627    1.32992243
     atom   36 type  2   force =    -0.80296953    0.46514031    1.12719844
     atom   37 type  2   force =    -0.54900696   -0.43030754    1.48582704
     atom   38 type  2   force =     0.34819220    0.84167289    1.39245599
     The local contribution  to forces
     atom    1 type  1   force =    -0.00591873    0.02059345    0.14379718
     atom    2 type  1   force =     0.49308923   -1.47738348   -9.18575548
     atom    3 type  1   force =    -0.50154156    1.53935476    9.52563409
     atom    4 type  1   force =    -0.01306831    0.02933589    0.15961991
     atom    5 type  1   force =     0.50795939   -1.50747167   -9.25364250
     atom    6 type  1   force =    -0.50486777    1.63058990    9.44128003
     atom    7 type  1   force =    -0.00375321    0.01897487    0.14087919
     atom    8 type  1   force =     0.59460901   -1.55063765   -9.20199654
     atom    9 type  1   force =    -0.61302123    1.47509211    9.45949980
     atom   10 type  1   force =    -0.01303874    0.02731059    0.15020342
     atom   11 type  1   force =     0.58726105   -1.54023883   -9.15638928
     atom   12 type  1   force =    -0.62512920    1.59326679    9.52240512
     atom   13 type  1   force =    -0.00213336    0.02162119    0.15995527
     atom   14 type  1   force =     0.59819482   -1.54120552   -9.22749225
     atom   15 type  1   force =    -0.51305212    1.63257114    9.42769805
     atom   16 type  1   force =    -0.01275115    0.03114311    0.16131395
     atom   17 type  1   force =     0.58387428   -1.51874187   -9.13809341
     atom   18 type  1   force =    -0.51391511    1.52800722    9.38215438
     atom   19 type  1   force =    -0.00482783    0.02113752    0.15464103
     atom   20 type  1   force =     0.48328818   -1.47896280   -9.18962831
     atom   21 type  1   force =    -0.59620204    1.55442742    9.37947642
     atom   22 type  1   force =    -0.01536684    0.02928181    0.14729586
     atom   23 type  1   force =     0.51091727   -1.49237002   -9.27059688
     atom   24 type  1   force =    -0.60142982    1.47456672    9.46202439
     atom   25 type  2   force =     0.53114324   -0.56564395   -1.84645723
     atom   26 type  2   force =    -0.30472411   -0.09169989   -2.28208681
     atom   27 type  2   force =    -0.02996204   -0.41114812    2.24121201
     atom   28 type  2   force =    -0.19182231    1.13906776    1.99710774
     atom   29 type  2   force =     0.61723467   -0.01940229    1.53641122
     atom   30 type  2   force =    -0.80706568    0.48653842    1.40398035
     atom   31 type  2   force =     0.48191199    0.74693113    1.61968396
     atom   32 type  2   force =    -0.68412966   -0.21192783    1.63817440
     atom   33 type  2   force =     0.09134819    0.37756817   -2.19834518
     atom   34 type  2   force =     0.16107386   -1.07215606   -1.97122367
     atom   35 type  2   force =    -0.62691812   -0.04018520   -1.32017591
     atom   36 type  2   force =     0.74329324   -0.44735271   -1.13784771
     atom   37 type  2   force =     0.51339178    0.37801423   -1.49026867
     atom   38 type  2   force =    -0.31296134   -0.78987330   -1.38835139
     The core correction contribution to forces
     atom    1 type  1   force =     0.00003866   -0.00003502   -0.00003776
     atom    2 type  1   force =    -0.00001922    0.00003022    0.00001978
     atom    3 type  1   force =     0.00004407   -0.00002394    0.00005841
     atom    4 type  1   force =    -0.00005061    0.00003931    0.00003568
     atom    5 type  1   force =    -0.00001926    0.00002658   -0.00005450
     atom    6 type  1   force =     0.00000068    0.00004212   -0.00000044
     atom    7 type  1   force =     0.00005086   -0.00004551   -0.00004435
     atom    8 type  1   force =    -0.00004586    0.00001863   -0.00004304
     atom    9 type  1   force =     0.00000315   -0.00006845    0.00000597
     atom   10 type  1   force =    -0.00004928    0.00003437    0.00001559
     atom   11 type  1   force =     0.00008696    0.00005045    0.00000794
     atom   12 type  1   force =    -0.00001832    0.00007715    0.00009589
     atom   13 type  1   force =     0.00004883   -0.00003850   -0.00000537
     atom   14 type  1   force =    -0.00000988   -0.00002432    0.00001610
     atom   15 type  1   force =     0.00003191    0.00001780   -0.00009544
     atom   16 type  1   force =    -0.00003766    0.00004100    0.00003845
     atom   17 type  1   force =     0.00003426   -0.00007567    0.00004020
     atom   18 type  1   force =    -0.00001956   -0.00002628   -0.00004667
     atom   19 type  1   force =     0.00004446   -0.00004132   -0.00001603
     atom   20 type  1   force =    -0.00003038   -0.00000739    0.00006092
     atom   21 type  1   force =    -0.00000566   -0.00000136   -0.00004404
     atom   22 type  1   force =    -0.00004400    0.00004412    0.00000884
     atom   23 type  1   force =     0.00001756   -0.00002943   -0.00007436
     atom   24 type  1   force =    -0.00003158   -0.00002376   -0.00000737
     atom   25 type  2   force =     0.00000000    0.00000000    0.00000000
     atom   26 type  2   force =     0.00000000    0.00000000    0.00000000
     atom   27 type  2   force =     0.00000000    0.00000000    0.00000000
     atom   28 type  2   force =     0.00000000    0.00000000    0.00000000
     atom   29 type  2   force =     0.00000000    0.00000000    0.00000000
     atom   30 type  2   force =     0.00000000    0.00000000    0.00000000
     atom   31 type  2   force =     0.00000000    0.00000000    0.00000000
     atom   32 type  2   force =     0.00000000    0.00000000    0.00000000
     atom   33 type  2   force =     0.00000000    0.00000000    0.00000000
     atom   34 type  2   force =     0.00000000    0.00000000    0.00000000
     atom   35 type  2   force =     0.00000000    0.00000000    0.00000000
     atom   36 type  2   force =     0.00000000    0.00000000    0.00000000
     atom   37 type  2   force =     0.00000000    0.00000000    0.00000000
     atom   38 type  2   force =     0.00000000    0.00000000    0.00000000
     The Hubbard contrib.    to forces
     atom    1 type  1   force =     0.00000000    0.00000000    0.00000000
     atom    2 type  1   force =     0.00000000    0.00000000    0.00000000
     atom    3 type  1   force =     0.00000000    0.00000000    0.00000000
     atom    4 type  1   force =     0.00000000    0.00000000    0.00000000
     atom    5 type  1   force =     0.00000000    0.00000000    0.00000000
     atom    6 type  1   force =     0.00000000    0.00000000    0.00000000
     atom    7 type  1   force =     0.00000000    0.00000000    0.00000000
     atom    8 type  1   force =     0.00000000    0.00000000    0.00000000
     atom    9 type  1   force =     0.00000000    0.00000000    0.00000000
     atom   10 type  1   force =     0.00000000    0.00000000    0.00000000
     atom   11 type  1   force =     0.00000000    0.00000000    0.00000000
     atom   12 type  1   force =     0.00000000    0.00000000    0.00000000
     atom   13 type  1   force =     0.00000000    0.00000000    0.00000000
     atom   14 type  1   force =     0.00000000    0.00000000    0.00000000
     atom   15 type  1   force =     0.00000000    0.00000000    0.00000000
     atom   16 type  1   force =     0.00000000    0.00000000    0.00000000
     atom   17 type  1   force =     0.00000000    0.00000000    0.00000000
     atom   18 type  1   force =     0.00000000    0.00000000    0.00000000
     atom   19 type  1   force =     0.00000000    0.00000000    0.00000000
     atom   20 type  1   force =     0.00000000    0.00000000    0.00000000
     atom   21 type  1   force =     0.00000000    0.00000000    0.00000000
     atom   22 type  1   force =     0.00000000    0.00000000    0.00000000
     atom   23 type  1   force =     0.00000000    0.00000000    0.00000000
     atom   24 type  1   force =     0.00000000    0.00000000    0.00000000
     atom   25 type  2   force =     0.00000000    0.00000000    0.00000000
     atom   26 type  2   force =     0.00000000    0.00000000    0.00000000
     atom   27 type  2   force =     0.00000000    0.00000000    0.00000000
     atom   28 type  2   force =     0.00000000    0.00000000    0.00000000
     atom   29 type  2   force =     0.00000000    0.00000000    0.00000000
     atom   30 type  2   force =     0.00000000    0.00000000    0.00000000
     atom   31 type  2   force =     0.00000000    0.00000000    0.00000000
     atom   32 type  2   force =     0.00000000    0.00000000    0.00000000
     atom   33 type  2   force =     0.00000000    0.00000000    0.00000000
     atom   34 type  2   force =     0.00000000    0.00000000    0.00000000
     atom   35 type  2   force =     0.00000000    0.00000000    0.00000000
     atom   36 type  2   force =     0.00000000    0.00000000    0.00000000
     atom   37 type  2   force =     0.00000000    0.00000000    0.00000000
     atom   38 type  2   force =     0.00000000    0.00000000    0.00000000
     The SCF correction term to forces
     atom    1 type  1   force =     0.00000016    0.00000986    0.00003621
     atom    2 type  1   force =    -0.00000060    0.00000261    0.00003923
     atom    3 type  1   force =     0.00000142   -0.00000061   -0.00000321
     atom    4 type  1   force =     0.00000003    0.00000347    0.00003751
     atom    5 type  1   force =     0.00000076    0.00000266    0.00003859
     atom    6 type  1   force =    -0.00000003   -0.00000227   -0.00000340
     atom    7 type  1   force =    -0.00000439    0.00000909    0.00003670
     atom    8 type  1   force =    -0.00000366    0.00000420    0.00003761
     atom    9 type  1   force =    -0.00000044   -0.00000060   -0.00000371
     atom   10 type  1   force =    -0.00000420    0.00000409    0.00003767
     atom   11 type  1   force =    -0.00000548    0.00000842    0.00003834
     atom   12 type  1   force =     0.00000118   -0.00000080   -0.00000251
     atom   13 type  1   force =    -0.00000178    0.00000427    0.00003757
     atom   14 type  1   force =    -0.00000407    0.00000942    0.00003735
     atom   15 type  1   force =     0.00000084   -0.00000006   -0.00000443
     atom   16 type  1   force =    -0.00000270    0.00000946    0.00003689
     atom   17 type  1   force =    -0.00000676    0.00000937    0.00003814
     atom   18 type  1   force =    -0.00000198   -0.00000025   -0.00000567
     atom   19 type  1   force =    -0.00000288    0.00000148    0.00003780
     atom   20 type  1   force =    -0.00000055    0.00000811    0.00003789
     atom   21 type  1   force =    -0.00000120   -0.00000069   -0.00000275
     atom   22 type  1   force =    -0.00000191    0.00000709    0.00003673
     atom   23 type  1   force =     0.00000242    0.00000548    0.00003791
     atom   24 type  1   force =     0.00000217    0.00000075   -0.00000324
     atom   25 type  2   force =     0.00000054   -0.00000058   -0.00000174
     atom   26 type  2   force =     0.00000031   -0.00000159   -0.00001166
     atom   27 type  2   force =     0.00000106   -0.00000119   -0.00001443
     atom   28 type  2   force =     0.00000046   -0.00000340   -0.00001480
     atom   29 type  2   force =    -0.00000024   -0.00000190   -0.00001832
     atom   30 type  2   force =     0.00000240   -0.00000356   -0.00001870
     atom   31 type  2   force =    -0.00000029   -0.00000407   -0.00001863
     atom   32 type  2   force =     0.00000209   -0.00000231   -0.00001629
     atom   33 type  2   force =     0.00000073   -0.00000015   -0.00000688
     atom   34 type  2   force =     0.00000055   -0.00000240   -0.00000686
     atom   35 type  2   force =    -0.00000068   -0.00000266   -0.00001490
     atom   36 type  2   force =     0.00000169   -0.00000365   -0.00001387
     atom   37 type  2   force =     0.00000185   -0.00000027   -0.00001177
     atom   38 type  2   force =     0.00000056   -0.00000214   -0.00001382

     Total force =     0.003308     Total SCF correction =     0.000163


     Computing stress (Cartesian axis) and pressure

          total   stress  (Ry/bohr**3)                   (kbar)     P=       -0.02
  -0.00000137   0.00000004  -0.00000114           -0.20        0.01       -0.17
   0.00000004  -0.00000037   0.00000159            0.01       -0.05        0.23
  -0.00000114   0.00000159   0.00000134           -0.17        0.23        0.20


     Writing all to output data dir ../../results/server/7h2_abs/7H2abs_C.save/
 
     init_run     :      1.49s CPU      1.72s WALL (       2 calls)
     electrons    :    453.13s CPU    467.64s WALL (      14 calls)
     update_pot   :      2.82s CPU      2.85s WALL (      12 calls)
     forces       :      4.16s CPU      4.81s WALL (      14 calls)
     stress       :     41.50s CPU     42.07s WALL (      14 calls)

     Called by init_run:
     wfcinit      :      0.98s CPU      1.06s WALL (       2 calls)
     potinit      :      0.14s CPU      0.15s WALL (       2 calls)
     hinit0       :      0.28s CPU      0.33s WALL (       2 calls)

     Called by electrons:
     c_bands      :    392.76s CPU    403.50s WALL (     484 calls)
     sum_band     :     53.23s CPU     55.21s WALL (     484 calls)
     v_of_rho     :      0.60s CPU      0.61s WALL (     490 calls)
     newd         :      1.75s CPU      1.79s WALL (     490 calls)
     mix_rho      :      3.63s CPU      3.69s WALL (     484 calls)

     Called by c_bands:
     init_us_2    :      4.04s CPU      4.23s WALL (   17964 calls)
     init_us_2:cp :      3.99s CPU      4.19s WALL (   17964 calls)
     cegterg      :    362.40s CPU    371.89s WALL (    8716 calls)

     Called by *egterg:
     cdiaghg      :    111.26s CPU    112.11s WALL (   26238 calls)
     h_psi        :    199.17s CPU    207.30s WALL (   26638 calls)
     s_psi        :     11.27s CPU     11.43s WALL (   26638 calls)
     g_psi        :      0.67s CPU      0.68s WALL (   17886 calls)

     Called by h_psi:
     h_psi:calbec :     22.18s CPU     22.85s WALL (   26638 calls)
     vloc_psi     :    164.34s CPU    171.65s WALL (   26638 calls)
     add_vuspsi   :     11.44s CPU     11.58s WALL (   26638 calls)

     General routines
     calbec       :     33.90s CPU     34.88s WALL (   36610 calls)
     fft          :      1.12s CPU      1.18s WALL (    3044 calls)
     ffts         :      1.60s CPU      1.63s WALL (   13308 calls)
     fftw         :    168.73s CPU    176.17s WALL ( 3220230 calls)
     interpolate  :      0.23s CPU      0.24s WALL (     490 calls)
 
     Parallel routines
 
     PWSCF        :   8m24.15s CPU   8m40.67s WALL

 
   This run was terminated on:   0:30: 3   3Sep2024            

=------------------------------------------------------------------------------=
   JOB DONE.
=------------------------------------------------------------------------------=
