
     Program PWSCF v.7.2 starts on  2Sep2024 at 23:51:54 

     This program is part of the open-source Quantum ESPRESSO suite
     for quantum simulation of materials; please cite
         "P. Giannozzi et al., J. Phys.:Condens. Matter 21 395502 (2009);
         "P. Giannozzi et al., J. Phys.:Condens. Matter 29 465901 (2017);
         "P. Giannozzi et al., J. Chem. Phys. 152 154105 (2020);
          URL http://www.quantum-espresso.org", 
     in publications or presentations arising from this work. More details at
     http://www.quantum-espresso.org/quote

     Parallel version (MPI & OpenMP), running on      96 processor cores
     Number of MPI processes:                96
     Threads/MPI process:                     1

     MPI processes distributed on     2 nodes
     368621 MiB available memory on the printing compute node when the environment starts
 
     Reading input from hydrogen_absorption7.in

     Current dimensions of program PWSCF are:
     Max number of different atomic species (ntypx) = 10
     Max number of k-points (npk) =  40000
     Max angular momentum in pseudopotentials (lmaxx) =  4

     IMPORTANT: XC functional enforced from input :
     Exchange-correlation= LDA
                           (   1   1   0   0   0   0   0)
     Any further DFT definition will be discarded
     Please, verify this is what you really want

 
     K-points division:     npool     =       2
     R & G space division:  proc/nbgrp/npool/nimage =      48
     Subspace diagonalization in iterative solution of the eigenvalue problem:
     a serial algorithm will be used

 
     Parallelization info
     --------------------
     sticks:   dense  smooth     PW     G-vecs:    dense   smooth      PW
     Min          48      19      5                 5804     1466     230
     Max          49      20      6                 5827     1488     249
     Sum        2347     955    283               279499    70795   11539
 
     Using Slab Decomposition
 

     Title: 
     7H2_absorption_C                                                           


     bravais-lattice index     =            0
     lattice parameter (alat)  =       8.0000  a.u.
     unit-cell volume          =    2069.3297 (a.u.)^3
     number of atoms/cell      =           38
     number of atomic types    =            2
     number of electrons       =       110.00
     number of Kohn-Sham states=           66
     kinetic-energy cutoff     =      40.0000  Ry
     charge density cutoff     =     400.0000  Ry
     scf convergence threshold =      1.0E-06
     mixing beta               =       0.0500
     number of iterations used =            8  local-TF  mixing
     energy convergence thresh.=      1.0E-04
     force convergence thresh. =      1.0E-03
     press convergence thresh. =      5.0E-01
     Exchange-correlation= LDA
                           (   1   1   0   0   0   0   0)
     nstep                     =           50


     celldm(1)=   8.000004  celldm(2)=   0.000000  celldm(3)=   0.000000
     celldm(4)=   0.000000  celldm(5)=   0.000000  celldm(6)=   0.000000

     crystal axes: (cart. coord. in units of alat)
               a(1) = (   1.154899   0.008912   0.039704 )  
               a(2) = (  -0.579519   0.986765  -0.160709 )  
               a(3) = (   0.124495  -0.285973   3.575542 )  

     reciprocal axes: (cart. coord. in units 2 pi/alat)
               b(1) = (  0.861594  0.507734  0.010609 )  
               b(2) = ( -0.010693  1.020485  0.081991 )  
               b(3) = ( -0.010048  0.040230  0.283245 )  


     PseudoPot. # 1 for C  read from file:
     ../../potentials/C.pz-n-rrkjus_psl.0.1.UPF
     MD5 check sum: a3cecbabebb5b3a1aff122f23eb09bb0
     Pseudo is Ultrasoft + core correction, Zval =  4.0
     Generated using "atomic" code by A. Dal Corso  v.5.0.2 svn rev. 9415
     Using radial grid of 1073 points,  4 beta functions with: 
                l(1) =   0
                l(2) =   0
                l(3) =   1
                l(4) =   1
     Q(r) pseudized with 0 coefficients 


     PseudoPot. # 2 for H  read from file:
     ../../potentials/H.pz-rrkjus_psl.0.1.UPF
     MD5 check sum: 1467ebfaa2880178e80d097b970df8c7
     Pseudo is Ultrasoft, Zval =  1.0
     Generated using "atomic" code by A. Dal Corso  v.5.0.2 svn rev. 9415
     Using radial grid of  929 points,  2 beta functions with: 
                l(1) =   0
                l(2) =   0
     Q(r) pseudized with 0 coefficients 


     atomic species   valence    mass     pseudopotential
        C              4.00    12.01100     C ( 1.00)
        H              1.00     1.00784     H ( 1.00)

     No symmetry found



   Cartesian axes

     site n.     atom                  positions (alat units)
         1           C   tau(   1) = (   0.0186050  -0.1451679   0.5793343  )
         2           C   tau(   2) = (  -0.0152382  -0.0242983   1.3458158  )
         3           C   tau(   3) = (   0.1728989  -0.2021967   3.3433644  )
         4           C   tau(   4) = (   0.0178448   0.1852505   0.5321924  )
         5           C   tau(   5) = (   0.2731100   0.1430792   1.3316518  )
         6           C   tau(   6) = (   0.1722485   0.1284744   3.2979046  )
         7           C   tau(   7) = (   0.5960169  -0.1405135   0.6002440  )
         8           C   tau(   8) = (   0.5623822  -0.0204349   1.3615796  )
         9           C   tau(   9) = (   0.7503312  -0.1977520   3.3627426  )
        10           C   tau(  10) = (   0.5952562   0.1899042   0.5531073  )
        11           C   tau(  11) = (   0.8507975   0.1472806   1.3489341  )
        12           C   tau(  12) = (   0.7497307   0.1326842   3.3159995  )
        13           C   tau(  13) = (  -0.2712021   0.3482167   0.4988006  )
        14           C   tau(  14) = (  -0.3046043   0.4683137   1.2597100  )
        15           C   tau(  15) = (  -0.1168497   0.2914205   3.2637608  )
        16           C   tau(  16) = (  -0.2718241   0.6786175   0.4515085  )
        17           C   tau(  17) = (  -0.0162685   0.6355677   1.2454379  )
        18           C   tau(  18) = (  -0.1175091   0.6215170   3.2156372  )
        19           C   tau(  19) = (   0.3061709   0.3528935   0.5202405  )
        20           C   tau(  20) = (   0.2726265   0.4732169   1.2828990  )
        21           C   tau(  21) = (   0.4605689   0.2960851   3.2849375  )
        22           C   tau(  22) = (   0.3055409   0.6832891   0.4729256  )
        23           C   tau(  23) = (   0.5610523   0.6407221   1.2701757  )
        24           C   tau(  24) = (   0.4599349   0.6262111   3.2369587  )
        25           H   tau(  25) = (   0.0602138   1.0435949   1.7735736  )
        26           H   tau(  26) = (   0.1195263   1.0202373   1.9450886  )
        27           H   tau(  27) = (   0.1877583   0.4850940   2.6579417  )
        28           H   tau(  28) = (   0.2190331   0.3072621   2.6840451  )
        29           H   tau(  29) = (   0.6933342   0.3935245   2.6153161  )
        30           H   tau(  30) = (   0.8692235   0.3438979   2.6211901  )
        31           H   tau(  31) = (   0.4182139  -0.1877428   2.6179387  )
        32           H   tau(  32) = (   0.5494480  -0.0635391   2.6453921  )
        33           H   tau(  33) = (  -0.2043047   0.4376753   1.9343628  )
        34           H   tau(  34) = (  -0.1831459   0.6194129   1.9242220  )
        35           H   tau(  35) = (   0.4741583   0.5627460   2.1198435  )
        36           H   tau(  36) = (   0.2920778   0.5811575   2.1164683  )
        37           H   tau(  37) = (   0.0301827   0.0040823   2.1700850  )
        38           H   tau(  38) = (   0.1531566   0.1384043   2.1864943  )

     number of k points=    36  Gaussian smearing, width (Ry)=  0.0100
                       cart. coord. in units 2pi/alat
        k(    1) = (   0.0683963   0.1374090   0.0785280), wk =   0.0555556
        k(    2) = (   0.0734204   0.1172943  -0.0630946), wk =   0.0555556
        k(    3) = (   0.0666141   0.3074899   0.0921932), wk =   0.0555556
        k(    4) = (   0.0716382   0.2873752  -0.0494295), wk =   0.0555556
        k(    5) = (   0.0648319   0.4775709   0.1058584), wk =   0.0555556
        k(    6) = (   0.0698559   0.4574561  -0.0357643), wk =   0.0555556
        k(    7) = (   0.0737430  -0.3728337   0.0375325), wk =   0.0555556
        k(    8) = (   0.0787670  -0.3929485  -0.1040901), wk =   0.0555556
        k(    9) = (   0.0719608  -0.2027528   0.0511977), wk =   0.0555556
        k(   10) = (   0.0769848  -0.2228676  -0.0904250), wk =   0.0555556
        k(   11) = (   0.0701785  -0.0326719   0.0648629), wk =   0.0555556
        k(   12) = (   0.0752026  -0.0527867  -0.0767598), wk =   0.0555556
        k(   13) = (   0.2119953   0.2220314   0.0802963), wk =   0.0555556
        k(   14) = (   0.2170193   0.2019166  -0.0613264), wk =   0.0555556
        k(   15) = (   0.2102130   0.3921123   0.0939614), wk =   0.0555556
        k(   16) = (   0.2152371   0.3719975  -0.0476613), wk =   0.0555556
        k(   17) = (   0.2084308   0.5621932   0.1076266), wk =   0.0555556
        k(   18) = (   0.2134549   0.5420784  -0.0339961), wk =   0.0555556
        k(   19) = (   0.2173419  -0.2882114   0.0393008), wk =   0.0555556
        k(   20) = (   0.2223660  -0.3083261  -0.1023219), wk =   0.0555556
        k(   21) = (   0.2155597  -0.1181304   0.0529659), wk =   0.0555556
        k(   22) = (   0.2205837  -0.1382452  -0.0886567), wk =   0.0555556
        k(   23) = (   0.2137775   0.0519505   0.0666311), wk =   0.0555556
        k(   24) = (   0.2188015   0.0318357  -0.0749916), wk =   0.0555556
        k(   25) = (   0.3555942   0.3066537   0.0820645), wk =   0.0555556
        k(   26) = (   0.3606182   0.2865390  -0.0595582), wk =   0.0555556
        k(   27) = (   0.3538120   0.4767347   0.0957296), wk =   0.0555556
        k(   28) = (   0.3588360   0.4566199  -0.0458930), wk =   0.0555556
        k(   29) = (   0.3520297   0.6468156   0.1093948), wk =   0.0555556
        k(   30) = (   0.3570538   0.6267008  -0.0322279), wk =   0.0555556
        k(   31) = (   0.3609408  -0.2035890   0.0410690), wk =   0.0555556
        k(   32) = (   0.3659649  -0.2237038  -0.1005537), wk =   0.0555556
        k(   33) = (   0.3591586  -0.0335081   0.0547341), wk =   0.0555556
        k(   34) = (   0.3641827  -0.0536229  -0.0868885), wk =   0.0555556
        k(   35) = (   0.3573764   0.1365728   0.0683993), wk =   0.0555556
        k(   36) = (   0.3624005   0.1164581  -0.0732234), wk =   0.0555556

     Dense  grid:   279499 G-vectors     FFT dimensions: (  60,  60, 192)

     Smooth grid:    70795 G-vectors     FFT dimensions: (  40,  40, 120)

     Estimated max dynamical RAM per process >      14.61 MB

     Estimated total dynamical RAM >       1.30 GB

     Check: negative core charge=   -0.000002

     Initial potential from superposition of free atoms

     starting charge     109.9990, renormalised to     110.0000
     Starting wfcs are  110 randomized atomic wfcs

     total cpu time spent up to now is        0.9 secs

     Self-consistent Calculation

     iteration #  1     ecut=    40.00 Ry     beta= 0.05
     Davidson diagonalization with overlap
     ethr =  1.00E-02,  avg # of iterations =  3.5

     total cpu time spent up to now is        2.3 secs

     total energy              =    -304.10269622 Ry
     estimated scf accuracy    <       2.13354923 Ry

     iteration #  2     ecut=    40.00 Ry     beta= 0.05
     Davidson diagonalization with overlap
     ethr =  1.94E-03,  avg # of iterations =  3.4

     total cpu time spent up to now is        3.4 secs

     total energy              =    -304.99732206 Ry
     estimated scf accuracy    <       2.60142151 Ry

     iteration #  3     ecut=    40.00 Ry     beta= 0.05
     Davidson diagonalization with overlap
     ethr =  1.94E-03,  avg # of iterations =  1.0

     total cpu time spent up to now is        4.2 secs

     total energy              =    -302.95755623 Ry
     estimated scf accuracy    <       3.82454212 Ry

     iteration #  4     ecut=    40.00 Ry     beta= 0.05
     Davidson diagonalization with overlap
     ethr =  1.94E-03,  avg # of iterations =  2.1

     total cpu time spent up to now is        5.1 secs

     total energy              =    -303.09134267 Ry
     estimated scf accuracy    <       0.27277539 Ry

     iteration #  5     ecut=    40.00 Ry     beta= 0.05
     Davidson diagonalization with overlap
     c_bands:  2 eigenvalues not converged
     ethr =  2.48E-04,  avg # of iterations = 11.7

     total cpu time spent up to now is        7.5 secs

     total energy              =    -303.21234251 Ry
     estimated scf accuracy    <       0.09332285 Ry

     iteration #  6     ecut=    40.00 Ry     beta= 0.05
     Davidson diagonalization with overlap
     c_bands:  1 eigenvalues not converged
     ethr =  8.48E-05,  avg # of iterations =  5.1

     total cpu time spent up to now is        8.8 secs

     total energy              =    -303.15641111 Ry
     estimated scf accuracy    <       0.12515143 Ry

     iteration #  7     ecut=    40.00 Ry     beta= 0.05
     Davidson diagonalization with overlap
     ethr =  8.48E-05,  avg # of iterations =  4.5

     total cpu time spent up to now is       10.3 secs

     total energy              =    -303.17334792 Ry
     estimated scf accuracy    <       0.02095321 Ry

     iteration #  8     ecut=    40.00 Ry     beta= 0.05
     Davidson diagonalization with overlap
     c_bands:  1 eigenvalues not converged
     ethr =  1.90E-05,  avg # of iterations =  7.3

     total cpu time spent up to now is       12.1 secs

     total energy              =    -303.18004350 Ry
     estimated scf accuracy    <       0.01553957 Ry

     iteration #  9     ecut=    40.00 Ry     beta= 0.05
     Davidson diagonalization with overlap
     ethr =  1.41E-05,  avg # of iterations =  1.5

     total cpu time spent up to now is       12.9 secs

     total energy              =    -303.23249589 Ry
     estimated scf accuracy    <       0.02050727 Ry

     iteration # 10     ecut=    40.00 Ry     beta= 0.05
     Davidson diagonalization with overlap
     c_bands:  1 eigenvalues not converged
     c_bands:  1 eigenvalues not converged
     ethr =  1.41E-05,  avg # of iterations =  8.8

     total cpu time spent up to now is       15.1 secs

     total energy              =    -303.20671614 Ry
     estimated scf accuracy    <       0.15519561 Ry

     iteration # 11     ecut=    40.00 Ry     beta= 0.05
     Davidson diagonalization with overlap
     ethr =  1.41E-05,  avg # of iterations =  2.4

     total cpu time spent up to now is       16.0 secs

     total energy              =    -303.17330347 Ry
     estimated scf accuracy    <       0.08542282 Ry

     iteration # 12     ecut=    40.00 Ry     beta= 0.05
     Davidson diagonalization with overlap
     ethr =  1.41E-05,  avg # of iterations =  3.8

     total cpu time spent up to now is       17.3 secs

     total energy              =    -303.17797323 Ry
     estimated scf accuracy    <       0.01914168 Ry

     iteration # 13     ecut=    40.00 Ry     beta= 0.05
     Davidson diagonalization with overlap
     ethr =  1.41E-05,  avg # of iterations =  3.5

     total cpu time spent up to now is       18.4 secs

     total energy              =    -303.17552893 Ry
     estimated scf accuracy    <       0.01518537 Ry

     iteration # 14     ecut=    40.00 Ry     beta= 0.05
     Davidson diagonalization with overlap
     ethr =  1.38E-05,  avg # of iterations =  1.1

     total cpu time spent up to now is       19.2 secs

     total energy              =    -303.16815592 Ry
     estimated scf accuracy    <       0.01068597 Ry

     iteration # 15     ecut=    40.00 Ry     beta= 0.05
     Davidson diagonalization with overlap
     c_bands:  2 eigenvalues not converged
     c_bands:  2 eigenvalues not converged
     c_bands:  2 eigenvalues not converged
     c_bands:  1 eigenvalues not converged
     c_bands:  1 eigenvalues not converged
     ethr =  9.71E-06,  avg # of iterations = 12.5

     total cpu time spent up to now is       21.8 secs

     total energy              =    -303.17719145 Ry
     estimated scf accuracy    <       0.00446503 Ry

     iteration # 16     ecut=    40.00 Ry     beta= 0.05
     Davidson diagonalization with overlap
     c_bands:  1 eigenvalues not converged
     c_bands:  1 eigenvalues not converged
     c_bands:  1 eigenvalues not converged
     ethr =  4.06E-06,  avg # of iterations = 10.6

     total cpu time spent up to now is       24.2 secs

     total energy              =    -303.17227722 Ry
     estimated scf accuracy    <       0.01160967 Ry

     iteration # 17     ecut=    40.00 Ry     beta= 0.05
     Davidson diagonalization with overlap
     ethr =  4.06E-06,  avg # of iterations =  2.9

     total cpu time spent up to now is       25.2 secs

     total energy              =    -303.17140932 Ry
     estimated scf accuracy    <       0.00257027 Ry

     iteration # 18     ecut=    40.00 Ry     beta= 0.05
     Davidson diagonalization with overlap
     c_bands:  1 eigenvalues not converged
     c_bands:  1 eigenvalues not converged
     c_bands:  1 eigenvalues not converged
     ethr =  2.34E-06,  avg # of iterations =  9.5

     total cpu time spent up to now is       27.4 secs

     total energy              =    -303.17127076 Ry
     estimated scf accuracy    <       0.00383066 Ry

     iteration # 19     ecut=    40.00 Ry     beta= 0.05
     Davidson diagonalization with overlap
     c_bands:  1 eigenvalues not converged
     c_bands:  1 eigenvalues not converged
     ethr =  2.34E-06,  avg # of iterations =  7.6

     total cpu time spent up to now is       29.5 secs

     total energy              =    -303.17327230 Ry
     estimated scf accuracy    <       0.00181162 Ry

     iteration # 20     ecut=    40.00 Ry     beta= 0.05
     Davidson diagonalization with overlap
     c_bands:  1 eigenvalues not converged
     c_bands:  1 eigenvalues not converged
     ethr =  1.65E-06,  avg # of iterations =  3.7

     total cpu time spent up to now is       30.7 secs

     total energy              =    -303.17378594 Ry
     estimated scf accuracy    <       0.00251562 Ry

     iteration # 21     ecut=    40.00 Ry     beta= 0.05
     Davidson diagonalization with overlap
     ethr =  1.65E-06,  avg # of iterations =  2.6

     total cpu time spent up to now is       31.6 secs

     total energy              =    -303.17424603 Ry
     estimated scf accuracy    <       0.00345551 Ry

     iteration # 22     ecut=    40.00 Ry     beta= 0.05
     Davidson diagonalization with overlap
     ethr =  1.65E-06,  avg # of iterations =  1.0

     total cpu time spent up to now is       32.4 secs

     total energy              =    -303.17253599 Ry
     estimated scf accuracy    <       0.00429715 Ry

     iteration # 23     ecut=    40.00 Ry     beta= 0.05
     Davidson diagonalization with overlap
     ethr =  1.65E-06,  avg # of iterations =  1.1

     total cpu time spent up to now is       33.1 secs

     total energy              =    -303.17150855 Ry
     estimated scf accuracy    <       0.00165433 Ry

     iteration # 24     ecut=    40.00 Ry     beta= 0.05
     Davidson diagonalization with overlap
     c_bands:  1 eigenvalues not converged
     ethr =  1.50E-06,  avg # of iterations =  4.2

     total cpu time spent up to now is       34.6 secs

     total energy              =    -303.17203483 Ry
     estimated scf accuracy    <       0.00022254 Ry

     iteration # 25     ecut=    40.00 Ry     beta= 0.05
     Davidson diagonalization with overlap
     ethr =  2.02E-07,  avg # of iterations =  2.1

     total cpu time spent up to now is       35.5 secs

     total energy              =    -303.17205926 Ry
     estimated scf accuracy    <       0.00011383 Ry

     iteration # 26     ecut=    40.00 Ry     beta= 0.05
     Davidson diagonalization with overlap
     ethr =  1.03E-07,  avg # of iterations =  4.0

     total cpu time spent up to now is       36.8 secs

     total energy              =    -303.17204921 Ry
     estimated scf accuracy    <       0.00015834 Ry

     iteration # 27     ecut=    40.00 Ry     beta= 0.05
     Davidson diagonalization with overlap
     ethr =  1.03E-07,  avg # of iterations =  1.5

     total cpu time spent up to now is       37.6 secs

     total energy              =    -303.17215643 Ry
     estimated scf accuracy    <       0.00009007 Ry

     iteration # 28     ecut=    40.00 Ry     beta= 0.05
     Davidson diagonalization with overlap
     ethr =  8.19E-08,  avg # of iterations =  4.0

     total cpu time spent up to now is       38.9 secs

     total energy              =    -303.17205402 Ry
     estimated scf accuracy    <       0.00032592 Ry

     iteration # 29     ecut=    40.00 Ry     beta= 0.05
     Davidson diagonalization with overlap
     ethr =  8.19E-08,  avg # of iterations =  2.8

     total cpu time spent up to now is       39.9 secs

     total energy              =    -303.17209253 Ry
     estimated scf accuracy    <       0.00012495 Ry

     iteration # 30     ecut=    40.00 Ry     beta= 0.05
     Davidson diagonalization with overlap
     ethr =  8.19E-08,  avg # of iterations =  1.0

     total cpu time spent up to now is       40.6 secs

     total energy              =    -303.17213571 Ry
     estimated scf accuracy    <       0.00017849 Ry

     iteration # 31     ecut=    40.00 Ry     beta= 0.05
     Davidson diagonalization with overlap
     ethr =  8.19E-08,  avg # of iterations =  1.7

     total cpu time spent up to now is       41.4 secs

     total energy              =    -303.17200204 Ry
     estimated scf accuracy    <       0.00026833 Ry

     iteration # 32     ecut=    40.00 Ry     beta= 0.05
     Davidson diagonalization with overlap
     ethr =  8.19E-08,  avg # of iterations =  5.0

     total cpu time spent up to now is       42.9 secs

     total energy              =    -303.17204022 Ry
     estimated scf accuracy    <       0.00008750 Ry

     iteration # 33     ecut=    40.00 Ry     beta= 0.05
     Davidson diagonalization with overlap
     ethr =  7.95E-08,  avg # of iterations =  1.0

     total cpu time spent up to now is       43.7 secs

     total energy              =    -303.17202476 Ry
     estimated scf accuracy    <       0.00006869 Ry

     iteration # 34     ecut=    40.00 Ry     beta= 0.05
     Davidson diagonalization with overlap
     ethr =  6.24E-08,  avg # of iterations =  2.0

     total cpu time spent up to now is       44.5 secs

     total energy              =    -303.17203271 Ry
     estimated scf accuracy    <       0.00002282 Ry

     iteration # 35     ecut=    40.00 Ry     beta= 0.05
     Davidson diagonalization with overlap
     ethr =  2.07E-08,  avg # of iterations =  4.0

     total cpu time spent up to now is       45.8 secs

     total energy              =    -303.17203355 Ry
     estimated scf accuracy    <       0.00002446 Ry

     iteration # 36     ecut=    40.00 Ry     beta= 0.05
     Davidson diagonalization with overlap
     ethr =  2.07E-08,  avg # of iterations =  2.0

     total cpu time spent up to now is       46.6 secs

     total energy              =    -303.17203711 Ry
     estimated scf accuracy    <       0.00001313 Ry

     iteration # 37     ecut=    40.00 Ry     beta= 0.05
     Davidson diagonalization with overlap
     ethr =  1.19E-08,  avg # of iterations =  4.0

     total cpu time spent up to now is       47.8 secs

     total energy              =    -303.17203702 Ry
     estimated scf accuracy    <       0.00001484 Ry

     iteration # 38     ecut=    40.00 Ry     beta= 0.05
     Davidson diagonalization with overlap
     ethr =  1.19E-08,  avg # of iterations =  1.0

     total cpu time spent up to now is       48.5 secs

     total energy              =    -303.17203799 Ry
     estimated scf accuracy    <       0.00000983 Ry

     iteration # 39     ecut=    40.00 Ry     beta= 0.05
     Davidson diagonalization with overlap
     ethr =  8.94E-09,  avg # of iterations =  1.0

     total cpu time spent up to now is       49.3 secs

     total energy              =    -303.17203984 Ry
     estimated scf accuracy    <       0.00001094 Ry

     iteration # 40     ecut=    40.00 Ry     beta= 0.05
     Davidson diagonalization with overlap
     ethr =  8.94E-09,  avg # of iterations =  1.0

     total cpu time spent up to now is       50.0 secs

     total energy              =    -303.17203529 Ry
     estimated scf accuracy    <       0.00001305 Ry

     iteration # 41     ecut=    40.00 Ry     beta= 0.05
     Davidson diagonalization with overlap
     ethr =  8.94E-09,  avg # of iterations =  3.3

     total cpu time spent up to now is       51.0 secs

     total energy              =    -303.17203553 Ry
     estimated scf accuracy    <       0.00000690 Ry

     iteration # 42     ecut=    40.00 Ry     beta= 0.05
     Davidson diagonalization with overlap
     ethr =  6.28E-09,  avg # of iterations =  1.8

     total cpu time spent up to now is       51.8 secs

     total energy              =    -303.17203511 Ry
     estimated scf accuracy    <       0.00000620 Ry

     iteration # 43     ecut=    40.00 Ry     beta= 0.05
     Davidson diagonalization with overlap
     ethr =  5.64E-09,  avg # of iterations =  1.0

     total cpu time spent up to now is       52.6 secs

     total energy              =    -303.17203462 Ry
     estimated scf accuracy    <       0.00000545 Ry

     iteration # 44     ecut=    40.00 Ry     beta= 0.05
     Davidson diagonalization with overlap
     ethr =  4.95E-09,  avg # of iterations =  1.1

     total cpu time spent up to now is       53.5 secs

     total energy              =    -303.17203496 Ry
     estimated scf accuracy    <       0.00000433 Ry

     iteration # 45     ecut=    40.00 Ry     beta= 0.05
     Davidson diagonalization with overlap
     ethr =  3.94E-09,  avg # of iterations =  1.1

     total cpu time spent up to now is       54.4 secs

     total energy              =    -303.17203505 Ry
     estimated scf accuracy    <       0.00000369 Ry

     iteration # 46     ecut=    40.00 Ry     beta= 0.05
     Davidson diagonalization with overlap
     ethr =  3.35E-09,  avg # of iterations =  2.0

     total cpu time spent up to now is       55.2 secs

     total energy              =    -303.17203466 Ry
     estimated scf accuracy    <       0.00000286 Ry

     iteration # 47     ecut=    40.00 Ry     beta= 0.05
     Davidson diagonalization with overlap
     ethr =  2.60E-09,  avg # of iterations =  1.0

     total cpu time spent up to now is       55.9 secs

     total energy              =    -303.17203447 Ry
     estimated scf accuracy    <       0.00000206 Ry

     iteration # 48     ecut=    40.00 Ry     beta= 0.05
     Davidson diagonalization with overlap
     ethr =  1.87E-09,  avg # of iterations =  1.0

     total cpu time spent up to now is       56.7 secs

     total energy              =    -303.17203447 Ry
     estimated scf accuracy    <       0.00000178 Ry

     iteration # 49     ecut=    40.00 Ry     beta= 0.05
     Davidson diagonalization with overlap
     ethr =  1.62E-09,  avg # of iterations =  1.0

     total cpu time spent up to now is       57.4 secs

     total energy              =    -303.17203426 Ry
     estimated scf accuracy    <       0.00000165 Ry

     iteration # 50     ecut=    40.00 Ry     beta= 0.05
     Davidson diagonalization with overlap
     ethr =  1.50E-09,  avg # of iterations =  2.0

     total cpu time spent up to now is       58.3 secs

     total energy              =    -303.17203433 Ry
     estimated scf accuracy    <       0.00000120 Ry

     iteration # 51     ecut=    40.00 Ry     beta= 0.05
     Davidson diagonalization with overlap
     ethr =  1.09E-09,  avg # of iterations =  1.0

     total cpu time spent up to now is       59.0 secs

     End of self-consistent calculation

          k = 0.0684 0.1374 0.0785 (  8840 PWs)   bands (ev):

   -15.4074 -15.2695 -15.1366 -11.0574 -11.0537 -10.9556 -10.9502 -10.8591
   -10.8573  -9.9645  -9.9079  -9.8557  -9.1359  -9.0839  -9.0550  -8.1607
    -8.1575  -8.0809  -8.0766  -8.0066  -8.0052  -4.8448  -4.2944  -3.8628
    -2.9353  -2.9080  -2.8988  -2.8718  -2.4582  -2.4373  -2.4362  -2.4051
    -2.4048  -2.3820  -2.3814  -0.9713  -0.8170  -0.5817  -0.4368  -0.2106
     0.5816   0.5939   0.6064   0.6653   0.6875   0.7904   0.8026   0.8197
     1.1698   1.2058   1.4880   1.6599   1.6777   1.7744   2.1197   5.4005
     5.7602   5.9730   6.0115   6.0327   6.3718   6.4002   6.7932   6.8070
     8.1482   8.4671

          k = 0.0734 0.1173-0.0631 (  8844 PWs)   bands (ev):

   -15.4074 -15.2695 -15.1366 -11.0574 -11.0537 -10.9556 -10.9502 -10.8591
   -10.8573  -9.9645  -9.9079  -9.8557  -9.1359  -9.0839  -9.0550  -8.1607
    -8.1576  -8.0809  -8.0766  -8.0066  -8.0052  -4.8122  -4.4218  -3.6526
    -3.1117  -2.9351  -2.8998  -2.8719  -2.4374  -2.4363  -2.4053  -2.4049
    -2.3821  -2.3817  -2.3642  -0.9723  -0.8154  -0.5824  -0.4385  -0.2125
     0.5818   0.5941   0.6064   0.6658   0.6875   0.7905   0.8025   0.8197
     1.1716   1.2047   1.4867   1.6589   1.6781   1.7748   2.1199   5.4020
     5.7588   5.9726   6.0109   6.0285   6.3709   6.4118   6.7942   6.7984
     8.0593   8.4098

          k = 0.0666 0.3075 0.0922 (  8846 PWs)   bands (ev):

   -14.9922 -14.8576 -14.7283 -12.5442 -12.4287 -12.3200 -11.5958 -11.4878
   -11.3874 -10.2364 -10.1427 -10.0574  -8.2501  -8.1733  -8.1061  -6.9822
    -6.9098  -6.8461  -6.0842  -6.0165  -5.9561  -4.4001  -4.1939  -4.1466
    -4.1071  -3.6983  -3.5438  -3.2389  -3.1985  -3.1662  -2.3848  -2.1314
    -2.0295  -1.9982  -1.9757  -1.8327  -1.1561  -1.0194  -0.8317  -0.7932
    -0.7626  -0.7464  -0.6363  -0.3484  -0.0255   0.0213   0.0439   0.0602
     0.2172   0.5006   0.8324   1.4027   1.5548   1.9852   2.4215   5.5862
     5.8234   6.1259   6.8562   7.1772   7.5695   8.0274   8.3797   8.4604
     8.6137   8.8165

          k = 0.0716 0.2874-0.0494 (  8852 PWs)   bands (ev):

   -14.9922 -14.8576 -14.7283 -12.5442 -12.4287 -12.3200 -11.5958 -11.4878
   -11.3874 -10.2364 -10.1427 -10.0574  -8.2501  -8.1734  -8.1061  -6.9822
    -6.9097  -6.8461  -6.0842  -6.0164  -5.9561  -4.3452  -4.1937  -4.1470
    -4.1069  -3.9787  -3.2389  -3.1987  -3.1663  -3.0510  -2.8318  -2.0295
    -1.9992  -1.9762  -1.9693  -1.8014  -1.1941  -1.0251  -0.7963  -0.7691
    -0.7529  -0.7384  -0.6536  -0.3473  -0.0724   0.0211   0.0436   0.0602
     0.2215   0.5165   0.8325   1.4027   1.5490   1.9927   2.4186   5.5845
     5.8280   6.1225   6.8490   7.1920   7.5614   8.0221   8.2919   8.3919
     8.7154   8.8015

          k = 0.0648 0.4776 0.1059 (  8831 PWs)   bands (ev):

   -14.2495 -14.1208 -13.9978 -13.7574 -13.6325 -13.5137 -11.8316 -11.7216
   -11.6191 -10.4498 -10.3517 -10.2618  -7.0527  -7.0004  -6.9575  -5.8328
    -5.7865  -5.7492  -5.4727  -5.4334  -5.3998  -4.2901  -4.2557  -4.2269
    -3.8815  -3.8308  -3.7848  -3.6679  -3.0931  -2.8524  -2.7878  -2.7455
    -2.7078  -2.6662  -2.3785  -1.8837  -1.5762  -1.4286  -1.3345  -1.3191
    -1.3051  -1.2845  -1.1235  -0.9068  -0.8786  -0.8592  -0.7144  -0.5609
    -0.2326   0.0071   0.6813   1.2552   1.4898   2.0182   2.5637   5.8366
     6.0806   6.3478   7.4889   7.7243   7.9747   8.2375   8.8955   9.8047
     9.9557  10.4563

          k = 0.0699 0.4575-0.0358 (  8845 PWs)   bands (ev):

   -14.2495 -14.1208 -13.9978 -13.7574 -13.6325 -13.5137 -11.8316 -11.7216
   -11.6192 -10.4498 -10.3517 -10.2618  -7.0527  -7.0004  -6.9575  -5.8328
    -5.7865  -5.7492  -5.4727  -5.4334  -5.3998  -4.2901  -4.2557  -4.2270
    -3.8817  -3.8301  -3.7852  -3.6447  -3.1671  -2.9451  -2.7865  -2.7431
    -2.7065  -2.4638  -2.2236  -2.0384  -1.8433  -1.3558  -1.3343  -1.3052
    -1.2845  -1.2030  -1.0540  -0.9068  -0.8786  -0.8592  -0.7689  -0.5649
    -0.2542   0.0599   0.6400   1.2695   1.4843   2.0250   2.5615   5.8370
     6.0793   6.3487   7.4909   7.7177   7.9809   8.2369   8.8737   9.6753
     9.9973  10.4495

          k = 0.0737-0.3728 0.0375 (  8843 PWs)   bands (ev):

   -14.6608 -14.5289 -14.4024 -13.1891 -13.0686 -12.9545 -11.7511 -11.6418
   -11.5399 -10.3789 -10.2821 -10.1938  -7.6195  -7.5491  -7.4872  -6.3493
    -6.2843  -6.2297  -4.9862  -4.9263  -4.8912  -4.8734  -4.8405  -4.7977
    -4.0136  -3.8177  -3.7756  -3.7393  -3.5921  -2.7860  -2.5478  -2.2930
    -1.7803  -1.7439  -1.7158  -1.7040  -1.6849  -1.6831  -1.6634  -1.6164
    -1.4475  -1.1564  -0.6903  -0.5203  -0.4424  -0.4181  -0.3990  -0.2646
    -0.0283   0.0702   0.7448   1.3057   1.5124   2.0094   2.4998   5.7455
     5.9716   6.2687   7.2395   7.5217   7.8398   8.2619   8.4952   9.2270
     9.5605   9.6828

          k = 0.0788-0.3929-0.1041 (  8842 PWs)   bands (ev):

   -14.6608 -14.5289 -14.4024 -13.1891 -13.0686 -12.9545 -11.7511 -11.6418
   -11.5399 -10.3789 -10.2821 -10.1938  -7.6195  -7.5491  -7.4872  -6.3493
    -6.2843  -6.2297  -4.9862  -4.9264  -4.8911  -4.8734  -4.8405  -4.7977
    -4.0559  -3.8179  -3.7750  -3.7395  -3.3409  -3.1983  -2.4478  -2.0360
    -1.8266  -1.7566  -1.7393  -1.7157  -1.7062  -1.6849  -1.6795  -1.6634
    -1.4154  -1.1213  -0.7725  -0.5330  -0.4423  -0.4178  -0.3989  -0.2126
    -0.0500   0.1267   0.6913   1.3246   1.5133   2.0075   2.5013   5.7459
     5.9719   6.2681   7.2412   7.5189   7.8412   8.3033   8.5391   9.2434
     9.5296   9.6563

          k = 0.0720-0.2028 0.0512 (  8844 PWs)   bands (ev):

   -15.2408 -15.1043 -14.9729 -11.8307 -11.7210 -11.6184 -11.3578 -11.2518
   -11.1535 -10.0599  -9.9772  -9.9055  -8.8197  -8.7515  -8.6887  -7.5873
    -7.5091  -7.4407  -7.1471  -7.0723  -7.0048  -4.6170  -4.2705  -3.4992
    -3.4573  -3.4237  -3.3528  -3.0598  -2.7668  -2.7320  -2.7046  -2.2737
    -2.2414  -2.2189  -2.1836  -1.4063  -1.1603  -0.6720  -0.3951  -0.1597
    -0.0104   0.0042   0.0276   0.0365   0.3956   0.4540   0.4761   0.4835
     0.5562   1.0076   1.1405   1.5376   1.5703   1.8914   2.2278   5.4958
     5.7677   5.9768   6.4012   6.7848   6.9143   7.1895   7.2995   7.7430
     7.9209   8.6052

          k = 0.0770-0.2229-0.0904 (  8857 PWs)   bands (ev):

   -15.2408 -15.1043 -14.9728 -11.8307 -11.7211 -11.6184 -11.3578 -11.2518
   -11.1535 -10.0599  -9.9772  -9.9054  -8.8197  -8.7515  -8.6887  -7.5873
    -7.5091  -7.4407  -7.1472  -7.0723  -7.0048  -4.6743  -4.0149  -3.7907
    -3.4992  -3.4571  -3.4236  -2.7668  -2.7322  -2.7047  -2.6428  -2.3674
    -2.2736  -2.2414  -2.2187  -1.4089  -1.1619  -0.6540  -0.3945  -0.1661
    -0.0326   0.0029   0.0243   0.0363   0.4107   0.4543   0.4779   0.4837
     0.5854   0.9850   1.1299   1.5458   1.5745   1.8874   2.2297   5.4951
     5.7627   5.9831   6.4062   6.7693   6.9158   7.2038   7.2979   7.7426
     8.0956   8.5043

          k = 0.0702-0.0327 0.0649 (  8858 PWs)   bands (ev):

   -15.4906 -15.3520 -15.2184 -10.6780 -10.5803 -10.4907 -10.2777 -10.2769
   -10.1931 -10.1922 -10.1186 -10.1180  -9.0306  -9.0295  -8.9606  -8.9582
    -8.8943  -8.8925  -8.6493  -8.5672  -8.4944  -4.9130  -4.5007  -3.7891
    -3.1605  -2.5211  -2.5199  -2.4886  -2.4883  -2.4691  -2.4649  -2.4632
    -2.3646  -2.3357  -2.3137  -1.0900  -0.5136  -0.4444  -0.3201  -0.0969
     0.8853   0.9033   0.9270   0.9695   0.9819   0.9872   0.9927   1.2614
     1.2760   1.4179   1.5807   1.6191   1.8388   1.9229   1.9429   5.5022
     5.5220   5.6751   5.8327   5.8711   6.0632   6.1268   6.1300   6.4332
     7.8884   8.3699

          k = 0.0752-0.0528-0.0768 (  8854 PWs)   bands (ev):

   -15.4906 -15.3520 -15.2184 -10.6780 -10.5802 -10.4906 -10.2778 -10.2770
   -10.1931 -10.1922 -10.1186 -10.1180  -9.0306  -9.0295  -8.9606  -8.9581
    -8.8943  -8.8925  -8.6493  -8.5672  -8.4944  -4.9340  -4.4214  -3.9180
    -3.0360  -2.5239  -2.5207  -2.5197  -2.4884  -2.4881  -2.4652  -2.4647
    -2.3646  -2.3357  -2.3137  -1.0908  -0.5128  -0.4444  -0.3186  -0.0966
     0.8856   0.9032   0.9271   0.9695   0.9820   0.9882   0.9928   1.2633
     1.2778   1.4143   1.5783   1.6143   1.8413   1.9235   1.9453   5.5016
     5.5245   5.6732   5.8385   5.8695   6.0622   6.1229   6.1290   6.4377
     7.9529   8.4331

          k = 0.2120 0.2220 0.0803 (  8841 PWs)   bands (ev):

   -14.9922 -14.8576 -14.7283 -12.5443 -12.4288 -12.3202 -11.5955 -11.4878
   -11.3872 -10.2362 -10.1426 -10.0572  -8.2502  -8.1734  -8.1063  -6.9817
    -6.9099  -6.8458  -6.0848  -6.0162  -5.9565  -4.3903  -4.1939  -4.1465
    -4.1071  -3.7798  -3.4380  -3.2397  -3.1981  -3.1666  -2.4457  -2.0972
    -2.0283  -1.9983  -1.9755  -1.7609  -1.2256  -1.0754  -0.7988  -0.7695
    -0.7640  -0.7451  -0.6451  -0.3805  -0.0262   0.0222   0.0418   0.0599
     0.1942   0.5268   0.8376   1.3929   1.5525   1.9844   2.4200   5.5866
     5.8281   6.1243   6.8499   7.1824   7.5641   8.0337   8.3428   8.4625
     8.7263   8.8367

          k = 0.2170 0.2019-0.0613 (  8843 PWs)   bands (ev):

   -14.9922 -14.8576 -14.7283 -12.5443 -12.4288 -12.3202 -11.5955 -11.4878
   -11.3872 -10.2362 -10.1426 -10.0573  -8.2502  -8.1734  -8.1063  -6.9817
    -6.9099  -6.8458  -6.0848  -6.0162  -5.9565  -4.3541  -4.1938  -4.1468
    -4.1070  -3.9446  -3.2398  -3.1994  -3.1675  -3.1493  -2.7236  -2.0284
    -1.9990  -1.9816  -1.9749  -1.7577  -1.1748  -1.0704  -0.8512  -0.7924
    -0.7670  -0.7456  -0.6741  -0.3361  -0.0158   0.0224   0.0426   0.0598
     0.2269   0.5144   0.8054   1.4035   1.5483   1.9893   2.4185   5.5848
     5.8306   6.1237   6.8502   7.1808   7.5660   8.0208   8.3468   8.4356
     8.6430   8.8110

          k = 0.2102 0.3921 0.0940 (  8831 PWs)   bands (ev):

   -14.4143 -14.2843 -14.1600 -12.9483 -12.9440 -12.8306 -12.8242 -12.7165
   -12.7144  -9.1296  -9.0773  -9.0298  -8.3584  -8.3208  -8.3054  -5.7971
    -5.7441  -5.6977  -4.9123  -4.9100  -4.8576  -4.8544  -4.8101  -4.8091
    -3.7940  -3.0109  -2.9717  -2.6372  -2.6361  -2.6010  -2.6001  -2.5735
    -2.5722  -2.4074  -2.0861  -2.0726  -2.0612  -2.0435  -1.7406  -1.6334
    -1.5037  -1.3257  -1.2636  -1.0953  -1.0734  -1.0599  -0.8474  -0.5316
    -0.2392  -0.0592   0.0794   0.2641   2.6924   2.9576   3.3006   4.9674
     5.0689   5.0968   8.4277   8.9978   9.0537   9.1242   9.3030   9.3452
     9.5647   9.6165

          k = 0.2152 0.3720-0.0477 (  8828 PWs)   bands (ev):

   -14.4144 -14.2843 -14.1600 -12.9483 -12.9440 -12.8306 -12.8242 -12.7165
   -12.7143  -9.1296  -9.0773  -9.0298  -8.3584  -8.3208  -8.3054  -5.7970
    -5.7441  -5.6977  -4.9124  -4.9100  -4.8575  -4.8544  -4.8101  -4.8091
    -3.7549  -3.3025  -2.6371  -2.6360  -2.6024  -2.6014  -2.5738  -2.5726
    -2.5085  -2.4050  -2.2546  -2.0857  -2.0611  -2.0436  -1.8559  -1.7297
    -1.4349  -1.2551  -1.2083  -1.0953  -1.0734  -1.0599  -0.7792  -0.5959
    -0.2851  -0.0595   0.1089   0.2669   2.6918   2.9585   3.3002   4.9679
     5.0694   5.0960   8.4362   8.9594   9.0423   9.0919   9.3184   9.3322
     9.4812   9.6145

          k = 0.2084 0.5622 0.1076 (  8815 PWs)   bands (ev):

   -14.0023 -13.8755 -13.7546 -13.5148 -13.3918 -13.2750 -13.0262 -12.9068
   -12.7943  -9.0074  -8.9335  -8.8698  -8.0492  -8.0047  -7.9642  -6.3937
    -6.3559  -6.3241  -4.4355  -4.3962  -4.3656  -3.8829  -3.8392  -3.8019
    -3.4080  -3.0027  -2.9881  -2.9589  -2.9495  -2.9294  -2.8956  -2.8728
    -2.6962  -2.3427  -2.2131  -2.2107  -2.1781  -2.1555  -1.9887  -1.8073
    -1.6945  -1.6856  -1.6575  -1.6445  -1.4083  -1.1781  -0.9072  -0.6937
    -0.5231  -0.2645   0.0876   0.2140   2.9937   3.3191   3.6706   4.5360
     4.7694   4.9739   8.3568   8.8272   9.3377   9.5445   9.7508   9.7849
    10.0778  10.1771

          k = 0.2135 0.5421-0.0340 (  8816 PWs)   bands (ev):

   -14.0023 -13.8755 -13.7547 -13.5148 -13.3918 -13.2750 -13.0262 -12.9068
   -12.7942  -9.0073  -8.9335  -8.8698  -8.0492  -8.0047  -7.9642  -6.3937
    -6.3559  -6.3241  -4.4355  -4.3962  -4.3656  -3.8829  -3.8392  -3.8018
    -3.4212  -3.0037  -2.9746  -2.9575  -2.9346  -2.9225  -2.8968  -2.8722
    -2.6265  -2.3998  -2.3217  -2.2119  -2.1783  -2.1554  -2.0869  -1.7297
    -1.6864  -1.6609  -1.6441  -1.5459  -1.3027  -1.1812  -1.0369  -0.7856
    -0.4343  -0.3271   0.1381   0.2077   2.9948   3.3169   3.6717   4.5356
     4.7713   4.9726   8.3646   8.8555   9.3365   9.5542   9.6889   9.7889
    10.1544  10.1858

          k = 0.2173-0.2882 0.0393 (  8844 PWs)   bands (ev):

   -14.7430 -14.6103 -14.4832 -12.7827 -12.6652 -12.5546 -12.3081 -12.1945
   -12.0879  -9.6363  -9.5573  -9.4891  -8.4191  -8.3560  -8.2985  -5.9476
    -5.8837  -5.8271  -5.4866  -5.4227  -5.3689  -4.9998  -4.9465  -4.9020
    -4.0968  -3.6930  -2.9855  -2.9453  -2.9155  -2.7931  -2.6168  -2.2778
    -2.2710  -2.2364  -2.2133  -1.7058  -1.6499  -1.3835  -1.3600  -1.3380
    -1.2316  -1.0786  -0.6951  -0.4931  -0.4775  -0.4589  -0.4482  -0.1890
     0.0835   0.2478   0.2850   0.7726   2.1563   2.4794   2.8187   5.3075
     5.3981   5.6107   7.9026   8.0943   8.2064   8.3428   8.5798   8.5993
     8.9082   9.2576

          k = 0.2224-0.3083-0.1023 (  8857 PWs)   bands (ev):

   -14.7430 -14.6103 -14.4832 -12.7827 -12.6652 -12.5546 -12.3081 -12.1945
   -12.0879  -9.6363  -9.5573  -9.4891  -8.4191  -8.3560  -8.2985  -5.9476
    -5.8837  -5.8271  -5.4866  -5.4226  -5.3689  -4.9998  -4.9465  -4.9020
    -4.1442  -3.4154  -3.2934  -2.9854  -2.9449  -2.9151  -2.3175  -2.2715
    -2.2394  -2.2135  -2.0868  -1.9595  -1.6324  -1.3835  -1.3619  -1.3380
    -1.3065  -0.9273  -0.6827  -0.4912  -0.4811  -0.4571  -0.4515  -0.2864
     0.0221   0.2988   0.3343   0.7647   2.1581   2.4760   2.8204   5.3065
     5.3985   5.6113   7.9013   8.1757   8.2259   8.3389   8.5783   8.5925
     8.9235   9.2684

          k = 0.2156-0.1181 0.0530 (  8859 PWs)   bands (ev):

   -15.1575 -15.0215 -14.8908 -12.2212 -12.1081 -12.0021 -10.8319 -10.8311
   -10.7315 -10.7302 -10.6384 -10.6380  -7.9631  -7.9622  -7.8858  -7.8840
    -7.8153  -7.8141  -6.6344  -6.5613  -6.4981  -4.5344  -4.1615  -3.4150
    -3.4140  -3.3729  -3.3719  -3.3403  -3.3391  -3.2976  -2.9419  -2.1556
    -2.0365  -2.0084  -1.9868  -1.7805  -1.0185  -0.7600  -0.5111  -0.4255
    -0.3073  -0.2761  -0.2607   0.0778   0.2162   0.3355   0.3546   0.3692
     0.7879   0.9440   0.9689   1.4379   1.4886   1.9375   1.9610   5.9699
     5.9777   6.2788   6.2918   6.6595   6.6658   7.4421   7.8131   7.9073
     8.2765   8.3347

          k = 0.2206-0.1382-0.0887 (  8848 PWs)   bands (ev):

   -15.1574 -15.0215 -14.8908 -12.2212 -12.1080 -12.0021 -10.8319 -10.8311
   -10.7316 -10.7302 -10.6385 -10.6381  -7.9632  -7.9623  -7.8858  -7.8840
    -7.8153  -7.8141  -6.6344  -6.5613  -6.4981  -4.5826  -3.9472  -3.6662
    -3.4149  -3.4139  -3.3723  -3.3718  -3.3397  -3.3391  -2.5959  -2.2870
    -2.0365  -2.0083  -1.9869  -1.8028  -1.0275  -0.7605  -0.4805  -0.4204
    -0.3071  -0.2760  -0.2604   0.0742   0.1912   0.3355   0.3546   0.3692
     0.7995   0.9399   0.9685   1.4398   1.4867   1.9381   1.9630   5.9695
     5.9797   6.2807   6.2912   6.6577   6.6648   7.4565   7.7858   8.0644
     8.2457   8.3222

          k = 0.2138 0.0520 0.0666 (  8857 PWs)   bands (ev):

   -15.2409 -15.1043 -14.9728 -11.8309 -11.7211 -11.6186 -11.3577 -11.2518
   -11.1534 -10.0598  -9.9775  -9.9050  -8.8191  -8.7516  -8.6881  -7.5874
    -7.5091  -7.4408  -7.1478  -7.0722  -7.0052  -4.6434  -4.1818  -3.5511
    -3.4998  -3.4568  -3.4239  -2.8553  -2.7667  -2.7320  -2.7046  -2.2725
    -2.2438  -2.2416  -2.2184  -1.3609  -1.1578  -0.7132  -0.4055  -0.1869
    -0.0323   0.0060   0.0231   0.0399   0.3988   0.4558   0.4764   0.4818
     0.5556   0.9838   1.1456   1.5419   1.5712   1.9006   2.2357   5.4871
     5.7464   5.9773   6.4037   6.7812   6.9214   7.1937   7.2998   7.7451
     8.0553   8.6640

          k = 0.2188 0.0318-0.0750 (  8837 PWs)   bands (ev):

   -15.2409 -15.1043 -14.9729 -11.8309 -11.7210 -11.6186 -11.3577 -11.2517
   -11.1534 -10.0598  -9.9775  -9.9050  -8.8191  -8.7516  -8.6881  -7.5874
    -7.5092  -7.4408  -7.1477  -7.0722  -7.0052  -4.6505  -4.1537  -3.5967
    -3.5001  -3.4567  -3.4240  -2.8137  -2.7667  -2.7320  -2.7046  -2.2725
    -2.2603  -2.2416  -2.2185  -1.3648  -1.1618  -0.6862  -0.3989  -0.2190
    -0.0440   0.0049   0.0223   0.0393   0.3939   0.4556   0.4761   0.4818
     0.5859   0.9938   1.1345   1.5382   1.5701   1.9033   2.2344   5.4856
     5.7439   5.9813   6.4043   6.7760   6.9177   7.2011   7.3107   7.7375
     8.0841   8.6137

          k = 0.3556 0.3067 0.0821 (  8845 PWs)   bands (ev):

   -14.2496 -14.1208 -13.9979 -13.7575 -13.6326 -13.5138 -11.8314 -11.7216
   -11.6189 -10.4496 -10.3516 -10.2616  -7.0527  -6.9999  -6.9583  -5.8323
    -5.7862  -5.7497  -5.4731  -5.4328  -5.4004  -4.2911  -4.2549  -4.2278
    -3.8823  -3.8292  -3.7853  -3.6636  -3.0626  -2.8319  -2.7855  -2.7425
    -2.7080  -2.6289  -2.4066  -1.8734  -1.6433  -1.4170  -1.3334  -1.3060
    -1.2881  -1.2842  -1.2102  -0.9058  -0.8794  -0.8594  -0.7359  -0.5492
    -0.2220  -0.0039   0.6659   1.2483   1.4862   2.0144   2.5615   5.8418
     6.0847   6.3483   7.4951   7.7298   7.9796   8.3101   9.0964   9.6048
    10.2880  10.4638

          k = 0.3606 0.2865-0.0596 (  8842 PWs)   bands (ev):

   -14.2496 -14.1208 -13.9979 -13.7575 -13.6325 -13.5138 -11.8314 -11.7216
   -11.6190 -10.4496 -10.3516 -10.2616  -7.0527  -6.9999  -6.9583  -5.8324
    -5.7861  -5.7497  -5.4730  -5.4328  -5.4004  -4.2911  -4.2549  -4.2278
    -3.8821  -3.8293  -3.7852  -3.6426  -3.1301  -2.9282  -2.7874  -2.7431
    -2.7069  -2.4090  -2.2676  -2.0208  -1.8751  -1.3862  -1.3333  -1.3059
    -1.2845  -1.1992  -1.1137  -0.9056  -0.8797  -0.8593  -0.7897  -0.5466
    -0.2497   0.0526   0.6239   1.2626   1.4814   2.0204   2.5596   5.8418
     6.0845   6.3485   7.4953   7.7291   7.9803   8.3153   9.0336   9.5893
    10.2505  10.4863

          k = 0.3538 0.4767 0.0957 (  8811 PWs)   bands (ev):

   -14.0024 -13.8755 -13.7547 -13.5148 -13.3918 -13.2751 -13.0261 -12.9068
   -12.7942  -9.0073  -8.9337  -8.8694  -8.0488  -8.0039  -7.9649  -6.3943
    -6.3553  -6.3248  -4.4354  -4.3958  -4.3665  -3.8834  -3.8388  -3.8021
    -3.4187  -3.0029  -2.9768  -2.9528  -2.9301  -2.8985  -2.8909  -2.8702
    -2.6374  -2.3872  -2.3132  -2.2112  -2.1788  -2.1552  -1.9704  -1.8980
    -1.6860  -1.6659  -1.6445  -1.6269  -1.3500  -1.1618  -0.9083  -0.6757
    -0.5539  -0.3035   0.0785   0.2009   2.9913   3.3219   3.6724   4.5396
     4.7682   4.9720   8.3414   9.0298   9.3391   9.5516   9.6567   9.7810
    10.1427  10.2428

          k = 0.3588 0.4566-0.0459 (  8817 PWs)   bands (ev):

   -14.0024 -13.8755 -13.7547 -13.5148 -13.3918 -13.2751 -13.0261 -12.9068
   -12.7941  -9.0073  -8.9337  -8.8694  -8.0488  -8.0039  -7.9649  -6.3944
    -6.3554  -6.3248  -4.4354  -4.3958  -4.3665  -3.8835  -3.8386  -3.8023
    -3.4038  -3.0037  -2.9744  -2.9564  -2.9356  -2.9151  -2.8952  -2.8719
    -2.6711  -2.4100  -2.2117  -2.1866  -2.1771  -2.1556  -2.1042  -1.7918
    -1.6855  -1.6638  -1.6443  -1.5338  -1.3528  -1.2357  -1.0442  -0.7283
    -0.3963  -0.3087   0.0879   0.1816   2.9924   3.3195   3.6736   4.5399
     4.7684   4.9717   8.3579   8.9864   9.3399   9.5526   9.6058   9.7796
    10.1418  10.1772

          k = 0.3520 0.6468 0.1094 (  8838 PWs)   bands (ev):

   -13.9220 -13.9174 -13.7969 -13.7900 -13.6744 -13.6721 -12.4688 -12.3540
   -12.2460  -9.7318  -9.6418  -9.5605  -7.4733  -7.4274  -7.3899  -6.0853
    -6.0489  -6.0279  -5.0560  -5.0203  -4.9923  -3.7338  -3.7024  -3.6847
    -3.4284  -3.3346  -3.3330  -3.2878  -3.2863  -3.2516  -3.2502  -3.1515
    -2.7812  -2.4875  -2.4128  -2.0615  -1.7075  -1.5638  -1.4864  -1.4848
    -1.4580  -1.4567  -1.4363  -1.4358  -1.1672  -0.9822  -0.9004  -0.7212
    -0.4281   0.0617   0.2450   0.6497   2.2563   2.7150   3.1913   5.0888
     5.3670   5.6548   8.1039   8.4104   8.6278   8.7663   8.9154   9.1608
    10.1402  10.3499

          k = 0.3571 0.6267-0.0322 (  8839 PWs)   bands (ev):

   -13.9220 -13.9174 -13.7969 -13.7900 -13.6745 -13.6721 -12.4688 -12.3540
   -12.2460  -9.7318  -9.6418  -9.5605  -7.4733  -7.4274  -7.3899  -6.0853
    -6.0489  -6.0279  -5.0560  -5.0203  -4.9923  -3.7338  -3.7024  -3.6847
    -3.4242  -3.3344  -3.3331  -3.2888  -3.2863  -3.2511  -3.2502  -3.1500
    -2.7923  -2.5513  -2.3571  -1.9917  -1.7235  -1.5898  -1.4860  -1.4851
    -1.4589  -1.4567  -1.4362  -1.4359  -1.2445  -0.9711  -0.9072  -0.6309
    -0.3865  -0.0896   0.3323   0.6420   2.2561   2.7159   3.1907   5.0884
     5.3675   5.6546   8.1093   8.4141   8.6170   8.7745   8.9187   9.1162
    10.1511  10.4306

          k = 0.3609-0.2036 0.0411 (  8835 PWs)   bands (ev):

   -14.4948 -14.3641 -14.2391 -13.5107 -13.3876 -13.2709 -11.1374 -11.1366
   -11.0338 -11.0323 -10.9369 -10.9364  -6.7077  -6.7070  -6.6465  -6.6452
    -6.5932  -6.5922  -4.6710  -4.6701  -4.6237  -4.6225  -4.5864  -4.5855
    -4.4350  -4.3769  -4.3287  -3.8552  -3.4121  -2.8818  -2.5460  -2.4387
    -2.2369  -2.1961  -2.1619  -2.0204  -1.8023  -1.4104  -1.3841  -1.3659
    -1.3629  -0.9403  -0.9022  -0.5661  -0.5517  -0.5358  -0.5210  -0.4390
     0.1471   0.7300   0.7501   1.2988   1.3500   1.8939   1.9179   6.5401
     6.5475   6.8046   6.8137   7.1134   7.1197   7.9842   8.3347   9.1867
     9.8814   9.9389

          k = 0.3660-0.2237-0.1006 (  8854 PWs)   bands (ev):

   -14.4948 -14.3641 -14.2391 -13.5107 -13.3876 -13.2709 -11.1374 -11.1366
   -11.0338 -11.0323 -10.9369 -10.9364  -6.7077  -6.7069  -6.6466  -6.6452
    -6.5932  -6.5922  -4.6710  -4.6701  -4.6238  -4.6225  -4.5863  -4.5855
    -4.4350  -4.3768  -4.3287  -3.8955  -3.1316  -3.0617  -2.8604  -2.2760
    -2.2354  -2.1906  -2.1608  -1.8688  -1.7355  -1.4166  -1.4102  -1.3837
    -1.3635  -1.0660  -0.9285  -0.5654  -0.5473  -0.5308  -0.5204  -0.3833
     0.1503   0.7233   0.7478   1.3048   1.3510   1.8923   1.9181   6.5402
     6.5467   6.8051   6.8154   7.1130   7.1187   7.9776   8.4409   9.1564
     9.8851   9.8986

          k = 0.3592-0.0335 0.0547 (  8848 PWs)   bands (ev):

   -14.7430 -14.6103 -14.4832 -12.7827 -12.6652 -12.5545 -12.3081 -12.1945
   -12.0879  -9.6364  -9.5577  -9.4888  -8.4183  -8.3561  -8.2978  -5.9482
    -5.8835  -5.8276  -5.4867  -5.4227  -5.3690  -5.0006  -4.9465  -4.9026
    -4.1008  -3.6604  -2.9846  -2.9456  -2.9152  -2.8963  -2.4961  -2.2803
    -2.2695  -2.2371  -2.2131  -1.7471  -1.6468  -1.3836  -1.3604  -1.3368
    -1.2643  -1.0284  -0.7017  -0.4879  -0.4705  -0.4559  -0.3578  -0.2688
    -0.0383   0.2489   0.3127   0.7772   2.1541   2.4887   2.8229   5.3029
     5.3920   5.6105   7.8991   8.1186   8.2591   8.3605   8.5864   8.5996
     8.9069   9.2581

          k = 0.3642-0.0536-0.0869 (  8830 PWs)   bands (ev):

   -14.7430 -14.6103 -14.4832 -12.7826 -12.6652 -12.5545 -12.3081 -12.1945
   -12.0879  -9.6364  -9.5577  -9.4888  -8.4183  -8.3561  -8.2978  -5.9482
    -5.8835  -5.8276  -5.4866  -5.4227  -5.3690  -5.0006  -4.9465  -4.9026
    -4.1332  -3.4979  -3.1798  -2.9845  -2.9453  -2.9148  -2.3496  -2.2718
    -2.2404  -2.2136  -2.1446  -1.8699  -1.6601  -1.3837  -1.3618  -1.3366
    -1.2617  -0.9935  -0.6138  -0.5551  -0.4872  -0.4705  -0.4553  -0.2839
     0.1249   0.1996   0.3126   0.7625   2.1568   2.4830   2.8258   5.3026
     5.3931   5.6098   7.8947   8.1752   8.2279   8.4112   8.5797   8.6042
     8.9207   9.2626

          k = 0.3574 0.1366 0.0684 (  8853 PWs)   bands (ev):

   -14.6609 -14.5289 -14.4025 -13.1892 -13.0687 -12.9546 -11.7510 -11.6418
   -11.5398 -10.3787 -10.2821 -10.1936  -7.6191  -7.5491  -7.4870  -6.3494
    -6.2844  -6.2300  -4.9869  -4.9259  -4.8920  -4.8738  -4.8403  -4.7983
    -4.0316  -3.8178  -3.7749  -3.7394  -3.4853  -2.9779  -2.4326  -2.1426
    -1.8778  -1.7457  -1.7147  -1.7091  -1.6905  -1.6853  -1.6742  -1.6633
    -1.3731  -1.1026  -0.8991  -0.5276  -0.4410  -0.4188  -0.3993  -0.1998
    -0.0623   0.1053   0.6921   1.3156   1.5093   2.0085   2.5015   5.7456
     5.9728   6.2659   7.2427   7.5308   7.8408   8.3888   8.5971   9.2416
     9.5013   9.7459

          k = 0.3624 0.1165-0.0732 (  8839 PWs)   bands (ev):

   -14.6609 -14.5289 -14.4025 -13.1892 -13.0686 -12.9546 -11.7510 -11.6417
   -11.5398 -10.3787 -10.2821 -10.1936  -7.6191  -7.5491  -7.4870  -6.3494
    -6.2844  -6.2300  -4.9868  -4.9259  -4.8920  -4.8738  -4.8403  -4.7983
    -4.0281  -3.8179  -3.7750  -3.7395  -3.5026  -2.9470  -2.4620  -2.1597
    -1.7481  -1.7270  -1.7145  -1.7071  -1.6857  -1.6813  -1.6653  -1.6622
    -1.5487  -1.2407  -0.6112  -0.5203  -0.4413  -0.4183  -0.3996  -0.3281
    -0.0493   0.0786   0.7228   1.3049   1.5109   2.0077   2.5009   5.7471
     5.9691   6.2682   7.2447   7.5253   7.8457   8.3987   8.5654   9.2141
     9.5494   9.7216

     the Fermi energy is     4.1049 ev

!    total energy              =    -303.17203391 Ry
     estimated scf accuracy    <       0.00000093 Ry
     smearing contrib. (-TS)   =      -0.00000005 Ry
     internal energy E=F+TS    =    -303.17203386 Ry

     The total energy is F=E-TS. E is the sum of the following terms:
     one-electron contribution =    -566.00180999 Ry
     hartree contribution      =     326.59048190 Ry
     xc contribution           =    -108.87074848 Ry
     ewald contribution        =      45.11004271 Ry

     convergence has been achieved in  51 iterations

     Forces acting on atoms (cartesian axes, Ry/au):

     atom    1 type  1   force =    -0.00027333    0.00066110    0.00108402
     atom    2 type  1   force =     0.00018007   -0.00023252   -0.00325147
     atom    3 type  1   force =     0.00023774    0.00000133    0.00089423
     atom    4 type  1   force =     0.00014701   -0.00004537    0.00088130
     atom    5 type  1   force =     0.00011436   -0.00012291   -0.00231130
     atom    6 type  1   force =     0.00011211    0.00004099   -0.00249445
     atom    7 type  1   force =    -0.00016467    0.00025449   -0.00072036
     atom    8 type  1   force =    -0.00007704    0.00012024    0.00020117
     atom    9 type  1   force =     0.00016945    0.00007240    0.00225799
     atom   10 type  1   force =     0.00024779   -0.00048566   -0.00091275
     atom   11 type  1   force =    -0.00009967    0.00007343   -0.00117061
     atom   12 type  1   force =    -0.00009170    0.00042071    0.00095785
     atom   13 type  1   force =    -0.00007488    0.00055180    0.00113121
     atom   14 type  1   force =    -0.00060628    0.00047988    0.00322396
     atom   15 type  1   force =     0.00000956   -0.00021188   -0.00054415
     atom   16 type  1   force =    -0.00005240   -0.00005459    0.00145563
     atom   17 type  1   force =    -0.00068071    0.00083737    0.00509714
     atom   18 type  1   force =    -0.00006390    0.00056857    0.00168444
     atom   19 type  1   force =     0.00002082    0.00021956   -0.00142543
     atom   20 type  1   force =    -0.00024106    0.00023439    0.00011873
     atom   21 type  1   force =     0.00013797   -0.00064473   -0.00237356
     atom   22 type  1   force =     0.00006507   -0.00036928   -0.00107083
     atom   23 type  1   force =    -0.00032987   -0.00007981   -0.00115725
     atom   24 type  1   force =     0.00020679    0.00020140   -0.00022321
     atom   25 type  2   force =     0.00137537   -0.00086332    0.00433261
     atom   26 type  2   force =    -0.00082971    0.00029423   -0.00322707
     atom   27 type  2   force =    -0.00026775   -0.00101949   -0.00054308
     atom   28 type  2   force =    -0.00039449   -0.00011416   -0.00078878
     atom   29 type  2   force =     0.00061938   -0.00003128   -0.00060085
     atom   30 type  2   force =     0.00029386    0.00029671   -0.00069668
     atom   31 type  2   force =     0.00042584    0.00000392    0.00019865
     atom   32 type  2   force =    -0.00043374   -0.00042926   -0.00006813
     atom   33 type  2   force =     0.00132917    0.00501961    0.00033462
     atom   34 type  2   force =    -0.00034374   -0.00402629   -0.00019354
     atom   35 type  2   force =    -0.00333352   -0.00047983    0.00021178
     atom   36 type  2   force =     0.00304257   -0.00057996    0.00017673
     atom   37 type  2   force =     0.00227452    0.00235200    0.00018532
     atom   38 type  2   force =    -0.00265097   -0.00291378   -0.00065386
     The non-local contrib.  to forces
     atom    1 type  1   force =    -0.00149976    0.00132756    0.00054911
     atom    2 type  1   force =     0.00127336   -0.00003449    0.00153827
     atom    3 type  1   force =    -0.00116278    0.00255303    0.00110835
     atom    4 type  1   force =     0.00153849   -0.00082724    0.00034615
     atom    5 type  1   force =     0.00127123   -0.00037580    0.00167658
     atom    6 type  1   force =     0.00056628   -0.00147993   -0.00135395
     atom    7 type  1   force =    -0.00155346    0.00102540    0.00017446
     atom    8 type  1   force =     0.00125464    0.00126013    0.00124037
     atom    9 type  1   force =    -0.00008366    0.00249315    0.00100486
     atom   10 type  1   force =     0.00146492   -0.00103217    0.00004544
     atom   11 type  1   force =    -0.00312178   -0.00265436   -0.00144561
     atom   12 type  1   force =     0.00103547   -0.00128907    0.00072618
     atom   13 type  1   force =    -0.00120976    0.00108760   -0.00002792
     atom   14 type  1   force =    -0.00094680   -0.00161939   -0.00453960
     atom   15 type  1   force =    -0.00126299   -0.00215688    0.00136422
     atom   16 type  1   force =     0.00098636   -0.00098980    0.00051246
     atom   17 type  1   force =    -0.00022144    0.00343529   -0.00213193
     atom   18 type  1   force =     0.00070902    0.00171410    0.00283443
     atom   19 type  1   force =    -0.00115611    0.00103185   -0.00018220
     atom   20 type  1   force =     0.00180522   -0.00100651    0.00036788
     atom   21 type  1   force =    -0.00070638   -0.00184346    0.00158658
     atom   22 type  1   force =     0.00133981   -0.00102248    0.00026941
     atom   23 type  1   force =    -0.00239559    0.00147079   -0.00002857
     atom   24 type  1   force =     0.00104447    0.00190761    0.00249949
     atom   25 type  2   force =     0.02044552   -0.00799839    0.05857194
     atom   26 type  2   force =    -0.02011924    0.00788595   -0.05877347
     atom   27 type  2   force =     0.01087711   -0.06157578    0.00918788
     atom   28 type  2   force =    -0.01064673    0.06159225   -0.00892250
     atom   29 type  2   force =     0.06030588   -0.01733205    0.00191249
     atom   30 type  2   force =    -0.06050870    0.01695943   -0.00209971
     atom   31 type  2   force =     0.04529411    0.04268633    0.00959121
     atom   32 type  2   force =    -0.04504800   -0.04261305   -0.00938165
     atom   33 type  2   force =     0.00698032    0.06212438   -0.00336815
     atom   34 type  2   force =    -0.00719103   -0.06200544    0.00368796
     atom   35 type  2   force =    -0.06236168    0.00679683   -0.00097046
     atom   36 type  2   force =     0.06233370   -0.00619954    0.00141088
     atom   37 type  2   force =     0.04196408    0.04593440    0.00573526
     atom   38 type  2   force =    -0.04242078   -0.04602600   -0.00563948
     The ionic contribution  to forces
     atom    1 type  1   force =    -0.00628708    0.01330344    0.06180498
     atom    2 type  1   force =    -0.32913884    1.46770205   10.52919829
     atom    3 type  1   force =     0.32433537   -1.42274742  -10.37345567
     atom    4 type  1   force =     0.00749072   -0.00124201    0.05235795
     atom    5 type  1   force =    -0.40093011    1.50654221   10.50251215
     atom    6 type  1   force =     0.32361364   -1.54493210  -10.23571453
     atom    7 type  1   force =    -0.01205817    0.02224072    0.09766996
     atom    8 type  1   force =    -0.40346947    1.46910597   10.23916901
     atom    9 type  1   force =     0.39951682   -1.37312678  -10.31344887
     atom   10 type  1   force =    -0.00003752    0.01084685    0.09401982
     atom   11 type  1   force =    -0.34683671    1.46910808   10.29168318
     atom   12 type  1   force =     0.41895717   -1.51078397  -10.35507383
     atom   13 type  1   force =    -0.01114749    0.01009609    0.04290468
     atom   14 type  1   force =    -0.39440047    1.47518991   10.21451948
     atom   15 type  1   force =     0.32524759   -1.54428273  -10.24837287
     atom   16 type  1   force =     0.00084739    0.00412178    0.03810862
     atom   17 type  1   force =    -0.35544719    1.42769527   10.17159398
     atom   18 type  1   force =     0.32421615   -1.42134096  -10.25423735
     atom   19 type  1   force =    -0.00857795    0.01758378    0.11489013
     atom   20 type  1   force =    -0.32917338    1.46305245   10.44876424
     atom   21 type  1   force =     0.38990691   -1.48146547  -10.13033969
     atom   22 type  1   force =     0.00815965    0.01028291    0.10570431
     atom   23 type  1   force =    -0.38655226    1.49666546   10.48513358
     atom   24 type  1   force =     0.40983794   -1.36521525  -10.23487732
     atom   25 type  2   force =    -0.36793216    0.46661522    1.76768026
     atom   26 type  2   force =     0.22166394    0.11113681    2.26087343
     atom   27 type  2   force =    -0.00804224    0.48933190   -2.67026456
     atom   28 type  2   force =     0.18126929   -1.20244130   -2.41704697
     atom   29 type  2   force =    -0.67944528   -0.01154533   -2.10090694
     atom   30 type  2   force =     0.85233878   -0.56955657   -1.98801729
     atom   31 type  2   force =    -0.59273908   -0.76111485   -1.72308948
     atom   32 type  2   force =     0.69283486    0.25347912   -1.72238010
     atom   33 type  2   force =    -0.13994637   -0.50863878    2.01818342
     atom   34 type  2   force =     0.00422192    1.05720001    1.83237148
     atom   35 type  2   force =     0.77069506    0.05916133    0.89140719
     atom   36 type  2   force =    -0.79632594    0.22237041    0.80766537
     atom   37 type  2   force =    -0.57932427   -0.46338982    0.88334104
     atom   38 type  2   force =     0.49265880    0.65899155    0.81566893
     The local contribution  to forces
     atom    1 type  1   force =     0.00743794   -0.01393705   -0.06142679
     atom    2 type  1   force =     0.32807966   -1.46786017  -10.53345005
     atom    3 type  1   force =    -0.32298895    1.42027161   10.37326065
     atom    4 type  1   force =    -0.00880259    0.00193988   -0.05203259
     atom    5 type  1   force =     0.39974652   -1.50621879  -10.50600389
     atom    6 type  1   force =    -0.32402428    1.54643143   10.23473769
     atom    7 type  1   force =     0.01338261   -0.02297031   -0.09863099
     atom    8 type  1   force =     0.40220234   -1.47022465  -10.24012952
     atom    9 type  1   force =    -0.39929949    1.37076188   10.31476067
     atom   10 type  1   force =    -0.00110076   -0.01037492   -0.09509761
     atom   11 type  1   force =     0.34973780   -1.46639650  -10.29122615
     atom   12 type  1   force =    -0.42002448    1.51245840   10.35529236
     atom   13 type  1   force =     0.01221971   -0.01061150   -0.04192586
     atom   14 type  1   force =     0.39476309   -1.47313906  -10.20685861
     atom   15 type  1   force =    -0.32403657    1.54621525   10.24665047
     atom   16 type  1   force =    -0.00180334   -0.00326750   -0.03740134
     atom   17 type  1   force =     0.35495986   -1.43021383  -10.16450661
     atom   18 type  1   force =    -0.32493754    1.42022151   10.25317597
     atom   19 type  1   force =     0.00967947   -0.01834896   -0.11617503
     atom   20 type  1   force =     0.32720248   -1.46180000  -10.44867774
     atom   21 type  1   force =    -0.38912680    1.48268074   10.12670797
     atom   22 type  1   force =    -0.00936031   -0.00968930   -0.10714558
     atom   23 type  1   force =     0.38851937   -1.49811137  -10.48585396
     atom   24 type  1   force =    -0.41064907    1.36355980   10.23237102
     atom   25 type  2   force =     0.34885543   -0.45947186   -1.82188720
     atom   26 type  2   force =    -0.20236266   -0.11873707   -2.20533041
     atom   27 type  2   force =    -0.00309874   -0.42873858    2.66049528
     atom   28 type  2   force =    -0.17101740    1.14069174    2.42515395
     atom   29 type  2   force =     0.61973397    0.02885427    2.09833275
     atom   30 type  2   force =    -0.79150551    0.55286511    1.98936130
     atom   31 type  2   force =     0.54784482    0.71840919    1.71361390
     atom   32 type  2   force =    -0.64819084   -0.21129175    1.73163394
     atom   33 type  2   force =     0.13429424    0.45152076   -2.01446718
     atom   34 type  2   force =     0.00262410   -0.99920340   -1.83624754
     atom   35 type  2   force =    -0.71165187   -0.06643473   -0.89027445
     atom   36 type  2   force =     0.73703019   -0.21675231   -0.80895255
     atom   37 type  2   force =     0.53962148    0.41978191   -0.88893331
     atom   38 type  2   force =    -0.45288281   -0.61588084   -0.81074365
     The core correction contribution to forces
     atom    1 type  1   force =     0.00007336   -0.00004979    0.00001279
     atom    2 type  1   force =    -0.00004763   -0.00000163   -0.00030210
     atom    3 type  1   force =     0.00004521   -0.00006333    0.00009297
     atom    4 type  1   force =    -0.00007706    0.00005907    0.00006878
     atom    5 type  1   force =     0.00002079   -0.00004197   -0.00025051
     atom    6 type  1   force =    -0.00004822    0.00004639   -0.00004789
     atom    7 type  1   force =     0.00007661   -0.00006140   -0.00007629
     atom    8 type  1   force =    -0.00006884    0.00001250    0.00014570
     atom    9 type  1   force =     0.00003145   -0.00004756    0.00006173
     atom   10 type  1   force =    -0.00007294    0.00004663   -0.00002158
     atom   11 type  1   force =     0.00011013    0.00004234    0.00003818
     atom   12 type  1   force =    -0.00006104    0.00005692    0.00012539
     atom   13 type  1   force =     0.00007012   -0.00004547    0.00003748
     atom   14 type  1   force =    -0.00003022    0.00007608    0.00032027
     atom   15 type  1   force =     0.00005968    0.00003491   -0.00006438
     atom   16 type  1   force =    -0.00007449    0.00006564    0.00009461
     atom   17 type  1   force =     0.00002096   -0.00004282    0.00035071
     atom   18 type  1   force =    -0.00005087   -0.00001327    0.00005660
     atom   19 type  1   force =     0.00007817   -0.00006447   -0.00010254
     atom   20 type  1   force =    -0.00008576    0.00002439   -0.00010292
     atom   21 type  1   force =     0.00005425    0.00001074   -0.00018814
     atom   22 type  1   force =    -0.00007354    0.00004582   -0.00004143
     atom   23 type  1   force =     0.00009107   -0.00006985   -0.00017192
     atom   24 type  1   force =    -0.00003224   -0.00003853   -0.00008996
     atom   25 type  2   force =     0.00000000    0.00000000    0.00000000
     atom   26 type  2   force =     0.00000000    0.00000000    0.00000000
     atom   27 type  2   force =     0.00000000    0.00000000    0.00000000
     atom   28 type  2   force =     0.00000000    0.00000000    0.00000000
     atom   29 type  2   force =     0.00000000    0.00000000    0.00000000
     atom   30 type  2   force =     0.00000000    0.00000000    0.00000000
     atom   31 type  2   force =     0.00000000    0.00000000    0.00000000
     atom   32 type  2   force =     0.00000000    0.00000000    0.00000000
     atom   33 type  2   force =     0.00000000    0.00000000    0.00000000
     atom   34 type  2   force =     0.00000000    0.00000000    0.00000000
     atom   35 type  2   force =     0.00000000    0.00000000    0.00000000
     atom   36 type  2   force =     0.00000000    0.00000000    0.00000000
     atom   37 type  2   force =     0.00000000    0.00000000    0.00000000
     atom   38 type  2   force =     0.00000000    0.00000000    0.00000000
     The Hubbard contrib.    to forces
     atom    1 type  1   force =     0.00000000    0.00000000    0.00000000
     atom    2 type  1   force =     0.00000000    0.00000000    0.00000000
     atom    3 type  1   force =     0.00000000    0.00000000    0.00000000
     atom    4 type  1   force =     0.00000000    0.00000000    0.00000000
     atom    5 type  1   force =     0.00000000    0.00000000    0.00000000
     atom    6 type  1   force =     0.00000000    0.00000000    0.00000000
     atom    7 type  1   force =     0.00000000    0.00000000    0.00000000
     atom    8 type  1   force =     0.00000000    0.00000000    0.00000000
     atom    9 type  1   force =     0.00000000    0.00000000    0.00000000
     atom   10 type  1   force =     0.00000000    0.00000000    0.00000000
     atom   11 type  1   force =     0.00000000    0.00000000    0.00000000
     atom   12 type  1   force =     0.00000000    0.00000000    0.00000000
     atom   13 type  1   force =     0.00000000    0.00000000    0.00000000
     atom   14 type  1   force =     0.00000000    0.00000000    0.00000000
     atom   15 type  1   force =     0.00000000    0.00000000    0.00000000
     atom   16 type  1   force =     0.00000000    0.00000000    0.00000000
     atom   17 type  1   force =     0.00000000    0.00000000    0.00000000
     atom   18 type  1   force =     0.00000000    0.00000000    0.00000000
     atom   19 type  1   force =     0.00000000    0.00000000    0.00000000
     atom   20 type  1   force =     0.00000000    0.00000000    0.00000000
     atom   21 type  1   force =     0.00000000    0.00000000    0.00000000
     atom   22 type  1   force =     0.00000000    0.00000000    0.00000000
     atom   23 type  1   force =     0.00000000    0.00000000    0.00000000
     atom   24 type  1   force =     0.00000000    0.00000000    0.00000000
     atom   25 type  2   force =     0.00000000    0.00000000    0.00000000
     atom   26 type  2   force =     0.00000000    0.00000000    0.00000000
     atom   27 type  2   force =     0.00000000    0.00000000    0.00000000
     atom   28 type  2   force =     0.00000000    0.00000000    0.00000000
     atom   29 type  2   force =     0.00000000    0.00000000    0.00000000
     atom   30 type  2   force =     0.00000000    0.00000000    0.00000000
     atom   31 type  2   force =     0.00000000    0.00000000    0.00000000
     atom   32 type  2   force =     0.00000000    0.00000000    0.00000000
     atom   33 type  2   force =     0.00000000    0.00000000    0.00000000
     atom   34 type  2   force =     0.00000000    0.00000000    0.00000000
     atom   35 type  2   force =     0.00000000    0.00000000    0.00000000
     atom   36 type  2   force =     0.00000000    0.00000000    0.00000000
     atom   37 type  2   force =     0.00000000    0.00000000    0.00000000
     atom   38 type  2   force =     0.00000000    0.00000000    0.00000000
     The SCF correction term to forces
     atom    1 type  1   force =     0.00000193    0.00001701    0.00014422
     atom    2 type  1   force =     0.00001324   -0.00003823   -0.00023560
     atom    3 type  1   force =     0.00000862   -0.00001250   -0.00011179
     atom    4 type  1   force =    -0.00000283    0.00002500    0.00014131
     atom    5 type  1   force =     0.00000564   -0.00002850   -0.00024535
     atom    6 type  1   force =     0.00000441   -0.00002473   -0.00011548
     atom    7 type  1   force =    -0.00001254    0.00002015    0.00014278
     atom    8 type  1   force =     0.00000401   -0.00003365   -0.00022410
     atom    9 type  1   force =     0.00000404   -0.00000822   -0.00012010
     atom   10 type  1   force =    -0.00000619    0.00002801    0.00014147
     atom   11 type  1   force =     0.00001062   -0.00002607   -0.00021992
     atom   12 type  1   force =     0.00000090   -0.00002150   -0.00011197
     atom   13 type  1   force =    -0.00000774    0.00002516    0.00014312
     atom   14 type  1   force =     0.00000784   -0.00002760   -0.00021729
     atom   15 type  1   force =     0.00000157   -0.00002236   -0.00012130
     atom   16 type  1   force =    -0.00000862    0.00001535    0.00014156
     atom   17 type  1   force =     0.00000682   -0.00003647   -0.00020873
     atom   18 type  1   force =    -0.00000094   -0.00001274   -0.00014493
     atom   19 type  1   force =    -0.00000305    0.00001741    0.00014449
     atom   20 type  1   force =     0.00001010   -0.00003586   -0.00023244
     atom   21 type  1   force =     0.00000971   -0.00002721   -0.00013998
     atom   22 type  1   force =    -0.00000083    0.00001384    0.00014275
     atom   23 type  1   force =     0.00000726   -0.00003477   -0.00023609
     atom   24 type  1   force =     0.00000542   -0.00001216   -0.00012615
     atom   25 type  2   force =     0.00000629   -0.00000823   -0.00003210
     atom   26 type  2   force =    -0.00001203    0.00000860    0.00000366
     atom   27 type  2   force =    -0.00000416   -0.00003696    0.00003860
     atom   28 type  2   force =     0.00000006    0.00004321    0.00002703
     atom   29 type  2   force =     0.00002454   -0.00000810    0.00006114
     atom   30 type  2   force =    -0.00003099    0.00002882    0.00005930
     atom   31 type  2   force =     0.00002571    0.00002332    0.00008330
     atom   32 type  2   force =    -0.00003005   -0.00000352    0.00005997
     atom   33 type  2   force =     0.00000070    0.00001331   -0.00001318
     atom   34 type  2   force =     0.00000099   -0.00001739   -0.00000516
     atom   35 type  2   force =    -0.00001530   -0.00000319    0.00004978
     atom   36 type  2   force =     0.00000433    0.00000155    0.00005332
     atom   37 type  2   force =     0.00001295    0.00002558    0.00004263
     atom   38 type  2   force =    -0.00000645    0.00000158    0.00006062

     Total force =     0.014815     Total SCF correction =     0.000872


     Computing stress (Cartesian axis) and pressure

          total   stress  (Ry/bohr**3)                   (kbar)     P=        0.01
  -0.00000226  -0.00000011   0.00000396           -0.33       -0.02        0.58
  -0.00000011  -0.00000400  -0.00000085           -0.02       -0.59       -0.13
   0.00000396  -0.00000085   0.00000656            0.58       -0.13        0.96


     BFGS Geometry Optimization
     Energy error            =      0.0E+00 Ry
     Gradient error          =      5.1E-03 Ry/Bohr
     Cell gradient error     =      9.6E-01 kbar

     number of scf cycles    =   1
     number of bfgs steps    =   0

     enthalpy           new  =    -303.1720339142 Ry

     new trust radius        =       0.0052101221 bohr
     new conv_thr            =       0.0000010000 Ry

     new unit-cell volume =   2069.34509 a.u.^3 (   306.64531 Ang^3 )
     density =      1.63741 g/cm^3

CELL_PARAMETERS (alat=  8.00000437)
   1.154838234   0.008906894   0.039824798
  -0.579504452   0.986671580  -0.160814068
   0.124842307  -0.286020511   3.576146374

ATOMIC_POSITIONS (crystal)
C            -0.0515164694       -0.1007447120        0.1581088004
C            -0.0111876674        0.0856483798        0.3802551385
C             0.0818042233        0.0659471015        0.9371521464
C             0.1150933108        0.2324926136        0.1580450458
C             0.3220854500        0.2522337148        0.3801133296
C             0.2486389999        0.3996423113        0.9374655508
C             0.4485464667       -0.1005254797        0.1583506603
C             0.4886143990        0.0847874670        0.3791959223
C             0.5817774333        0.0659201603        0.9370663843
C             0.6151525327        0.2327074134        0.1582885469
C             0.8221247439        0.2517977925        0.3794144676
C             0.7485300705        0.3993308044        0.9370819882
C            -0.0515440785        0.3992293941        0.1580595312
C            -0.0113321234        0.5845445407        0.3788250488
C             0.0819003986        0.5662061811        0.9373225035
C             0.1151383948        0.7324536970        0.1579707951
C             0.3218824583        0.7510362248        0.3786820594
C             0.2484675725        0.8992487616        0.9370608926
C             0.4485046937        0.3995171591        0.1584266175
C             0.4887614255        0.5852132803        0.3796787638
C             0.5819775708        0.5664540384        0.9376392972
C             0.6151808210        0.7327368011        0.1583324064
C             0.8221491472        0.7519694016        0.3798688162
C             0.7486024859        0.8995456522        0.9374170223
H             0.6006640681        1.2096789890        0.5438820663
H             0.6415535663        1.1993444750        0.5906681977
H             0.4361748989        0.7108155957        0.7704540590
H             0.3731501150        0.5312596458        0.7703753789
H             0.8249888216        0.6085933775        0.7496184822
H             0.9513847063        0.5565921526        0.7475171347
H             0.2928279691        0.0185884391        0.7297703876
H             0.4691317232        0.1461272283        0.7412138908
H             0.0671796049        0.6080682904        0.5675950076
H             0.1768216952        0.7913140095        0.5717592056
H             0.7163580375        0.7429572464        0.6183196736
H             0.5694713032        0.7633946058        0.6199241682
H             0.0514955906        0.1820694306        0.6145429347
H             0.2249573222        0.3184998122        0.6233088372



     Writing config-only to output data dir ../../results/server/7h2_abs/7H2abs_C.save/
     NEW-OLD atomic charge density approx. for the potential

     Check: negative core charge=   -0.000002
     extrapolated charge  110.00082, renormalised to  110.00000

     total cpu time spent up to now is       62.8 secs

     Self-consistent Calculation

     iteration #  1     ecut=    40.00 Ry     beta= 0.05
     Davidson diagonalization with overlap
     ethr =  1.00E-06,  avg # of iterations =  2.0

     Threshold (ethr) on eigenvalues was too large:
     Diagonalizing with lowered threshold

     Davidson diagonalization with overlap
     ethr =  1.88E-08,  avg # of iterations =  5.0

     total cpu time spent up to now is       65.4 secs

     total energy              =    -303.17217931 Ry
     estimated scf accuracy    <       0.00002671 Ry

     iteration #  2     ecut=    40.00 Ry     beta= 0.05
     Davidson diagonalization with overlap
     ethr =  2.43E-08,  avg # of iterations =  1.0

     total cpu time spent up to now is       66.1 secs

     total energy              =    -303.17216866 Ry
     estimated scf accuracy    <       0.00002530 Ry

     iteration #  3     ecut=    40.00 Ry     beta= 0.05
     Davidson diagonalization with overlap
     ethr =  2.30E-08,  avg # of iterations =  2.0

     total cpu time spent up to now is       67.0 secs

     total energy              =    -303.17216866 Ry
     estimated scf accuracy    <       0.00000213 Ry

     iteration #  4     ecut=    40.00 Ry     beta= 0.05
     Davidson diagonalization with overlap
     ethr =  1.94E-09,  avg # of iterations =  4.0

     total cpu time spent up to now is       68.2 secs

     End of self-consistent calculation

          k = 0.0684 0.1374 0.0785 (  8840 PWs)   bands (ev):

   -15.4089 -15.2724 -15.1384 -11.0583 -11.0546 -10.9578 -10.9526 -10.8603
   -10.8584  -9.9662  -9.9100  -9.8576  -9.1363  -9.0870  -9.0557  -8.1618
    -8.1587  -8.0829  -8.0786  -8.0078  -8.0064  -4.8506  -4.2975  -3.8670
    -2.9365  -2.9129  -2.9005  -2.8723  -2.4636  -2.4376  -2.4372  -2.4081
    -2.4069  -2.3832  -2.3820  -0.9867  -0.8316  -0.5993  -0.4551  -0.2276
     0.5801   0.5938   0.6087   0.6642   0.6854   0.7919   0.8037   0.8179
     1.1677   1.2025   1.4867   1.6597   1.6761   1.7726   2.1166   5.4023
     5.7589   5.9742   6.0116   6.0326   6.3723   6.3994   6.7927   6.8075
     8.1549   8.4708

[...]
     atom   18 type  1   force =     0.50906562   -1.50598555   -9.38520822
     atom   19 type  1   force =    -0.00211455   -0.00721336   -0.10795009
     atom   20 type  1   force =    -0.47393246    1.44446398    9.14622252
     atom   21 type  1   force =     0.59515930   -1.53192263   -9.39547558
     atom   22 type  1   force =     0.01397316   -0.02404336   -0.08992745
     atom   23 type  1   force =    -0.50491263    1.46629483    9.22872529
     atom   24 type  1   force =     0.60188608   -1.45807701   -9.47865756
     atom   25 type  2   force =    -0.53255484    0.59889089    1.81635951
     atom   26 type  2   force =     0.28302127    0.08878750    2.36323616
     atom   27 type  2   force =     0.02513839    0.47480063   -2.23577959
     atom   28 type  2   force =     0.21743902   -1.19550518   -1.98425716
     atom   29 type  2   force =    -0.69062789    0.04197411   -1.49544655
     atom   30 type  2   force =     0.85313709   -0.49426773   -1.36836060
     atom   31 type  2   force =    -0.52156235   -0.78671020   -1.64061979
     atom   32 type  2   force =     0.71672012    0.27112875   -1.63069971
     atom   33 type  2   force =    -0.08351367   -0.43550676    2.22162579
     atom   34 type  2   force =    -0.18587518    1.12979069    1.98615642
     atom   35 type  2   force =     0.67641096   -0.04912347    1.30469163
     atom   36 type  2   force =    -0.77368116    0.47727550    1.10341746
     atom   37 type  2   force =    -0.52339943   -0.44477461    1.45481967
     atom   38 type  2   force =     0.35796463    0.84406918    1.35170953
     The local contribution  to forces
     atom    1 type  1   force =     0.00237042    0.00426502    0.09235432
     atom    2 type  1   force =     0.48432539   -1.43781260   -9.12645246
     atom    3 type  1   force =    -0.49699266    1.52234716    9.53751883
     atom    4 type  1   force =    -0.01246925    0.02667616    0.10473178
     atom    5 type  1   force =     0.49700882   -1.47831982   -9.20543487
     atom    6 type  1   force =    -0.50881468    1.61052200    9.44822938
     atom    7 type  1   force =     0.00138125    0.00481062    0.09386080
     atom    8 type  1   force =     0.59367659   -1.52167132   -9.15744214
     atom    9 type  1   force =    -0.61063381    1.45302208    9.46082856
     atom   10 type  1   force =    -0.01498917    0.02604991    0.10029600
     atom   11 type  1   force =     0.58677881   -1.51916431   -9.10460022
     atom   12 type  1   force =    -0.62183727    1.57001638    9.53615187
     atom   13 type  1   force =     0.00358949    0.00827022    0.11484885
     atom   14 type  1   force =     0.59383095   -1.50505126   -9.18099053
     atom   15 type  1   force =    -0.50441122    1.60868115    9.42561871
     atom   16 type  1   force =    -0.01438406    0.02853729    0.10356624
     atom   17 type  1   force =     0.58116180   -1.49295051   -9.08048849
     atom   18 type  1   force =    -0.50963084    1.50431900    9.38230372
     atom   19 type  1   force =     0.00290287    0.00633492    0.10792693
     atom   20 type  1   force =     0.47327440   -1.44506208   -9.14370445
     atom   21 type  1   force =    -0.59566814    1.53224303    9.39424700
     atom   22 type  1   force =    -0.01478176    0.02493618    0.08941538
     atom   23 type  1   force =     0.50564125   -1.46731724   -9.22790772
     atom   24 type  1   force =    -0.60307600    1.45677720    9.47775257
     atom   25 type  2   force =     0.50281851   -0.58394261   -1.87011144
     atom   26 type  2   force =    -0.25322546   -0.10198326   -2.30871596
     atom   27 type  2   force =    -0.03581587   -0.41329652    2.22901823
     atom   28 type  2   force =    -0.20539236    1.13385296    1.99124171
     atom   29 type  2   force =     0.62976055   -0.02537574    1.49566539
     atom   30 type  2   force =    -0.79286337    0.47756050    1.36916670
     atom   31 type  2   force =     0.47846218    0.74166836    1.63014282
     atom   32 type  2   force =    -0.67362591   -0.22575891    1.64068306
     atom   33 type  2   force =     0.08584441    0.37659853   -2.21318256
     atom   34 type  2   force =     0.18293832   -1.07004844   -1.99443951
     atom   35 type  2   force =    -0.62028778    0.02772784   -1.29500727
     atom   36 type  2   force =     0.71802022   -0.45898887   -1.11343453
     atom   37 type  2   force =     0.48930686    0.39252796   -1.45829367
     atom   38 type  2   force =    -0.32293607   -0.79193361   -1.34876492
     The core correction contribution to forces
     atom    1 type  1   force =     0.00008921   -0.00012215   -0.00002860
     atom    2 type  1   force =    -0.00001687    0.00011096    0.00002836
     atom    3 type  1   force =     0.00005090   -0.00001675    0.00006837
     atom    4 type  1   force =    -0.00008509    0.00011681    0.00001341
     atom    5 type  1   force =    -0.00004330   -0.00000626   -0.00004167
     atom    6 type  1   force =    -0.00002852    0.00005658   -0.00000636
     atom    7 type  1   force =     0.00008358   -0.00011860   -0.00002754
     atom    8 type  1   force =    -0.00003595    0.00005181   -0.00004668
     atom    9 type  1   force =     0.00001607   -0.00007956   -0.00000149
     atom   10 type  1   force =    -0.00009850    0.00011721    0.00000361
     atom   11 type  1   force =     0.00009565   -0.00001766    0.00002984
     atom   12 type  1   force =    -0.00002916    0.00007028    0.00010613
     atom   13 type  1   force =     0.00008384   -0.00010968    0.00001488
     atom   14 type  1   force =    -0.00001815    0.00006204    0.00000967
     atom   15 type  1   force =     0.00007452    0.00002016   -0.00010916
     atom   16 type  1   force =    -0.00008599    0.00012013    0.00001045
     atom   17 type  1   force =     0.00002204   -0.00012109    0.00006903
     atom   18 type  1   force =    -0.00001500   -0.00004121   -0.00005931
     atom   19 type  1   force =     0.00009152   -0.00011801    0.00000221
     atom   20 type  1   force =    -0.00004483    0.00001643    0.00004657
     atom   21 type  1   force =    -0.00000626    0.00001668   -0.00003631
     atom   22 type  1   force =    -0.00007687    0.00011026   -0.00001797
     atom   23 type  1   force =     0.00005500   -0.00010112   -0.00007140
     atom   24 type  1   force =    -0.00005508   -0.00003306    0.00000179
     atom   25 type  2   force =     0.00000000    0.00000000    0.00000000
     atom   26 type  2   force =     0.00000000    0.00000000    0.00000000
     atom   27 type  2   force =     0.00000000    0.00000000    0.00000000
     atom   28 type  2   force =     0.00000000    0.00000000    0.00000000
     atom   29 type  2   force =     0.00000000    0.00000000    0.00000000
     atom   30 type  2   force =     0.00000000    0.00000000    0.00000000
     atom   31 type  2   force =     0.00000000    0.00000000    0.00000000
     atom   32 type  2   force =     0.00000000    0.00000000    0.00000000
     atom   33 type  2   force =     0.00000000    0.00000000    0.00000000
     atom   34 type  2   force =     0.00000000    0.00000000    0.00000000
     atom   35 type  2   force =     0.00000000    0.00000000    0.00000000
     atom   36 type  2   force =     0.00000000    0.00000000    0.00000000
     atom   37 type  2   force =     0.00000000    0.00000000    0.00000000
     atom   38 type  2   force =     0.00000000    0.00000000    0.00000000
     The Hubbard contrib.    to forces
     atom    1 type  1   force =     0.00000000    0.00000000    0.00000000
     atom    2 type  1   force =     0.00000000    0.00000000    0.00000000
     atom    3 type  1   force =     0.00000000    0.00000000    0.00000000
     atom    4 type  1   force =     0.00000000    0.00000000    0.00000000
     atom    5 type  1   force =     0.00000000    0.00000000    0.00000000
     atom    6 type  1   force =     0.00000000    0.00000000    0.00000000
     atom    7 type  1   force =     0.00000000    0.00000000    0.00000000
     atom    8 type  1   force =     0.00000000    0.00000000    0.00000000
     atom    9 type  1   force =     0.00000000    0.00000000    0.00000000
     atom   10 type  1   force =     0.00000000    0.00000000    0.00000000
     atom   11 type  1   force =     0.00000000    0.00000000    0.00000000
     atom   12 type  1   force =     0.00000000    0.00000000    0.00000000
     atom   13 type  1   force =     0.00000000    0.00000000    0.00000000
     atom   14 type  1   force =     0.00000000    0.00000000    0.00000000
     atom   15 type  1   force =     0.00000000    0.00000000    0.00000000
     atom   16 type  1   force =     0.00000000    0.00000000    0.00000000
     atom   17 type  1   force =     0.00000000    0.00000000    0.00000000
     atom   18 type  1   force =     0.00000000    0.00000000    0.00000000
     atom   19 type  1   force =     0.00000000    0.00000000    0.00000000
     atom   20 type  1   force =     0.00000000    0.00000000    0.00000000
     atom   21 type  1   force =     0.00000000    0.00000000    0.00000000
     atom   22 type  1   force =     0.00000000    0.00000000    0.00000000
     atom   23 type  1   force =     0.00000000    0.00000000    0.00000000
     atom   24 type  1   force =     0.00000000    0.00000000    0.00000000
     atom   25 type  2   force =     0.00000000    0.00000000    0.00000000
     atom   26 type  2   force =     0.00000000    0.00000000    0.00000000
     atom   27 type  2   force =     0.00000000    0.00000000    0.00000000
     atom   28 type  2   force =     0.00000000    0.00000000    0.00000000
     atom   29 type  2   force =     0.00000000    0.00000000    0.00000000
     atom   30 type  2   force =     0.00000000    0.00000000    0.00000000
     atom   31 type  2   force =     0.00000000    0.00000000    0.00000000
     atom   32 type  2   force =     0.00000000    0.00000000    0.00000000
     atom   33 type  2   force =     0.00000000    0.00000000    0.00000000
     atom   34 type  2   force =     0.00000000    0.00000000    0.00000000
     atom   35 type  2   force =     0.00000000    0.00000000    0.00000000
     atom   36 type  2   force =     0.00000000    0.00000000    0.00000000
     atom   37 type  2   force =     0.00000000    0.00000000    0.00000000
     atom   38 type  2   force =     0.00000000    0.00000000    0.00000000
     The SCF correction term to forces
     atom    1 type  1   force =     0.00000168    0.00000042    0.00001350
     atom    2 type  1   force =     0.00000237   -0.00000945   -0.00007010
     atom    3 type  1   force =    -0.00000222    0.00001977    0.00008048
     atom    4 type  1   force =     0.00000032    0.00000255    0.00001343
     atom    5 type  1   force =     0.00000194   -0.00000928   -0.00007008
     atom    6 type  1   force =    -0.00000210    0.00001704    0.00007781
     atom    7 type  1   force =     0.00000041    0.00000051    0.00001295
     atom    8 type  1   force =     0.00001090   -0.00001472   -0.00006750
     atom    9 type  1   force =    -0.00000713    0.00001400    0.00008043
     atom   10 type  1   force =    -0.00000004    0.00000300    0.00001324
     atom   11 type  1   force =     0.00001211   -0.00001242   -0.00006545
     atom   12 type  1   force =    -0.00000622    0.00000932    0.00008098
     atom   13 type  1   force =     0.00000087    0.00000125    0.00001379
     atom   14 type  1   force =     0.00001332   -0.00001819   -0.00006478
     atom   15 type  1   force =     0.00000258    0.00001388    0.00008159
     atom   16 type  1   force =    -0.00000121    0.00000221    0.00001368
     atom   17 type  1   force =     0.00001014   -0.00001983   -0.00006376
     atom   18 type  1   force =     0.00000129    0.00001776    0.00008182
     atom   19 type  1   force =     0.00000034    0.00000070    0.00001310
     atom   20 type  1   force =     0.00000022   -0.00001274   -0.00006525
     atom   21 type  1   force =    -0.00001103    0.00001154    0.00008102
     atom   22 type  1   force =     0.00000038    0.00000163    0.00001354
     atom   23 type  1   force =     0.00000340   -0.00001298   -0.00006971
     atom   24 type  1   force =    -0.00000888    0.00001466    0.00008208
     atom   25 type  2   force =    -0.00000029   -0.00000495   -0.00000758
     atom   26 type  2   force =    -0.00000239   -0.00000518   -0.00000886
     atom   27 type  2   force =    -0.00000058    0.00000272    0.00000154
     atom   28 type  2   force =    -0.00000038   -0.00000096    0.00000196
     atom   29 type  2   force =    -0.00000123    0.00000207   -0.00000258
     atom   30 type  2   force =     0.00000182    0.00000082   -0.00000267
     atom   31 type  2   force =    -0.00000054   -0.00000130   -0.00000368
     atom   32 type  2   force =    -0.00000106   -0.00000304   -0.00000147
     atom   33 type  2   force =     0.00000022    0.00000680   -0.00001103
     atom   34 type  2   force =     0.00000163    0.00000243   -0.00000977
     atom   35 type  2   force =     0.00000006   -0.00000025   -0.00000933
     atom   36 type  2   force =    -0.00000096   -0.00000006   -0.00000948
     atom   37 type  2   force =     0.00000232   -0.00000531   -0.00000842
     atom   38 type  2   force =     0.00000417   -0.00000154   -0.00000839

     Total force =     0.009337     Total SCF correction =     0.000308


     Computing stress (Cartesian axis) and pressure

          total   stress  (Ry/bohr**3)                   (kbar)     P=        0.12
   0.00000572  -0.00000260  -0.00000264            0.84       -0.38       -0.39
  -0.00000260  -0.00000223   0.00000146           -0.38       -0.33        0.22
  -0.00000264   0.00000146  -0.00000096           -0.39        0.22       -0.14

     Energy error            =      1.2E-04 Ry
     Gradient error          =      3.2E-03 Ry/Bohr
     Cell gradient error     =      8.4E-01 kbar

     number of scf cycles    =  50
     number of bfgs steps    =  49

     enthalpy           old  =    -303.1764888483 Ry
     enthalpy           new  =    -303.1766124219 Ry

     CASE: enthalpy          _new < enthalpy          _old

     new trust radius        =       0.0214683832 bohr

     The maximum number of steps has been reached.

     End of BFGS Geometry Optimization
     new unit-cell volume =   2032.64128 a.u.^3 (   301.20636 Ang^3 )
     density =      1.66697 g/cm^3

CELL_PARAMETERS (alat=  8.00000437)
   1.154053801   0.012357016   0.063276545
  -0.578342513   0.982387889  -0.191068151
   0.197459883  -0.355098196   3.548190361

ATOMIC_POSITIONS (crystal)
C            -0.0481955736       -0.0774945077        0.1619746524
C            -0.0381312818        0.1451409276        0.3900814935
C             0.0924449470        0.0650124269        0.9343567262
C             0.1183832574        0.2557832870        0.1618693199
C             0.2951011795        0.3119502913        0.3901873320
C             0.2592412989        0.3984609856        0.9344445929
C             0.4517760247       -0.0775118216        0.1619976732
C             0.4618687886        0.1452281897        0.3900930316
C             0.5924097003        0.0651299387        0.9344255602
C             0.6183538206        0.2557697736        0.1619087863
C             0.7952125053        0.3118052248        0.3900346912
C             0.7592623644        0.3984043922        0.9342870975
C            -0.0483231242        0.4224282725        0.1619055828
C            -0.0380306997        0.6451859984        0.3901017981
C             0.0926097349        0.5652885663        0.9345719721
C             0.1184294206        0.7557665224        0.1618761001
C             0.2951701385        0.8116430346        0.3899863852
C             0.2591374635        0.8984754292        0.9345014801
C             0.4517123849        0.4224734351        0.1619486281
C             0.4619039857        0.6450384249        0.3900079866
C             0.5925366946        0.5652207414        0.9344649818
C             0.6184637799        0.7558115449        0.1619445598
C             0.7952266218        0.8118549992        0.3902018249
C             0.7591195441        0.8984135188        0.9344125466
H             0.6082882166        1.1693693162        0.5490159473
H             0.6603673014        1.1412258040        0.5905225372
H             0.4138798336        0.6528931628        0.7623451092
H             0.3518804002        0.4710113370        0.7590649893
H             0.8309784589        0.5868227204        0.7341201571
H             0.9580518022        0.5339783649        0.7290141732
H             0.3222920714       -0.0109492062        0.7337141153
H             0.4954323272        0.1246628462        0.7462573280
H             0.0976891675        0.5535575014        0.5676349716
H             0.1812494077        0.7365753339        0.5690163837
H             0.7052118430        0.6704896321        0.6126727341
H             0.5915612917        0.7350780344        0.6097626077
H             0.0598446424        0.1042443944        0.5980861146
H             0.2231019425        0.2604571596        0.6059591875



     Writing config-only to output data dir ../../results/server/7h2_abs/7H2abs_C.save/
     NEW-OLD atomic charge density approx. for the potential

     Check: negative core charge=   -0.000002
     extrapolated charge  109.98760, renormalised to  110.00000

     Writing all to output data dir ../../results/server/7h2_abs/7H2abs_C.save/
 
     init_run     :      0.73s CPU      0.80s WALL (       1 calls)
     electrons    :   1005.20s CPU   1035.21s WALL (      50 calls)
     update_pot   :     11.77s CPU     11.90s WALL (      50 calls)
     forces       :     13.87s CPU     16.21s WALL (      50 calls)
     stress       :    151.61s CPU    153.73s WALL (      50 calls)

     Called by init_run:
     wfcinit      :      0.48s CPU      0.51s WALL (       1 calls)
     potinit      :      0.07s CPU      0.07s WALL (       1 calls)
     hinit0       :      0.13s CPU      0.13s WALL (       1 calls)

     Called by electrons:
     c_bands      :    892.07s CPU    913.26s WALL (     899 calls)
     sum_band     :    100.40s CPU    103.87s WALL (     899 calls)
     v_of_rho     :      1.17s CPU      1.18s WALL (     941 calls)
     newd         :      3.27s CPU      3.31s WALL (     941 calls)
     mix_rho      :      6.51s CPU      6.62s WALL (     899 calls)

     Called by c_bands:
     init_us_2    :      7.29s CPU      7.61s WALL (   34182 calls)
     init_us_2:cp :      7.19s CPU      7.54s WALL (   34182 calls)
     cegterg      :    823.50s CPU    842.27s WALL (   16182 calls)

     Called by *egterg:
     cdiaghg      :    286.92s CPU    288.93s WALL (   65960 calls)
     h_psi        :    416.92s CPU    432.39s WALL (   67022 calls)
     s_psi        :     22.72s CPU     23.05s WALL (   67022 calls)
     g_psi        :      1.49s CPU      1.51s WALL (   50822 calls)

     Called by h_psi:
     h_psi:calbec :     48.83s CPU     50.24s WALL (   67022 calls)
     vloc_psi     :    341.78s CPU    355.54s WALL (   67022 calls)
     add_vuspsi   :     23.91s CPU     24.22s WALL (   67022 calls)

     General routines
     calbec       :     79.52s CPU     81.48s WALL (   87704 calls)
     fft          :      2.56s CPU      2.60s WALL (    6005 calls)
     ffts         :      2.92s CPU      2.96s WALL (   24148 calls)
     fftw         :    346.54s CPU    360.38s WALL ( 6662506 calls)
     interpolate  :      0.44s CPU      0.45s WALL (     941 calls)
     davcio       :      0.00s CPU      0.03s WALL (      18 calls)
 
     Parallel routines
 
     PWSCF        :  19m45.35s CPU  20m21.49s WALL

 
   This run was terminated on:   0:12:15   3Sep2024            

=------------------------------------------------------------------------------=
   JOB DONE.
=------------------------------------------------------------------------------=
