
     Program PWSCF v.7.2 starts on  2Sep2024 at 17:16:44 

     This program is part of the open-source Quantum ESPRESSO suite
     for quantum simulation of materials; please cite
         "P. Giannozzi et al., J. Phys.:Condens. Matter 21 395502 (2009);
         "P. Giannozzi et al., J. Phys.:Condens. Matter 29 465901 (2017);
         "P. Giannozzi et al., J. Chem. Phys. 152 154105 (2020);
          URL http://www.quantum-espresso.org", 
     in publications or presentations arising from this work. More details at
     http://www.quantum-espresso.org/quote

     Parallel version (MPI & OpenMP), running on      48 processor cores
     Number of MPI processes:                48
     Threads/MPI process:                     1

     MPI processes distributed on     1 nodes
     361770 MiB available memory on the printing compute node when the environment starts
 
     Reading input from hydrogen_absorption1.in

     Current dimensions of program PWSCF are:
     Max number of different atomic species (ntypx) = 10
     Max number of k-points (npk) =  40000
     Max angular momentum in pseudopotentials (lmaxx) =  4

     IMPORTANT: XC functional enforced from input :
     Exchange-correlation= LDA
                           (   1   1   0   0   0   0   0)
     Any further DFT definition will be discarded
     Please, verify this is what you really want

 
     K-points division:     npool     =       2
     R & G space division:  proc/nbgrp/npool/nimage =      24
     Subspace diagonalization in iterative solution of the eigenvalue problem:
     a serial algorithm will be used

 
     Parallelization info
     --------------------
     sticks:   dense  smooth     PW     G-vecs:    dense   smooth      PW
     Min          73      29      8                 4953     1247     206
     Max          74      30      9                 4964     1253     217
     Sum        1765     703    211               118997    29997    5093
 
     Using Slab Decomposition
 

     Title: 
     1H2_absorption_C                                                           


     bravais-lattice index     =            4
     lattice parameter (alat)  =       8.0000  a.u.
     unit-cell volume          =     880.6989 (a.u.)^3
     number of atoms/cell      =           26
     number of atomic types    =            2
     number of electrons       =        98.00
     number of Kohn-Sham states=           59
     kinetic-energy cutoff     =      40.0000  Ry
     charge density cutoff     =     400.0000  Ry
     scf convergence threshold =      1.0E-06
     mixing beta               =       0.0500
     number of iterations used =            8  local-TF  mixing
     energy convergence thresh.=      1.0E-04
     force convergence thresh. =      1.0E-03
     press convergence thresh. =      5.0E-01
     Exchange-correlation= LDA
                           (   1   1   0   0   0   0   0)
     nstep                     =           50


     celldm(1)=   8.000004  celldm(2)=   0.000000  celldm(3)=   1.986214
     celldm(4)=   0.000000  celldm(5)=   0.000000  celldm(6)=   0.000000

     crystal axes: (cart. coord. in units of alat)
               a(1) = (   1.000000   0.000000   0.000000 )  
               a(2) = (  -0.500000   0.866025   0.000000 )  
               a(3) = (   0.000000   0.000000   1.986214 )  

     reciprocal axes: (cart. coord. in units 2 pi/alat)
               b(1) = (  1.000000  0.577350  0.000000 )  
               b(2) = (  0.000000  1.154701  0.000000 )  
               b(3) = (  0.000000  0.000000  0.503470 )  


     PseudoPot. # 1 for C  read from file:
     ../../potentials/C.pz-n-rrkjus_psl.0.1.UPF
     MD5 check sum: a3cecbabebb5b3a1aff122f23eb09bb0
     Pseudo is Ultrasoft + core correction, Zval =  4.0
     Generated using "atomic" code by A. Dal Corso  v.5.0.2 svn rev. 9415
     Using radial grid of 1073 points,  4 beta functions with: 
                l(1) =   0
                l(2) =   0
                l(3) =   1
                l(4) =   1
     Q(r) pseudized with 0 coefficients 


     PseudoPot. # 2 for H  read from file:
     ../../potentials/H.pz-rrkjus_psl.0.1.UPF
     MD5 check sum: 1467ebfaa2880178e80d097b970df8c7
     Pseudo is Ultrasoft, Zval =  1.0
     Generated using "atomic" code by A. Dal Corso  v.5.0.2 svn rev. 9415
     Using radial grid of  929 points,  2 beta functions with: 
                l(1) =   0
                l(2) =   0
     Q(r) pseudized with 0 coefficients 


     atomic species   valence    mass     pseudopotential
        C              4.00    12.01100     C ( 1.00)
        H              1.00     1.00784     H ( 1.00)

     No symmetry found



   Cartesian axes

     site n.     atom                  positions (alat units)
         1           C   tau(   1) = (   0.0000000   0.0000000   0.3310344  )
         2           C   tau(   2) = (   0.0000000   0.0000000   0.9931072  )
         3           C   tau(   3) = (   0.0000000   0.0000000   1.6551781  )
         4           C   tau(   4) = (  -0.0000005   0.2886748   0.3310344  )
         5           C   tau(   5) = (   0.2500000   0.1443370   0.9931072  )
         6           C   tau(   6) = (  -0.0000005   0.2886748   1.6551781  )
         7           C   tau(   7) = (   0.5000000   0.0000000   0.3310344  )
         8           C   tau(   8) = (   0.5000000   0.0000000   0.9931072  )
         9           C   tau(   9) = (   0.5000000   0.0000000   1.6551781  )
        10           C   tau(  10) = (   0.4999995   0.2886748   0.3310344  )
        11           C   tau(  11) = (   0.7500000   0.1443370   0.9931072  )
        12           C   tau(  12) = (   0.4999995   0.2886748   1.6551781  )
        13           C   tau(  13) = (  -0.2500000   0.4330127   0.3310344  )
        14           C   tau(  14) = (  -0.2500000   0.4330127   0.9931072  )
        15           C   tau(  15) = (  -0.2500000   0.4330127   1.6551781  )
        16           C   tau(  16) = (  -0.2500005   0.7216875   0.3310344  )
        17           C   tau(  17) = (   0.0000000   0.5773497   0.9931072  )
        18           C   tau(  18) = (  -0.2500005   0.7216875   1.6551781  )
        19           C   tau(  19) = (   0.2500000   0.4330127   0.3310344  )
        20           C   tau(  20) = (   0.2500000   0.4330127   0.9931072  )
        21           C   tau(  21) = (   0.2500000   0.4330127   1.6551781  )
        22           C   tau(  22) = (   0.2499995   0.7216875   0.3310344  )
        23           C   tau(  23) = (   0.5000000   0.5773497   0.9931072  )
        24           C   tau(  24) = (   0.2499995   0.7216875   1.6551781  )
        25           H   tau(  25) = (   0.3050000   0.6495191   1.2314530  )
        26           H   tau(  26) = (   0.2300000   0.7794229   1.2314530  )

     number of k points=   108  Gaussian smearing, width (Ry)=  0.0100

     Number of k-points >= 100: set verbosity='high' to print them.

     Dense  grid:   118997 G-vectors     FFT dimensions: (  54,  54, 108)

     Smooth grid:    29997 G-vectors     FFT dimensions: (  36,  36,  64)

     Estimated max dynamical RAM per process >      17.55 MB

     Estimated total dynamical RAM >     813.37 MB

     Check: negative core charge=   -0.000003

     Initial potential from superposition of free atoms

     starting charge      97.9991, renormalised to      98.0000
     Starting wfcs are   98 randomized atomic wfcs

     total cpu time spent up to now is        1.6 secs

     Self-consistent Calculation

     iteration #  1     ecut=    40.00 Ry     beta= 0.05
     Davidson diagonalization with overlap
     ethr =  1.00E-02,  avg # of iterations =  5.4

     total cpu time spent up to now is        5.9 secs

     total energy              =    -288.44189140 Ry
     estimated scf accuracy    <       5.54146464 Ry

     iteration #  2     ecut=    40.00 Ry     beta= 0.05
     Davidson diagonalization with overlap
     ethr =  5.65E-03,  avg # of iterations =  1.0

     total cpu time spent up to now is        7.7 secs

     total energy              =    -287.31135100 Ry
     estimated scf accuracy    <       5.50443576 Ry

     iteration #  3     ecut=    40.00 Ry     beta= 0.05
     Davidson diagonalization with overlap
     ethr =  5.62E-03,  avg # of iterations =  1.0

     total cpu time spent up to now is        9.5 secs

     total energy              =    -284.82394841 Ry
     estimated scf accuracy    <       3.56810579 Ry

     iteration #  4     ecut=    40.00 Ry     beta= 0.05
     Davidson diagonalization with overlap
     ethr =  3.64E-03,  avg # of iterations =  4.5

     total cpu time spent up to now is       13.1 secs

     total energy              =    -285.88612143 Ry
     estimated scf accuracy    <       0.21396593 Ry

     iteration #  5     ecut=    40.00 Ry     beta= 0.05
     Davidson diagonalization with overlap
     ethr =  2.18E-04,  avg # of iterations =  8.3

     total cpu time spent up to now is       18.1 secs

     total energy              =    -285.79186634 Ry
     estimated scf accuracy    <       0.76667615 Ry

     iteration #  6     ecut=    40.00 Ry     beta= 0.05
     Davidson diagonalization with overlap
     ethr =  2.18E-04,  avg # of iterations =  1.5

     total cpu time spent up to now is       19.9 secs

     total energy              =    -285.52532047 Ry
     estimated scf accuracy    <       0.39729339 Ry

     iteration #  7     ecut=    40.00 Ry     beta= 0.05
     Davidson diagonalization with overlap
     ethr =  2.18E-04,  avg # of iterations =  3.2

     total cpu time spent up to now is       23.0 secs

     total energy              =    -285.63141923 Ry
     estimated scf accuracy    <       0.00811595 Ry

     iteration #  8     ecut=    40.00 Ry     beta= 0.05
     Davidson diagonalization with overlap
     c_bands:  1 eigenvalues not converged
     c_bands:  1 eigenvalues not converged
     c_bands:  1 eigenvalues not converged
     c_bands:  1 eigenvalues not converged
     c_bands:  1 eigenvalues not converged
     c_bands:  1 eigenvalues not converged
     c_bands:  1 eigenvalues not converged
     ethr =  8.28E-06,  avg # of iterations = 12.8

     total cpu time spent up to now is       29.8 secs

     total energy              =    -285.63698425 Ry
     estimated scf accuracy    <       0.02411609 Ry

     iteration #  9     ecut=    40.00 Ry     beta= 0.05
     Davidson diagonalization with overlap
     ethr =  8.28E-06,  avg # of iterations =  1.0

     total cpu time spent up to now is       31.7 secs

     total energy              =    -285.62936238 Ry
     estimated scf accuracy    <       0.01968881 Ry

     iteration # 10     ecut=    40.00 Ry     beta= 0.05
     Davidson diagonalization with overlap
     ethr =  8.28E-06,  avg # of iterations =  1.2

     total cpu time spent up to now is       33.5 secs

     total energy              =    -285.62711433 Ry
     estimated scf accuracy    <       0.00572332 Ry

     iteration # 11     ecut=    40.00 Ry     beta= 0.05
     Davidson diagonalization with overlap
     ethr =  5.84E-06,  avg # of iterations =  2.0

     total cpu time spent up to now is       36.0 secs

     total energy              =    -285.62880390 Ry
     estimated scf accuracy    <       0.00060238 Ry

     iteration # 12     ecut=    40.00 Ry     beta= 0.05
     Davidson diagonalization with overlap
     ethr =  6.15E-07,  avg # of iterations =  2.5

     total cpu time spent up to now is       38.2 secs

     total energy              =    -285.62767576 Ry
     estimated scf accuracy    <       0.00168535 Ry

     iteration # 13     ecut=    40.00 Ry     beta= 0.05
     Davidson diagonalization with overlap
     ethr =  6.15E-07,  avg # of iterations =  7.0

     total cpu time spent up to now is       43.1 secs

     total energy              =    -285.62845166 Ry
     estimated scf accuracy    <       0.00054480 Ry

     iteration # 14     ecut=    40.00 Ry     beta= 0.05
     Davidson diagonalization with overlap
     ethr =  5.56E-07,  avg # of iterations =  1.0

     total cpu time spent up to now is       44.8 secs

     total energy              =    -285.62863970 Ry
     estimated scf accuracy    <       0.00067250 Ry

     iteration # 15     ecut=    40.00 Ry     beta= 0.05
     Davidson diagonalization with overlap
     ethr =  5.56E-07,  avg # of iterations =  1.0

     total cpu time spent up to now is       46.5 secs

     total energy              =    -285.62846675 Ry
     estimated scf accuracy    <       0.00103591 Ry

     iteration # 16     ecut=    40.00 Ry     beta= 0.05
     Davidson diagonalization with overlap
     ethr =  5.56E-07,  avg # of iterations =  1.0

     total cpu time spent up to now is       48.3 secs

     total energy              =    -285.62792417 Ry
     estimated scf accuracy    <       0.00074403 Ry

     iteration # 17     ecut=    40.00 Ry     beta= 0.05
     Davidson diagonalization with overlap
     ethr =  5.56E-07,  avg # of iterations =  3.0

     total cpu time spent up to now is       51.2 secs

     total energy              =    -285.62812014 Ry
     estimated scf accuracy    <       0.00007625 Ry

     iteration # 18     ecut=    40.00 Ry     beta= 0.05
     Davidson diagonalization with overlap
     ethr =  7.78E-08,  avg # of iterations =  2.0

     total cpu time spent up to now is       53.5 secs

     total energy              =    -285.62810673 Ry
     estimated scf accuracy    <       0.00004199 Ry

     iteration # 19     ecut=    40.00 Ry     beta= 0.05
     Davidson diagonalization with overlap
     ethr =  4.28E-08,  avg # of iterations =  2.0

     total cpu time spent up to now is       55.7 secs

     total energy              =    -285.62811527 Ry
     estimated scf accuracy    <       0.00000420 Ry

     iteration # 20     ecut=    40.00 Ry     beta= 0.05
     Davidson diagonalization with overlap
     ethr =  4.29E-09,  avg # of iterations =  6.0

     total cpu time spent up to now is       60.2 secs

     total energy              =    -285.62811331 Ry
     estimated scf accuracy    <       0.00002153 Ry

     iteration # 21     ecut=    40.00 Ry     beta= 0.05
     Davidson diagonalization with overlap
     ethr =  4.29E-09,  avg # of iterations =  2.4

     total cpu time spent up to now is       62.5 secs

     total energy              =    -285.62811307 Ry
     estimated scf accuracy    <       0.00000678 Ry

     iteration # 22     ecut=    40.00 Ry     beta= 0.05
     Davidson diagonalization with overlap
     ethr =  4.29E-09,  avg # of iterations =  1.0

     total cpu time spent up to now is       64.2 secs

     total energy              =    -285.62811053 Ry
     estimated scf accuracy    <       0.00000458 Ry

     iteration # 23     ecut=    40.00 Ry     beta= 0.05
     Davidson diagonalization with overlap
     ethr =  4.29E-09,  avg # of iterations =  2.0

     total cpu time spent up to now is       66.7 secs

     End of self-consistent calculation

     Number of k-points >= 100: set verbosity='high' to print the bands.

     the Fermi energy is    13.7112 ev

!    total energy              =    -285.62811173 Ry
     estimated scf accuracy    <       0.00000037 Ry
     smearing contrib. (-TS)   =      -0.00014461 Ry
     internal energy E=F+TS    =    -285.62796712 Ry

     The total energy is F=E-TS. E is the sum of the following terms:
     one-electron contribution =       4.18520312 Ry
     hartree contribution      =      70.60093323 Ry
     xc contribution           =    -110.66962107 Ry
     ewald contribution        =    -249.74448240 Ry

     convergence has been achieved in  23 iterations

     Forces acting on atoms (cartesian axes, Ry/au):

     atom    1 type  1   force =    -0.00075749   -0.00056309    0.00609627
     atom    2 type  1   force =     0.08668259    0.05739295   -0.10717631
     atom    3 type  1   force =     0.01940780    0.01061595    0.02240490
     atom    4 type  1   force =    -0.00088527    0.00040876    0.00497032
     atom    5 type  1   force =    -0.01606341   -0.00495543   -0.00332285
     atom    6 type  1   force =     0.00207035   -0.00144280   -0.00539522
     atom    7 type  1   force =     0.00115064   -0.00082459    0.00602599
     atom    8 type  1   force =    -0.04899300    0.00701944   -0.06344163
     atom    9 type  1   force =    -0.01647617    0.00761988    0.01752010
     atom   10 type  1   force =     0.00045920    0.00020920    0.00536472
     atom   11 type  1   force =     0.00989980    0.06246801   -0.07063129
     atom   12 type  1   force =    -0.00317840   -0.00065483   -0.00510692
     atom   13 type  1   force =     0.00058874    0.00008582    0.00362037
     atom   14 type  1   force =     0.00620344    0.00746229   -0.00965916
     atom   15 type  1   force =     0.00052775   -0.00051108   -0.00458841
     atom   16 type  1   force =    -0.00004743   -0.00080492    0.00507562
     atom   17 type  1   force =    -0.06346861   -0.03298160   -0.07594806
     atom   18 type  1   force =    -0.00162023    0.00372732   -0.00535528
     atom   19 type  1   force =    -0.00002957    0.00128746    0.00614882
     atom   20 type  1   force =    -0.02701348   -0.07707437   -0.09300823
     atom   21 type  1   force =    -0.00141510   -0.02199670    0.02161587
     atom   22 type  1   force =    -0.00023062   -0.00012346    0.00677880
     atom   23 type  1   force =     0.08992957   -0.03423036   -0.10132846
     atom   24 type  1   force =    -0.00104070    0.00191876   -0.00133320
     atom   25 type  2   force =     0.10330574   -0.20119558    0.22406708
     atom   26 type  2   force =    -0.13900614    0.21714294    0.21660619
     The non-local contrib.  to forces
     atom    1 type  1   force =    -0.00015719   -0.00016507    0.01300531
     atom    2 type  1   force =     0.02068611    0.01319878   -0.03475524
     atom    3 type  1   force =     0.00418585    0.00203729    0.01466411
     atom    4 type  1   force =    -0.00007900    0.00011800    0.00906676
     atom    5 type  1   force =     0.00130633    0.00664654    0.03358004
     atom    6 type  1   force =     0.00274798   -0.00111939   -0.01945280
     atom    7 type  1   force =    -0.00015729    0.00046980    0.01278943
     atom    8 type  1   force =     0.02404161    0.00370943    0.04482097
     atom    9 type  1   force =    -0.00020098    0.00064250    0.00883430
     atom   10 type  1   force =     0.00001904   -0.00009203    0.01046183
     atom   11 type  1   force =    -0.00993823   -0.02275816    0.05094311
     atom   12 type  1   force =    -0.00322377   -0.00029406   -0.02156945
     atom   13 type  1   force =    -0.00024131   -0.00023539    0.00742047
     atom   14 type  1   force =    -0.01781799   -0.00311088    0.01996864
     atom   15 type  1   force =    -0.00164551   -0.00062649   -0.01222367
     atom   16 type  1   force =     0.00016157   -0.00002666    0.00927495
     atom   17 type  1   force =    -0.00629919   -0.00411281   -0.02890574
     atom   18 type  1   force =    -0.00095913    0.00273519   -0.01986432
     atom   19 type  1   force =     0.00039935   -0.00013019    0.01316241
     atom   20 type  1   force =     0.02263213    0.00709172    0.03842990
     atom   21 type  1   force =     0.00098119   -0.00340315    0.01036964
     atom   22 type  1   force =     0.00023132   -0.00010935    0.01400661
     atom   23 type  1   force =    -0.01815558   -0.01118393    0.05147664
     atom   24 type  1   force =    -0.00200102    0.00061592   -0.05358979
     atom   25 type  2   force =    -0.04068217    0.07224048   -0.00881184
     atom   26 type  2   force =     0.04264971   -0.07246255   -0.00332951
     The ionic contribution  to forces
     atom    1 type  1   force =     0.00925321    0.00594096   -0.17122038
     atom    2 type  1   force =     0.83827558    0.53500826   -1.40149039
     atom    3 type  1   force =     0.23299175    0.14935606    1.09862097
     atom    4 type  1   force =    -0.00018230    0.00037847   -0.15651961
     atom    5 type  1   force =    -0.00456483   -0.02965407   -0.75561258
     atom    6 type  1   force =    -0.00333737    0.00769314    0.86813769
     atom    7 type  1   force =    -0.00928364    0.00459345   -0.17030620
     atom    8 type  1   force =    -0.83427694    0.39416553   -1.35636846
     atom    9 type  1   force =    -0.22982803    0.11244726    1.06972205
     atom   10 type  1   force =     0.00024294   -0.00097129   -0.15738245
     atom   11 type  1   force =     0.01301377    0.97315055   -1.43720047
     atom   12 type  1   force =     0.00610314   -0.02237667    0.89592279
     atom   13 type  1   force =     0.00111974    0.00005862   -0.16394015
     atom   14 type  1   force =     0.06506144    0.00511713   -0.75976406
     atom   15 type  1   force =     0.02387702    0.00177457    0.84063229
     atom   16 type  1   force =     0.00119383    0.00019674   -0.15657277
     atom   17 type  1   force =    -0.78979538   -0.41404249   -1.26677370
     atom   18 type  1   force =     0.02580224    0.00385608    0.86981724
     atom   19 type  1   force =    -0.00118767   -0.01065294   -0.17140978
     atom   20 type  1   force =    -0.14417258   -1.01854193   -1.51308644
     atom   21 type  1   force =    -0.03254563   -0.26965709    1.11595979
     atom   22 type  1   force =    -0.00117097    0.00045145   -0.17136010
     atom   23 type  1   force =     0.97142045   -0.47545652   -1.61803692
     atom   24 type  1   force =    -0.03728042    0.01258410    1.55719419
     atom   25 type  2   force =     0.50724666   -0.94245316    1.60981011
     atom   26 type  2   force =    -0.60797602    0.97703381    1.50122734
     The local contribution  to forces
     atom    1 type  1   force =    -0.00986565   -0.00634601    0.16441893
     atom    2 type  1   force =    -0.77157409   -0.49033908    1.32812178
     atom    3 type  1   force =    -0.21770336   -0.14073191   -1.09054202
     atom    4 type  1   force =    -0.00062879   -0.00008306    0.15245389
     atom    5 type  1   force =    -0.01271969    0.01813577    0.71934182
     atom    6 type  1   force =     0.00266654   -0.00800702   -0.85427349
     atom    7 type  1   force =     0.01059353   -0.00588418    0.16364393
     atom    8 type  1   force =     0.76081157   -0.39042575    1.24814030
     atom    9 type  1   force =     0.21352364   -0.10546577   -1.06076182
     atom   10 type  1   force =     0.00020488    0.00127408    0.15233004
     atom   11 type  1   force =     0.00667540   -0.88719228    1.31549572
     atom   12 type  1   force =    -0.00605506    0.02201470   -0.87962351
     atom   13 type  1   force =    -0.00029691    0.00025985    0.16016775
     atom   14 type  1   force =    -0.04122378    0.00538866    0.73053271
     atom   15 type  1   force =    -0.02170843   -0.00165662   -0.83306311
     atom   16 type  1   force =    -0.00139954   -0.00097985    0.15240840
     atom   17 type  1   force =     0.73204330    0.38487843    1.21895663
     atom   18 type  1   force =    -0.02645136   -0.00287242   -0.85550337
     atom   19 type  1   force =     0.00076193    0.01207631    0.16450022
     atom   20 type  1   force =     0.09467123    0.93349834    1.38125436
     atom   21 type  1   force =     0.03013043    0.25100560   -1.10437822
     atom   22 type  1   force =     0.00071487   -0.00046442    0.16425547
     atom   23 type  1   force =    -0.86247194    0.45173677    1.46467125
     atom   24 type  1   force =     0.03818128   -0.01127918   -1.50551380
     atom   25 type  2   force =    -0.36327920    0.66904487   -1.37701740
     atom   26 type  2   force =     0.42632571   -0.68744832   -1.28138206
     The core correction contribution to forces
     atom    1 type  1   force =     0.00000123   -0.00000015   -0.00026038
     atom    2 type  1   force =    -0.00090566   -0.00057729    0.00109903
     atom    3 type  1   force =    -0.00009640   -0.00006622   -0.00029620
     atom    4 type  1   force =    -0.00000564   -0.00000225   -0.00019626
     atom    5 type  1   force =    -0.00007639   -0.00008740   -0.00049879
     atom    6 type  1   force =    -0.00005723    0.00001918    0.00025293
     atom    7 type  1   force =     0.00000856   -0.00000692   -0.00025195
     atom    8 type  1   force =     0.00062138   -0.00054856    0.00011912
     atom    9 type  1   force =     0.00005949   -0.00003468   -0.00023205
     atom   10 type  1   force =     0.00000137    0.00000259   -0.00020679
     atom   11 type  1   force =     0.00014784   -0.00090372    0.00028071
     atom   12 type  1   force =     0.00004631    0.00002935    0.00023657
     atom   13 type  1   force =     0.00000586    0.00000294   -0.00019538
     atom   14 type  1   force =     0.00020140    0.00006476   -0.00026894
     atom   15 type  1   force =     0.00001425    0.00000536    0.00014285
     atom   16 type  1   force =    -0.00000657   -0.00000442   -0.00019958
     atom   17 type  1   force =     0.00072624    0.00038516    0.00093118
     atom   18 type  1   force =    -0.00001288   -0.00004722    0.00025739
     atom   19 type  1   force =    -0.00000112    0.00000657   -0.00025716
     atom   20 type  1   force =    -0.00016414    0.00109984    0.00054453
     atom   21 type  1   force =     0.00000984    0.00010108   -0.00029031
     atom   22 type  1   force =    -0.00000283    0.00000109   -0.00024973
     atom   23 type  1   force =    -0.00100817    0.00076350    0.00070574
     atom   24 type  1   force =     0.00005915   -0.00000084    0.00058273
     atom   25 type  2   force =     0.00000000    0.00000000    0.00000000
     atom   26 type  2   force =     0.00000000    0.00000000    0.00000000
     The Hubbard contrib.    to forces
     atom    1 type  1   force =     0.00000000    0.00000000    0.00000000
     atom    2 type  1   force =     0.00000000    0.00000000    0.00000000
     atom    3 type  1   force =     0.00000000    0.00000000    0.00000000
     atom    4 type  1   force =     0.00000000    0.00000000    0.00000000
     atom    5 type  1   force =     0.00000000    0.00000000    0.00000000
     atom    6 type  1   force =     0.00000000    0.00000000    0.00000000
     atom    7 type  1   force =     0.00000000    0.00000000    0.00000000
     atom    8 type  1   force =     0.00000000    0.00000000    0.00000000
     atom    9 type  1   force =     0.00000000    0.00000000    0.00000000
     atom   10 type  1   force =     0.00000000    0.00000000    0.00000000
     atom   11 type  1   force =     0.00000000    0.00000000    0.00000000
     atom   12 type  1   force =     0.00000000    0.00000000    0.00000000
     atom   13 type  1   force =     0.00000000    0.00000000    0.00000000
     atom   14 type  1   force =     0.00000000    0.00000000    0.00000000
     atom   15 type  1   force =     0.00000000    0.00000000    0.00000000
     atom   16 type  1   force =     0.00000000    0.00000000    0.00000000
     atom   17 type  1   force =     0.00000000    0.00000000    0.00000000
     atom   18 type  1   force =     0.00000000    0.00000000    0.00000000
     atom   19 type  1   force =     0.00000000    0.00000000    0.00000000
     atom   20 type  1   force =     0.00000000    0.00000000    0.00000000
     atom   21 type  1   force =     0.00000000    0.00000000    0.00000000
     atom   22 type  1   force =     0.00000000    0.00000000    0.00000000
     atom   23 type  1   force =     0.00000000    0.00000000    0.00000000
     atom   24 type  1   force =     0.00000000    0.00000000    0.00000000
     atom   25 type  2   force =     0.00000000    0.00000000    0.00000000
     atom   26 type  2   force =     0.00000000    0.00000000    0.00000000
     The SCF correction term to forces
     atom    1 type  1   force =     0.00001076    0.00000739    0.00015418
     atom    2 type  1   force =     0.00020051    0.00010250   -0.00015009
     atom    3 type  1   force =     0.00002980    0.00002094   -0.00004057
     atom    4 type  1   force =     0.00001032   -0.00000218    0.00016694
     atom    5 type  1   force =    -0.00000898    0.00000395   -0.00013196
     atom    6 type  1   force =     0.00005028   -0.00002849   -0.00005817
     atom    7 type  1   force =    -0.00001067    0.00000348    0.00015218
     atom    8 type  1   force =    -0.00019077    0.00011901   -0.00015217
     atom    9 type  1   force =    -0.00003044    0.00003079   -0.00004098
     atom   10 type  1   force =    -0.00000917   -0.00000393    0.00016348
     atom   11 type  1   force =     0.00000087    0.00017184   -0.00014897
     atom   12 type  1   force =    -0.00004917   -0.00002792   -0.00007193
     atom   13 type  1   force =     0.00000122    0.00000002    0.00016907
     atom   14 type  1   force =    -0.00001779    0.00000284   -0.00012612
     atom   15 type  1   force =    -0.00000973   -0.00000768   -0.00007538
     atom   16 type  1   force =     0.00000312    0.00000950    0.00016602
     atom   17 type  1   force =    -0.00014373   -0.00008967   -0.00015504
     atom   18 type  1   force =     0.00000075    0.00005590   -0.00006083
     atom   19 type  1   force =    -0.00000221   -0.00001207    0.00015453
     atom   20 type  1   force =     0.00001974   -0.00022212   -0.00014918
     atom   21 type  1   force =     0.00000892   -0.00004293   -0.00004363
     atom   22 type  1   force =    -0.00000315   -0.00000201    0.00012795
     atom   23 type  1   force =     0.00014467   -0.00008997   -0.00014377
     atom   24 type  1   force =     0.00000016   -0.00000104   -0.00000513
     atom   25 type  2   force =     0.00002030   -0.00002756    0.00008761
     atom   26 type  2   force =    -0.00000568    0.00002022    0.00009181

     Total force =     0.549275     Total SCF correction =     0.000813


     Computing stress (Cartesian axis) and pressure

          total   stress  (Ry/bohr**3)                   (kbar)     P=     2900.18
   0.02815111  -0.00004358  -0.00009083         4141.17       -6.41      -13.36
  -0.00004358   0.02824761   0.00002952           -6.41     4155.37        4.34
  -0.00009083   0.00002952   0.00274626          -13.36        4.34      403.99


     BFGS Geometry Optimization
     Energy error            =      0.0E+00 Ry
     Gradient error          =      2.2E-01 Ry/Bohr
     Cell gradient error     =      4.2E+03 kbar

     number of scf cycles    =   1
     number of bfgs steps    =   0

     enthalpy           new  =    -285.6281117344 Ry

     new trust radius        =       0.5000000000 bohr
     new conv_thr            =       0.0000010000 Ry

     new unit-cell volume =   1043.53371 a.u.^3 (   154.63574 Ang^3 )
     density =      3.11714 g/cm^3

CELL_PARAMETERS (alat=  8.00000437)
   1.083953605  -0.000129976  -0.000270882
  -0.542089365   0.939045577   0.000211670
  -0.000538030   0.000174830   2.002481632

ATOMIC_POSITIONS (crystal)
C            -0.0000161428       -0.0000096953        0.1667117669
C             0.0017866404        0.0009881923        0.4991953886
C             0.0003807869        0.0001827855        0.8335012017
C             0.1666563186        0.3333400381        0.1667033140
C             0.3330508135        0.1665806775        0.4999750541
C             0.1666844503        0.3333081578        0.8332924961
C             0.5000100586       -0.0000141977        0.1667112393
C             0.4993298844        0.0001208608        0.4995237207
C             0.4998199197        0.0001311992        0.8334645298
C             0.6666746483        0.3333366020        0.1667062749
C             0.8340184055        0.1677415747        0.4994697453
C             0.6666129687        0.3333217252        0.8332946605
C             0.0000095177        0.5000014777        0.1666931794
C             0.0001567438        0.5001284858        0.4999274852
C             0.0000034694        0.4999912002        0.8332985531
C             0.1666583632        0.8333191410        0.1667041045
C             0.3321026661        0.6660981226        0.4994298304
C             0.1666739289        0.8333971770        0.8332927959
C             0.5000106428        0.5000221675        0.1667121614
C             0.4989336622        0.4986729329        0.4993017535
C             0.4997895295        0.4996212607        0.8334952782
C             0.6666614984        0.8333308743        0.1667168909
C             0.8343792715        0.6660766214        0.4992392905
C             0.6666670004        0.8333660372        0.8333229912
H             0.6798083223        0.7465358129        0.6216821528
H             0.6797966317        0.9037387688        0.6216261412



     Writing config-only to output data dir ../../results/server/1h2_abs/1H2abs_C.save/
     NEW-OLD atomic charge density approx. for the potential

     Check: negative core charge=   -0.000002
     extrapolated charge  113.29196, renormalised to   98.00000

     total cpu time spent up to now is       73.4 secs

     Self-consistent Calculation

     iteration #  1     ecut=    40.00 Ry     beta= 0.05
     Davidson diagonalization with overlap
     c_bands:  1 eigenvalues not converged
     c_bands:  2 eigenvalues not converged
     c_bands:  1 eigenvalues not converged
     c_bands:  3 eigenvalues not converged
     c_bands:  5 eigenvalues not converged
     c_bands:  1 eigenvalues not converged
     c_bands:  4 eigenvalues not converged
     c_bands:  1 eigenvalues not converged
     c_bands:  1 eigenvalues not converged
     c_bands:  1 eigenvalues not converged
     c_bands:  1 eigenvalues not converged
     c_bands:  1 eigenvalues not converged
     c_bands:  1 eigenvalues not converged
     c_bands:  1 eigenvalues not converged
     c_bands:  1 eigenvalues not converged
     c_bands:  1 eigenvalues not converged
     c_bands:  1 eigenvalues not converged
     c_bands:  1 eigenvalues not converged
     c_bands:  1 eigenvalues not converged
     c_bands:  2 eigenvalues not converged
     c_bands:  2 eigenvalues not converged
     c_bands:  1 eigenvalues not converged
     c_bands:  2 eigenvalues not converged
     c_bands:  2 eigenvalues not converged
     c_bands:  2 eigenvalues not converged
     c_bands:  1 eigenvalues not converged
     c_bands:  2 eigenvalues not converged
     c_bands:  2 eigenvalues not converged
     c_bands:  2 eigenvalues not converged
     c_bands:  2 eigenvalues not converged
     c_bands:  1 eigenvalues not converged
     c_bands:  1 eigenvalues not converged
     c_bands:  1 eigenvalues not converged
     c_bands:  1 eigenvalues not converged
     c_bands:  1 eigenvalues not converged
     c_bands:  1 eigenvalues not converged
     c_bands:  1 eigenvalues not converged
     c_bands:  1 eigenvalues not converged
     c_bands:  1 eigenvalues not converged
     c_bands:  1 eigenvalues not converged
     c_bands:  1 eigenvalues not converged
     ethr =  1.00E-06,  avg # of iterations = 19.6

     total cpu time spent up to now is       87.9 secs

     total energy              =    -287.15699637 Ry
     estimated scf accuracy    <       1.77975055 Ry

     iteration #  2     ecut=    40.00 Ry     beta= 0.05
     Davidson diagonalization with overlap
     ethr =  1.82E-03,  avg # of iterations =  3.5

     total cpu time spent up to now is       91.2 secs

     total energy              =    -288.33819531 Ry
     estimated scf accuracy    <       0.05337664 Ry

     iteration #  3     ecut=    40.00 Ry     beta= 0.05
     Davidson diagonalization with overlap
     c_bands:  1 eigenvalues not converged
     ethr =  5.45E-05,  avg # of iterations = 11.5

     total cpu time spent up to now is       98.0 secs

     total energy              =    -288.38868264 Ry
     estimated scf accuracy    <       0.02028906 Ry

     iteration #  4     ecut=    40.00 Ry     beta= 0.05
     Davidson diagonalization with overlap
     ethr =  2.07E-05,  avg # of iterations =  2.4

     total cpu time spent up to now is      100.2 secs

     total energy              =    -288.38329263 Ry
     estimated scf accuracy    <       0.01804471 Ry

     iteration #  5     ecut=    40.00 Ry     beta= 0.05
     Davidson diagonalization with overlap
     ethr =  1.84E-05,  avg # of iterations =  2.0

     total cpu time spent up to now is      102.3 secs

     total energy              =    -288.38318097 Ry
     estimated scf accuracy    <       0.00299756 Ry

     iteration #  6     ecut=    40.00 Ry     beta= 0.05
     Davidson diagonalization with overlap
     ethr =  3.06E-06,  avg # of iterations =  8.0

     total cpu time spent up to now is      107.1 secs

     total energy              =    -288.38433609 Ry
     estimated scf accuracy    <       0.00066907 Ry

     iteration #  7     ecut=    40.00 Ry     beta= 0.05
     Davidson diagonalization with overlap
     ethr =  6.83E-07,  avg # of iterations =  4.0

     total cpu time spent up to now is      110.3 secs

     total energy              =    -288.38447781 Ry
     estimated scf accuracy    <       0.00092932 Ry

     iteration #  8     ecut=    40.00 Ry     beta= 0.05
     Davidson diagonalization with overlap
     ethr =  6.83E-07,  avg # of iterations =  1.1

     total cpu time spent up to now is      112.3 secs

     total energy              =    -288.38419993 Ry
     estimated scf accuracy    <       0.00095036 Ry

     iteration #  9     ecut=    40.00 Ry     beta= 0.05
     Davidson diagonalization with overlap
     ethr =  6.83E-07,  avg # of iterations =  2.0

     total cpu time spent up to now is      114.4 secs

     total energy              =    -288.38427353 Ry
     estimated scf accuracy    <       0.00018572 Ry

     iteration # 10     ecut=    40.00 Ry     beta= 0.05
     Davidson diagonalization with overlap
     ethr =  1.90E-07,  avg # of iterations =  2.2

     total cpu time spent up to now is      116.4 secs

     total energy              =    -288.38429121 Ry
     estimated scf accuracy    <       0.00016670 Ry

     iteration # 11     ecut=    40.00 Ry     beta= 0.05
     Davidson diagonalization with overlap
     ethr =  1.70E-07,  avg # of iterations =  1.0

     total cpu time spent up to now is      118.2 secs

     total energy              =    -288.38423174 Ry
     estimated scf accuracy    <       0.00017286 Ry

     iteration # 12     ecut=    40.00 Ry     beta= 0.05
     Davidson diagonalization with overlap
     ethr =  1.70E-07,  avg # of iterations =  2.0

     total cpu time spent up to now is      120.2 secs

     total energy              =    -288.38423958 Ry
     estimated scf accuracy    <       0.00003718 Ry

     iteration # 13     ecut=    40.00 Ry     beta= 0.05
     Davidson diagonalization with overlap
     ethr =  3.79E-08,  avg # of iterations =  4.0

     total cpu time spent up to now is      123.0 secs

     total energy              =    -288.38424704 Ry
     estimated scf accuracy    <       0.00001484 Ry

     iteration # 14     ecut=    40.00 Ry     beta= 0.05
     Davidson diagonalization with overlap
     ethr =  1.51E-08,  avg # of iterations =  1.9

     total cpu time spent up to now is      125.0 secs

     total energy              =    -288.38424310 Ry
     estimated scf accuracy    <       0.00001155 Ry

     iteration # 15     ecut=    40.00 Ry     beta= 0.05
     Davidson diagonalization with overlap
     ethr =  1.18E-08,  avg # of iterations =  2.2

     total cpu time spent up to now is      127.3 secs

     total energy              =    -288.38424511 Ry
     estimated scf accuracy    <       0.00000270 Ry

     iteration # 16     ecut=    40.00 Ry     beta= 0.05
     Davidson diagonalization with overlap
     ethr =  2.76E-09,  avg # of iterations =  4.7

     total cpu time spent up to now is      130.6 secs

     total energy              =    -288.38424674 Ry
     estimated scf accuracy    <       0.00000298 Ry

     iteration # 17     ecut=    40.00 Ry     beta= 0.05
     Davidson diagonalization with overlap
     ethr =  2.76E-09,  avg # of iterations =  1.0

     total cpu time spent up to now is      132.3 secs

     total energy              =    -288.38424708 Ry
     estimated scf accuracy    <       0.00000331 Ry

     iteration # 18     ecut=    40.00 Ry     beta= 0.05
     Davidson diagonalization with overlap
     ethr =  2.76E-09,  avg # of iterations =  1.0

     total cpu time spent up to now is      134.1 secs

     total energy              =    -288.38424596 Ry
     estimated scf accuracy    <       0.00000315 Ry

     iteration # 19     ecut=    40.00 Ry     beta= 0.05
     Davidson diagonalization with overlap
     ethr =  2.76E-09,  avg # of iterations =  3.3

     total cpu time spent up to now is      136.6 secs

     End of self-consistent calculation

     Number of k-points >= 100: set verbosity='high' to print the bands.

     the Fermi energy is    11.2829 ev

!    total energy              =    -288.38424884 Ry
     estimated scf accuracy    <       0.00000018 Ry
     smearing contrib. (-TS)   =      -0.00054835 Ry
     internal energy E=F+TS    =    -288.38370049 Ry

     The total energy is F=E-TS. E is the sum of the following terms:
     one-electron contribution =       7.07651317 Ry
     hartree contribution      =      60.36570671 Ry
     xc contribution           =    -105.47209330 Ry
     ewald contribution        =    -250.35382706 Ry

     convergence has been achieved in  19 iterations

     Forces acting on atoms (cartesian axes, Ry/au):

     atom    1 type  1   force =    -0.00049385    0.00001562    0.00666281
     atom    2 type  1   force =     0.04533104    0.02844831   -0.07622759
     atom    3 type  1   force =     0.01935915    0.01125105    0.01761673
     atom    4 type  1   force =    -0.00053503    0.00002238    0.00534161
     atom    5 type  1   force =    -0.00418377   -0.00366891   -0.00301553
     atom    6 type  1   force =     0.00010361   -0.00074841   -0.00533773
     atom    7 type  1   force =     0.00056447   -0.00028723    0.00652157
     atom    8 type  1   force =    -0.02199142   -0.00141406   -0.04376130
     atom    9 type  1   force =    -0.01754682    0.00868612    0.01297685
     atom   10 type  1   force =     0.00047340   -0.00021687    0.00582939
     atom   11 type  1   force =     0.00829717    0.02483028   -0.04515331
     atom   12 type  1   force =    -0.00095860   -0.00032702   -0.00511314
     atom   13 type  1   force =     0.00029494    0.00034533    0.00387259
     atom   14 type  1   force =     0.00769510    0.00176815   -0.00699939
     atom   15 type  1   force =     0.00013114    0.00003319   -0.00228112
     atom   16 type  1   force =     0.00016356   -0.00089429    0.00542371
     atom   17 type  1   force =    -0.03187307   -0.01747355   -0.05242855
     atom   18 type  1   force =    -0.00113100    0.00078293   -0.00519140
     atom   19 type  1   force =    -0.00022612    0.00113547    0.00665610
     atom   20 type  1   force =    -0.01514307   -0.03325733   -0.06394059
     atom   21 type  1   force =    -0.00148115   -0.02162603    0.01692021
     atom   22 type  1   force =    -0.00021778   -0.00048736    0.00745455
     atom   23 type  1   force =     0.03811893   -0.01053175   -0.06495379
     atom   24 type  1   force =     0.00043975    0.00122636   -0.01721836
     atom   25 type  2   force =     0.03803511   -0.08050782    0.14989131
     atom   26 type  2   force =    -0.06322570    0.09289541    0.14645438
     The non-local contrib.  to forces
     atom    1 type  1   force =     0.00054983    0.00057342    0.01579946
     atom    2 type  1   force =    -0.01881479   -0.01509582   -0.01884836
     atom    3 type  1   force =    -0.00842320   -0.00459497    0.00806054
     atom    4 type  1   force =     0.00016700   -0.00092758    0.01169729
     atom    5 type  1   force =     0.01543236    0.00853574    0.04902946
     atom    6 type  1   force =     0.00342660   -0.00199300   -0.02113441
     atom    7 type  1   force =    -0.00015947    0.00139361    0.01522038
     atom    8 type  1   force =     0.04883199   -0.00279880    0.06283781
     atom    9 type  1   force =     0.01273368   -0.00526582    0.00107200
     atom   10 type  1   force =    -0.00093858   -0.00086359    0.01343777
     atom   11 type  1   force =    -0.01041209   -0.05836838    0.07375075
     atom   12 type  1   force =    -0.00488409   -0.00207139   -0.02286008
     atom   13 type  1   force =    -0.00012311    0.00026064    0.00960212
     atom   14 type  1   force =    -0.01732227   -0.01011950    0.03779514
     atom   15 type  1   force =    -0.00164993    0.00008175   -0.00862024
     atom   16 type  1   force =    -0.00043452    0.00009522    0.01190434
     atom   17 type  1   force =     0.02517632    0.01070975   -0.01520789
     atom   18 type  1   force =    -0.00054651    0.00282124   -0.02133784
     atom   19 type  1   force =     0.00090503   -0.00008468    0.01572559
     atom   20 type  1   force =     0.03552537    0.04697801    0.05997527
     atom   21 type  1   force =     0.00200468    0.01307493    0.00255523
     atom   22 type  1   force =     0.00004776   -0.00066741    0.01633471
     atom   23 type  1   force =    -0.06677308    0.01127496    0.07810196
     atom   24 type  1   force =    -0.00125046   -0.00137531   -0.09101015
     atom   25 type  2   force =    -0.02946727    0.05279875   -0.00923977
     atom   26 type  2   force =     0.03142624   -0.05314632   -0.00421339
     The ionic contribution  to forces
     atom    1 type  1   force =     0.01300929    0.00983053   -0.16788448
     atom    2 type  1   force =     0.61302213    0.38516661   -1.12844080
     atom    3 type  1   force =     0.22268226    0.14511202    0.93045419
     atom    4 type  1   force =    -0.00171546   -0.00270408   -0.14815799
     atom    5 type  1   force =     0.04886095   -0.01503213   -0.49713685
     atom    6 type  1   force =    -0.02094013    0.01360268    0.66896201
     atom    7 type  1   force =    -0.00885048    0.00914960   -0.16494250
     atom    8 type  1   force =    -0.66588023    0.32481952   -1.09111300
     atom    9 type  1   force =    -0.21856247    0.10827800    0.90362949
     atom   10 type  1   force =    -0.00257515   -0.00469526   -0.14696762
     atom   11 type  1   force =     0.00587956    0.77185357   -1.16274207
     atom   12 type  1   force =     0.01928185   -0.01774790    0.69887832
     atom   13 type  1   force =     0.00255459    0.00201544   -0.16266648
     atom   14 type  1   force =     0.04925143   -0.02037694   -0.50713140
     atom   15 type  1   force =     0.02637843    0.00556794    0.65892988
     atom   16 type  1   force =    -0.00041581   -0.00119643   -0.14811577
     atom   17 type  1   force =    -0.59436379   -0.31173999   -0.99881521
     atom   18 type  1   force =     0.02469892   -0.01733797    0.67133351
     atom   19 type  1   force =     0.00149557   -0.01070734   -0.16707199
     atom   20 type  1   force =    -0.10073499   -0.79291121   -1.23824748
     atom   21 type  1   force =    -0.03232824   -0.25294867    0.95281064
     atom   22 type  1   force =    -0.00399428   -0.00158613   -0.15995076
     atom   23 type  1   force =     0.74467636   -0.36573699   -1.33269867
     atom   24 type  1   force =    -0.03970590    0.00808001    1.40714611
     atom   25 type  2   force =     0.35800620   -0.66814239    1.21773673
     atom   26 type  2   force =    -0.43973060    0.69938747    1.11220218
     The local contribution  to forces
     atom    1 type  1   force =    -0.01400184   -0.01034258    0.15907954
     atom    2 type  1   force =    -0.54910132   -0.34187167    1.07002551
     atom    3 type  1   force =    -0.19515466   -0.12936930   -0.92045612
     atom    4 type  1   force =     0.00101214    0.00361872    0.14208596
     atom    5 type  1   force =    -0.06795261    0.00296840    0.44609438
     atom    6 type  1   force =     0.01773207   -0.01245021   -0.65338930
     atom    7 type  1   force =     0.00956243   -0.01078849    0.15655479
     atom    8 type  1   force =     0.59510368   -0.32308807    0.98472668
     atom    9 type  1   force =     0.18859087   -0.09444715   -0.89137412
     atom   10 type  1   force =     0.00394545    0.00530560    0.13964788
     atom   11 type  1   force =     0.01273152   -0.68871213    1.04397921
     atom   12 type  1   force =    -0.01552450    0.01936926   -0.68130886
     atom   13 type  1   force =    -0.00211168   -0.00190268    0.15721854
     atom   14 type  1   force =    -0.02438327    0.03198662    0.46305598
     atom   15 type  1   force =    -0.02458008   -0.00559390   -0.65254049
     atom   16 type  1   force =     0.00099381    0.00020142    0.14192322
     atom   17 type  1   force =     0.53742842    0.28354796    0.96071963
     atom   18 type  1   force =    -0.02527966    0.01540455   -0.65540726
     atom   19 type  1   force =    -0.00261022    0.01191758    0.15832002
     atom   20 type  1   force =     0.05059894    0.71270638    1.11415427
     atom   21 type  1   force =     0.02885843    0.21861936   -0.93801524
     atom   22 type  1   force =     0.00370818    0.00173751    0.15136893
     atom   23 type  1   force =    -0.64011829    0.34382278    1.18940953
     atom   24 type  1   force =     0.04134227   -0.00555279   -1.33434076
     atom   25 type  2   force =    -0.29051030    0.53485061   -1.05856291
     atom   26 type  2   force =     0.34509019   -0.55335852   -0.96148749
     The core correction contribution to forces
     atom    1 type  1   force =    -0.00003376   -0.00003351   -0.00030409
     atom    2 type  1   force =     0.00046938    0.00038881    0.00087439
     atom    3 type  1   force =     0.00020356    0.00008266   -0.00028738
     atom    4 type  1   force =     0.00000051    0.00003862   -0.00023056
     atom    5 type  1   force =    -0.00061734   -0.00017717   -0.00118173
     atom    6 type  1   force =     0.00001188    0.00002207    0.00038067
     atom    7 type  1   force =    -0.00000536   -0.00004525   -0.00029143
     atom    8 type  1   force =    -0.00029274   -0.00028350   -0.00037513
     atom    9 type  1   force =    -0.00026355    0.00009170   -0.00018697
     atom   10 type  1   force =     0.00004275    0.00003760   -0.00024879
     atom   11 type  1   force =     0.00018505    0.00030059   -0.00031337
     atom   12 type  1   force =     0.00003637    0.00005301    0.00034745
     atom   13 type  1   force =    -0.00001295   -0.00002312   -0.00021203
     atom   14 type  1   force =     0.00022569    0.00032475   -0.00093634
     atom   15 type  1   force =    -0.00000220   -0.00002853    0.00011142
     atom   16 type  1   force =     0.00002216    0.00000347   -0.00023401
     atom   17 type  1   force =    -0.00036240   -0.00014844    0.00069911
     atom   18 type  1   force =    -0.00000616    0.00004232    0.00037755
     atom   19 type  1   force =    -0.00002983   -0.00000503   -0.00029765
     atom   20 type  1   force =    -0.00059814   -0.00027031    0.00001426
     atom   21 type  1   force =    -0.00002645   -0.00031569   -0.00026558
     atom   22 type  1   force =     0.00001733    0.00002756   -0.00030856
     atom   23 type  1   force =     0.00057104    0.00005573    0.00005938
     atom   24 type  1   force =     0.00006236    0.00006628    0.00114144
     atom   25 type  2   force =     0.00000000    0.00000000    0.00000000
     atom   26 type  2   force =     0.00000000    0.00000000    0.00000000
     The Hubbard contrib.    to forces
     atom    1 type  1   force =     0.00000000    0.00000000    0.00000000
     atom    2 type  1   force =     0.00000000    0.00000000    0.00000000
     atom    3 type  1   force =     0.00000000    0.00000000    0.00000000
     atom    4 type  1   force =     0.00000000    0.00000000    0.00000000
     atom    5 type  1   force =     0.00000000    0.00000000    0.00000000
     atom    6 type  1   force =     0.00000000    0.00000000    0.00000000
     atom    7 type  1   force =     0.00000000    0.00000000    0.00000000
     atom    8 type  1   force =     0.00000000    0.00000000    0.00000000
     atom    9 type  1   force =     0.00000000    0.00000000    0.00000000
     atom   10 type  1   force =     0.00000000    0.00000000    0.00000000
     atom   11 type  1   force =     0.00000000    0.00000000    0.00000000
     atom   12 type  1   force =     0.00000000    0.00000000    0.00000000
     atom   13 type  1   force =     0.00000000    0.00000000    0.00000000
     atom   14 type  1   force =     0.00000000    0.00000000    0.00000000
     atom   15 type  1   force =     0.00000000    0.00000000    0.00000000
     atom   16 type  1   force =     0.00000000    0.00000000    0.00000000
     atom   17 type  1   force =     0.00000000    0.00000000    0.00000000
     atom   18 type  1   force =     0.00000000    0.00000000    0.00000000
     atom   19 type  1   force =     0.00000000    0.00000000    0.00000000
     atom   20 type  1   force =     0.00000000    0.00000000    0.00000000
     atom   21 type  1   force =     0.00000000    0.00000000    0.00000000
     atom   22 type  1   force =     0.00000000    0.00000000    0.00000000
     atom   23 type  1   force =     0.00000000    0.00000000    0.00000000
     atom   24 type  1   force =     0.00000000    0.00000000    0.00000000
     atom   25 type  2   force =     0.00000000    0.00000000    0.00000000
     atom   26 type  2   force =     0.00000000    0.00000000    0.00000000
     The SCF correction term to forces
     atom    1 type  1   force =    -0.00001761   -0.00001214   -0.00002251
     atom    2 type  1   force =    -0.00024459   -0.00013952    0.00016680
     atom    3 type  1   force =     0.00005094    0.00002074   -0.00014937
     atom    4 type  1   force =     0.00000054   -0.00000320   -0.00004797
     atom    5 type  1   force =     0.00009264    0.00003636    0.00018433
     atom    6 type  1   force =    -0.00012705    0.00007016   -0.00015159
     atom    7 type  1   force =     0.00001711    0.00000340   -0.00001455
     atom    8 type  1   force =     0.00024564   -0.00006312    0.00016746
     atom    9 type  1   force =    -0.00004558    0.00002948   -0.00015843
     atom   10 type  1   force =    -0.00000130   -0.00000112   -0.00003473
     atom   11 type  1   force =    -0.00008710   -0.00024328    0.00017729
     atom   12 type  1   force =     0.00013152    0.00007009   -0.00016484
     atom   13 type  1   force =    -0.00001214   -0.00000486   -0.00006445
     atom   14 type  1   force =    -0.00007673   -0.00004668    0.00022235
     atom   15 type  1   force =    -0.00001532    0.00000603   -0.00015656
     atom   16 type  1   force =    -0.00000232    0.00000212   -0.00004895
     atom   17 type  1   force =     0.00024815    0.00015727    0.00018093
     atom   18 type  1   force =     0.00000217   -0.00014711   -0.00015224
     atom   19 type  1   force =     0.00001309    0.00001503   -0.00001475
     atom   20 type  1   force =     0.00006551    0.00023991    0.00016821
     atom   21 type  1   force =     0.00001019   -0.00005587   -0.00015972
     atom   22 type  1   force =     0.00000298    0.00000120    0.00001535
     atom   23 type  1   force =    -0.00023734    0.00005187    0.00017914
     atom   24 type  1   force =    -0.00000875    0.00000826   -0.00014988
     atom   25 type  2   force =     0.00000625   -0.00001470   -0.00003761
     atom   26 type  2   force =    -0.00001177    0.00001287   -0.00004180

     Total force =     0.310653     Total SCF correction =     0.000992


     Computing stress (Cartesian axis) and pressure

          total   stress  (Ry/bohr**3)                   (kbar)     P=      981.94
   0.00904838   0.00003900  -0.00005730         1331.06        5.74       -8.43
   0.00003900   0.00901615   0.00001926            5.74     1326.32        2.83
  -0.00005730   0.00001926   0.00196068           -8.43        2.83      288.43

     Energy error            =      2.8E+00 Ry
     Gradient error          =      1.5E-01 Ry/Bohr
     Cell gradient error     =      1.3E+03 kbar

     number of scf cycles    =   2
     number of bfgs steps    =   1

     enthalpy           old  =    -285.6281117344 Ry
     enthalpy           new  =    -288.3842488363 Ry

     CASE: enthalpy          _new < enthalpy          _old

     new trust radius        =       0.3609496602 bohr
     new conv_thr            =       0.0000010000 Ry

     new unit-cell volume =   1193.88219 a.u.^3 (   176.91509 Ang^3 )
     density =      2.72459 g/cm^3

CELL_PARAMETERS (alat=  8.00000437)
   1.129650418   0.002088560  -0.001585112
  -0.563016707   0.975241332   0.001261688
  -0.003350700   0.001147737   2.114328252

ATOMIC_POSITIONS (crystal)
C            -0.0000533065        0.0000331787        0.1671826008
C             0.0075705643        0.0039103438        0.4949366190
C             0.0042752273        0.0021750038        0.8345560952
C             0.1665854365        0.3333173125        0.1670782876
C             0.3328621613        0.1660343185        0.4997790436
C             0.1665416381        0.3332264628        0.8329307215
C             0.5000530094       -0.0000266657        0.1671702843
C             0.4972381893       -0.0007075251        0.4971376194
C             0.4979135636        0.0017100093        0.8342117853
C             0.6667127119        0.3332696778        0.1671172538
C             0.8360161386        0.1694376009        0.4971631048
C             0.6665854621        0.3332876896        0.8329462910
C             0.0000748399        0.5000792996        0.1669645036
C             0.0013561313        0.5000405285        0.4995308462
C             0.0000211654        0.5000345418        0.8332127834
C             0.1666147823        0.8331581848        0.1670839432
C             0.3282428071        0.6641444204        0.4965693859
C             0.1664998589        0.8333290618        0.8329442407
C             0.5000577279        0.5002084390        0.1671807545
C             0.4960134636        0.4959428923        0.4958240694
C             0.4977035243        0.4959019750        0.8345057966
C             0.6665745292        0.8332214564        0.1672449243
C             0.8369011203        0.6658893201        0.4959117436
C             0.6669045498        0.8335301862        0.8316713963
H             0.6787985734        0.7409418380        0.6296512335
H             0.6785961307        0.9112384493        0.6294866726



     Writing config-only to output data dir ../../results/server/1h2_abs/1H2abs_C.save/
     NEW-OLD atomic charge density approx. for the potential

     Check: negative core charge=   -0.000002
     extrapolated charge  110.34127, renormalised to   98.00000

     total cpu time spent up to now is      143.6 secs

     Self-consistent Calculation

     iteration #  1     ecut=    40.00 Ry     beta= 0.05
     Davidson diagonalization with overlap
     c_bands:  1 eigenvalues not converged
     c_bands:  1 eigenvalues not converged
     c_bands:  2 eigenvalues not converged
     c_bands:  5 eigenvalues not converged
     c_bands:  1 eigenvalues not converged
     c_bands:  4 eigenvalues not converged
     c_bands:  2 eigenvalues not converged
     c_bands:  1 eigenvalues not converged
     c_bands:  1 eigenvalues not converged
     c_bands:  1 eigenvalues not converged
     c_bands:  2 eigenvalues not converged
     c_bands:  3 eigenvalues not converged
     c_bands:  1 eigenvalues not converged
     c_bands:  1 eigenvalues not converged
     c_bands:  2 eigenvalues not converged
     c_bands:  2 eigenvalues not converged
     c_bands:  1 eigenvalues not converged
     c_bands:  1 eigenvalues not converged
     c_bands:  1 eigenvalues not converged
     c_bands:  2 eigenvalues not converged
     c_bands:  1 eigenvalues not converged
     c_bands:  2 eigenvalues not converged
     c_bands:  2 eigenvalues not converged
     c_bands:  1 eigenvalues not converged
     c_bands:  1 eigenvalues not converged
     c_bands:  2 eigenvalues not converged
     c_bands:  1 eigenvalues not converged
     c_bands:  1 eigenvalues not converged
     c_bands:  1 eigenvalues not converged
     ethr =  1.00E-06,  avg # of iterations = 18.9

     total cpu time spent up to now is      156.7 secs

     total energy              =    -288.27785890 Ry
     estimated scf accuracy    <       0.75275413 Ry

     iteration #  2     ecut=    40.00 Ry     beta= 0.05
     Davidson diagonalization with overlap
     ethr =  7.68E-04,  avg # of iterations =  4.7

     total cpu time spent up to now is      160.3 secs

     total energy              =    -289.01312952 Ry
     estimated scf accuracy    <       0.04237986 Ry

     iteration #  3     ecut=    40.00 Ry     beta= 0.05
     Davidson diagonalization with overlap
     ethr =  4.32E-05,  avg # of iterations = 10.6

     total cpu time spent up to now is      166.3 secs

     total energy              =    -289.02947180 Ry
     estimated scf accuracy    <       0.04200364 Ry

     iteration #  4     ecut=    40.00 Ry     beta= 0.05
     Davidson diagonalization with overlap
     ethr =  4.29E-05,  avg # of iterations =  1.2

     total cpu time spent up to now is      168.3 secs

     total energy              =    -289.03019849 Ry
     estimated scf accuracy    <       0.04245395 Ry

     iteration #  5     ecut=    40.00 Ry     beta= 0.05
     Davidson diagonalization with overlap
     ethr =  4.29E-05,  avg # of iterations =  1.0

     total cpu time spent up to now is      170.1 secs

     total energy              =    -289.03052344 Ry
     estimated scf accuracy    <       0.04242671 Ry

     iteration #  6     ecut=    40.00 Ry     beta= 0.05
     Davidson diagonalization with overlap
     ethr =  4.29E-05,  avg # of iterations =  1.0

     total cpu time spent up to now is      172.0 secs

     total energy              =    -289.26324925 Ry
     estimated scf accuracy    <       0.04400713 Ry

     iteration #  7     ecut=    40.00 Ry     beta= 0.05
     Davidson diagonalization with overlap
     c_bands:  2 eigenvalues not converged
     c_bands:  2 eigenvalues not converged
     ethr =  4.29E-05,  avg # of iterations =  9.3

     total cpu time spent up to now is      178.5 secs

     total energy              =    -288.94722491 Ry
     estimated scf accuracy    <       0.79352058 Ry

     iteration #  8     ecut=    40.00 Ry     beta= 0.05
     Davidson diagonalization with overlap
     c_bands:  2 eigenvalues not converged
     ethr =  4.29E-05,  avg # of iterations =  8.1

     total cpu time spent up to now is      184.1 secs

     total energy              =    -289.02158924 Ry
     estimated scf accuracy    <       0.03788221 Ry

     iteration #  9     ecut=    40.00 Ry     beta= 0.05
     Davidson diagonalization with overlap
     ethr =  3.87E-05,  avg # of iterations =  7.0

     total cpu time spent up to now is      188.8 secs

     total energy              =    -289.07464222 Ry
     estimated scf accuracy    <       0.11269055 Ry

     iteration # 10     ecut=    40.00 Ry     beta= 0.05
     Davidson diagonalization with overlap
     ethr =  3.87E-05,  avg # of iterations =  1.0

     total cpu time spent up to now is      190.6 secs

     total energy              =    -289.02006279 Ry
     estimated scf accuracy    <       0.12287781 Ry

     iteration # 11     ecut=    40.00 Ry     beta= 0.05
     Davidson diagonalization with overlap
     ethr =  3.87E-05,  avg # of iterations =  2.0

     total cpu time spent up to now is      192.9 secs

     total energy              =    -289.00926371 Ry
     estimated scf accuracy    <       0.02751277 Ry

     iteration # 12     ecut=    40.00 Ry     beta= 0.05
     Davidson diagonalization with overlap
     ethr =  2.81E-05,  avg # of iterations =  3.5

     total cpu time spent up to now is      196.0 secs

     total energy              =    -289.01597526 Ry
     estimated scf accuracy    <       0.00050208 Ry

     iteration # 13     ecut=    40.00 Ry     beta= 0.05
     Davidson diagonalization with overlap
     ethr =  5.12E-07,  avg # of iterations =  7.9

     total cpu time spent up to now is      201.1 secs

     total energy              =    -289.01647800 Ry
     estimated scf accuracy    <       0.00038803 Ry

     iteration # 14     ecut=    40.00 Ry     beta= 0.05
     Davidson diagonalization with overlap
     ethr =  3.96E-07,  avg # of iterations =  1.1

     total cpu time spent up to now is      203.2 secs

     total energy              =    -289.01650378 Ry
     estimated scf accuracy    <       0.00036245 Ry

     iteration # 15     ecut=    40.00 Ry     beta= 0.05
     Davidson diagonalization with overlap
     ethr =  3.70E-07,  avg # of iterations =  1.0

     total cpu time spent up to now is      204.9 secs

     total energy              =    -289.01634410 Ry
     estimated scf accuracy    <       0.00039166 Ry

     iteration # 16     ecut=    40.00 Ry     beta= 0.05
     Davidson diagonalization with overlap
     ethr =  3.70E-07,  avg # of iterations =  3.2

     total cpu time spent up to now is      207.7 secs

     total energy              =    -289.01660180 Ry
     estimated scf accuracy    <       0.00020093 Ry

     iteration # 17     ecut=    40.00 Ry     beta= 0.05
     Davidson diagonalization with overlap
     ethr =  2.05E-07,  avg # of iterations =  5.0

     total cpu time spent up to now is      211.3 secs

     total energy              =    -289.01645238 Ry
     estimated scf accuracy    <       0.00095265 Ry

     iteration # 18     ecut=    40.00 Ry     beta= 0.05
     Davidson diagonalization with overlap
     ethr =  2.05E-07,  avg # of iterations =  2.1

     total cpu time spent up to now is      213.5 secs

     total energy              =    -289.01627998 Ry
     estimated scf accuracy    <       0.00036122 Ry

     iteration # 19     ecut=    40.00 Ry     beta= 0.05
     Davidson diagonalization with overlap
     ethr =  2.05E-07,  avg # of iterations =  5.0

     total cpu time spent up to now is      216.9 secs

     total energy              =    -289.01637608 Ry
     estimated scf accuracy    <       0.00012647 Ry

     iteration # 20     ecut=    40.00 Ry     beta= 0.05
     Davidson diagonalization with overlap
     ethr =  1.29E-07,  avg # of iterations =  1.7

     total cpu time spent up to now is      218.8 secs

     total energy              =    -289.01637820 Ry
     estimated scf accuracy    <       0.00004432 Ry

     iteration # 21     ecut=    40.00 Ry     beta= 0.05
     Davidson diagonalization with overlap
     ethr =  4.52E-08,  avg # of iterations =  4.0

     total cpu time spent up to now is      221.5 secs

     total energy              =    -289.01637667 Ry
     estimated scf accuracy    <       0.00002675 Ry

     iteration # 22     ecut=    40.00 Ry     beta= 0.05
     Davidson diagonalization with overlap
     ethr =  2.73E-08,  avg # of iterations =  4.8

     total cpu time spent up to now is      225.1 secs

     total energy              =    -289.01637088 Ry
     estimated scf accuracy    <       0.00005517 Ry

     iteration # 23     ecut=    40.00 Ry     beta= 0.05
     Davidson diagonalization with overlap
     ethr =  2.73E-08,  avg # of iterations =  2.0

     total cpu time spent up to now is      227.4 secs

     total energy              =    -289.01637550 Ry
     estimated scf accuracy    <       0.00000891 Ry

     iteration # 24     ecut=    40.00 Ry     beta= 0.05
     Davidson diagonalization with overlap
     ethr =  9.09E-09,  avg # of iterations =  2.0

     total cpu time spent up to now is      229.5 secs

     total energy              =    -289.01637502 Ry
     estimated scf accuracy    <       0.00000717 Ry

     iteration # 25     ecut=    40.00 Ry     beta= 0.05
     Davidson diagonalization with overlap
     ethr =  7.31E-09,  avg # of iterations =  2.0

     total cpu time spent up to now is      231.6 secs

     total energy              =    -289.01637400 Ry
     estimated scf accuracy    <       0.00000383 Ry

     iteration # 26     ecut=    40.00 Ry     beta= 0.05
     Davidson diagonalization with overlap
     ethr =  3.91E-09,  avg # of iterations =  4.0

     total cpu time spent up to now is      234.5 secs

     End of self-consistent calculation

     Number of k-points >= 100: set verbosity='high' to print the bands.

     the Fermi energy is     9.3578 ev

!    total energy              =    -289.01637610 Ry
     estimated scf accuracy    <       0.00000070 Ry
     smearing contrib. (-TS)   =      -0.00047464 Ry
     internal energy E=F+TS    =    -289.01590145 Ry

     The total energy is F=E-TS. E is the sum of the following terms:
     one-electron contribution =     -11.98486379 Ry
     hartree contribution      =      63.42952913 Ry
     xc contribution           =    -102.84400793 Ry
     ewald contribution        =    -237.61655887 Ry

     convergence has been achieved in  26 iterations

     Forces acting on atoms (cartesian axes, Ry/au):

     atom    1 type  1   force =    -0.00265938   -0.00328540    0.00370727
     atom    2 type  1   force =    -0.03141838   -0.02402367   -0.04396562
     atom    3 type  1   force =    -0.03238705   -0.01945249    0.01034648
     atom    4 type  1   force =     0.00362852    0.00253659    0.00329766
     atom    5 type  1   force =     0.01333270    0.00615916   -0.01496956
     atom    6 type  1   force =     0.00280524    0.00399575    0.00309821
     atom    7 type  1   force =    -0.00321323   -0.00258479    0.00398465
     atom    8 type  1   force =     0.03157397   -0.00339059   -0.02528652
     atom    9 type  1   force =     0.02547279   -0.01814591    0.00701774
     atom   10 type  1   force =     0.00189741    0.00311856    0.00354722
     atom   11 type  1   force =    -0.00104350   -0.02961071   -0.02676734
     atom   12 type  1   force =     0.00252847    0.00208525    0.00306575
     atom   13 type  1   force =    -0.00337141   -0.00342937    0.00265124
     atom   14 type  1   force =    -0.01590772   -0.00496657   -0.01545122
     atom   15 type  1   force =    -0.00545275   -0.00307354   -0.00739062
     atom   16 type  1   force =     0.00228512    0.00419991    0.00334968
     atom   17 type  1   force =     0.02618741    0.00796317   -0.03761533
     atom   18 type  1   force =     0.00461904    0.00128461    0.00276688
     atom   19 type  1   force =    -0.00230276   -0.00424940    0.00395374
     atom   20 type  1   force =     0.01810974    0.03455019   -0.03174379
     atom   21 type  1   force =    -0.00194277    0.03100129    0.00980752
     atom   22 type  1   force =     0.00345570    0.00372216    0.00435413
     atom   23 type  1   force =    -0.02961988    0.00830973   -0.03097170
     atom   24 type  1   force =     0.00248094    0.00096760   -0.00351611
     atom   25 type  2   force =    -0.00871184    0.01160059    0.08485986
     atom   26 type  2   force =    -0.00034637   -0.00528212    0.08786977
     The non-local contrib.  to forces
     atom    1 type  1   force =    -0.00508878   -0.00493950    0.01088156
     atom    2 type  1   force =    -0.07775538   -0.05491458   -0.03231139
     atom    3 type  1   force =    -0.06966088   -0.04087463    0.00674929
     atom    4 type  1   force =     0.00862680    0.00455505    0.00865637
     atom    5 type  1   force =     0.03592651    0.01714390    0.01629210
     atom    6 type  1   force =     0.00529600    0.00851502   -0.00527367
     atom    7 type  1   force =    -0.00926831   -0.00328410    0.01117480
     atom    8 type  1   force =     0.08781344    0.00840955    0.05842685
     atom    9 type  1   force =     0.05752344   -0.03791554   -0.00276803
     atom   10 type  1   force =     0.00521969    0.00533475    0.01001246
     atom   11 type  1   force =    -0.02857349   -0.09117203    0.06044579
     atom   12 type  1   force =     0.00759407    0.00507171   -0.00679069
     atom   13 type  1   force =    -0.00810803   -0.00618045    0.00664306
     atom   14 type  1   force =    -0.03651710   -0.01638696    0.01527700
     atom   15 type  1   force =    -0.01055110   -0.00580402   -0.01818982
     atom   16 type  1   force =     0.00629581    0.00758754    0.00880433
     atom   17 type  1   force =     0.06873644    0.02986974   -0.03002632
     atom   18 type  1   force =     0.01050739    0.00086336   -0.00606512
     atom   19 type  1   force =    -0.00571733   -0.00947056    0.01135319
     atom   20 type  1   force =     0.06654924    0.08812481    0.05307721
     atom   21 type  1   force =    -0.00225253    0.07048447   -0.00032462
     atom   22 type  1   force =     0.00805565    0.00644759    0.01182331
     atom   23 type  1   force =    -0.10898773    0.01210282    0.06416421
     atom   24 type  1   force =     0.00409629    0.00051548   -0.08015780
     atom   25 type  2   force =    -0.02425455    0.04284913   -0.00552809
     atom   26 type  2   force =     0.02497310   -0.04264817   -0.00274553
     The ionic contribution  to forces
     atom    1 type  1   force =    -0.03086276   -0.02142695   -0.28176829
     atom    2 type  1   force =     0.14377824    0.08250608   -0.93608099
     atom    3 type  1   force =    -0.02841629   -0.00918985    0.89957249
     atom    4 type  1   force =     0.03547941    0.02002410   -0.27006619
     atom    5 type  1   force =     0.17991398    0.04897018   -0.00929539
     atom    6 type  1   force =    -0.10147812    0.10681138    0.47952744
     atom    7 type  1   force =    -0.03741038   -0.01250058   -0.27218928
     atom    8 type  1   force =    -0.21364712    0.25071125   -0.81919275
     atom    9 type  1   force =    -0.04542343   -0.03306407    0.86718147
     atom   10 type  1   force =     0.03006440    0.02013677   -0.25557709
     atom   11 type  1   force =    -0.11145246    0.29976941   -0.83295281
     atom   12 type  1   force =     0.16484133    0.07394146    0.51795378
     atom   13 type  1   force =    -0.04100626   -0.02732795   -0.28849421
     atom   14 type  1   force =    -0.08124229   -0.07130959   -0.06926797
     atom   15 type  1   force =    -0.01527886   -0.01693228    0.55152478
     atom   16 type  1   force =     0.03275503    0.02837813   -0.26901638
     atom   17 type  1   force =    -0.19992714   -0.10463381   -0.73801126
     atom   18 type  1   force =     0.06105598   -0.12977215    0.48805354
     atom   19 type  1   force =    -0.02625940   -0.03419887   -0.27680217
     atom   20 type  1   force =     0.10237686   -0.27563000   -0.97354319
     atom   21 type  1   force =    -0.05688720   -0.02143357    0.92431260
     atom   22 type  1   force =     0.03375778    0.02833550   -0.27079039
     atom   23 type  1   force =     0.20610100   -0.22725390   -0.99523061
     atom   24 type  1   force =     0.00645179    0.01802802    1.09057486
     atom   25 type  2   force =     0.31562350   -0.54283340    0.89816152
     atom   26 type  2   force =    -0.32290760    0.54989469    0.84141649
     The local contribution  to forces
     atom    1 type  1   force =     0.03297477    0.02283062    0.27456644
     atom    2 type  1   force =    -0.09988228   -0.05322695    0.92243493
     atom    3 type  1   force =     0.06382980    0.02952594   -0.89489900
     atom    4 type  1   force =    -0.04010084   -0.02182330    0.26460588
     atom    5 type  1   force =    -0.20117460   -0.05955472   -0.02055696
     atom    6 type  1   force =     0.09886566   -0.11083584   -0.47129044
     atom    7 type  1   force =     0.04309691    0.01298665    0.26496700
     atom    8 type  1   force =     0.15956567   -0.26222561    0.73555416
     atom    9 type  1   force =     0.01451662    0.05184470   -0.85655355
     atom   10 type  1   force =    -0.03308851   -0.02210365    0.24903191
     atom   11 type  1   force =     0.13815671   -0.24040932    0.74583809
     atom   12 type  1   force =    -0.16916834   -0.07652111   -0.50814956
     atom   13 type  1   force =     0.04537710    0.02982605    0.28435521
     atom   14 type  1   force =     0.10118962    0.08223017    0.03962199
     atom   15 type  1   force =     0.01997494    0.01943659   -0.54068752
     atom   16 type  1   force =    -0.03645345   -0.03147852    0.26346323
     atom   17 type  1   force =     0.15917635    0.08356668    0.72903739
     atom   18 type  1   force =    -0.06652357    0.12987823   -0.47933697
     atom   19 type  1   force =     0.02936377    0.03910390    0.26937340
     atom   20 type  1   force =    -0.14919211    0.22440394    0.88822591
     atom   21 type  1   force =     0.05696143   -0.01643528   -0.91316258
     atom   22 type  1   force =    -0.03798428   -0.03078609    0.26333198
     atom   23 type  1   force =    -0.12952464    0.22377729    0.89976543
     atom   24 type  1   force =    -0.00774968   -0.01749490   -1.01536248
     atom   25 type  2   force =    -0.30006834    0.51156279   -0.80773145
     atom   26 type  2   force =     0.29756832   -0.51249491   -0.75076905
     The core correction contribution to forces
     atom    1 type  1   force =     0.00028487    0.00023114   -0.00021890
     atom    2 type  1   force =     0.00270264    0.00179995    0.00166201
     atom    3 type  1   force =     0.00211544    0.00122614   -0.00076245
     atom    4 type  1   force =    -0.00041195   -0.00020821   -0.00015055
     atom    5 type  1   force =    -0.00155624   -0.00052167   -0.00156350
     atom    6 type  1   force =     0.00031595   -0.00064385    0.00039210
     atom    7 type  1   force =     0.00041441    0.00018413   -0.00021294
     atom    8 type  1   force =    -0.00241150   -0.00041052   -0.00037164
     atom    9 type  1   force =    -0.00138183    0.00114457   -0.00053873
     atom   10 type  1   force =    -0.00027781   -0.00023758   -0.00017786
     atom   11 type  1   force =     0.00103828    0.00243105   -0.00041108
     atom   12 type  1   force =    -0.00094141   -0.00052436    0.00032712
     atom   13 type  1   force =     0.00038005    0.00026391   -0.00010059
     atom   14 type  1   force =     0.00091542    0.00061380   -0.00127571
     atom   15 type  1   force =     0.00038966    0.00022936    0.00021527
     atom   16 type  1   force =    -0.00032080   -0.00032597   -0.00015620
     atom   17 type  1   force =    -0.00209108   -0.00100986    0.00108652
     atom   18 type  1   force =    -0.00045468    0.00055261    0.00037430
     atom   19 type  1   force =     0.00030778    0.00037488   -0.00021795
     atom   20 type  1   force =    -0.00189249   -0.00254640    0.00014848
     atom   21 type  1   force =     0.00025499   -0.00190250   -0.00069818
     atom   22 type  1   force =    -0.00038064   -0.00028391   -0.00023847
     atom   23 type  1   force =     0.00311425   -0.00025823   -0.00004220
     atom   24 type  1   force =    -0.00030707   -0.00006850    0.00179161
     atom   25 type  2   force =     0.00000000    0.00000000    0.00000000
     atom   26 type  2   force =     0.00000000    0.00000000    0.00000000
     The Hubbard contrib.    to forces
     atom    1 type  1   force =     0.00000000    0.00000000    0.00000000
     atom    2 type  1   force =     0.00000000    0.00000000    0.00000000
     atom    3 type  1   force =     0.00000000    0.00000000    0.00000000
     atom    4 type  1   force =     0.00000000    0.00000000    0.00000000
     atom    5 type  1   force =     0.00000000    0.00000000    0.00000000
     atom    6 type  1   force =     0.00000000    0.00000000    0.00000000
     atom    7 type  1   force =     0.00000000    0.00000000    0.00000000
     atom    8 type  1   force =     0.00000000    0.00000000    0.00000000
     atom    9 type  1   force =     0.00000000    0.00000000    0.00000000
     atom   10 type  1   force =     0.00000000    0.00000000    0.00000000
[...]

     total energy              =    -289.37711373 Ry
     estimated scf accuracy    <       0.00000002 Ry

     iteration # 33     ecut=    40.00 Ry     beta= 0.05
     Davidson diagonalization with overlap
     ethr =  1.60E-11,  avg # of iterations =  1.3

     total cpu time spent up to now is     1563.2 secs

     total energy              =    -289.37711376 Ry
     estimated scf accuracy    <       0.00000002 Ry

     iteration # 34     ecut=    40.00 Ry     beta= 0.05
     Davidson diagonalization with overlap
     ethr =  1.60E-11,  avg # of iterations =  1.0

     total cpu time spent up to now is     1565.5 secs

     total energy              =    -289.37711378 Ry
     estimated scf accuracy    <       0.00000002 Ry

     iteration # 35     ecut=    40.00 Ry     beta= 0.05
     Davidson diagonalization with overlap
     ethr =  1.60E-11,  avg # of iterations =  1.0

     total cpu time spent up to now is     1568.0 secs

     total energy              =    -289.37711381 Ry
     estimated scf accuracy    <       0.00000001 Ry

     iteration # 36     ecut=    40.00 Ry     beta= 0.05
     Davidson diagonalization with overlap
     ethr =  1.45E-11,  avg # of iterations =  1.0

     total cpu time spent up to now is     1570.3 secs

     total energy              =    -289.37711383 Ry
     estimated scf accuracy    <       0.00000001 Ry

     iteration # 37     ecut=    40.00 Ry     beta= 0.05
     Davidson diagonalization with overlap
     ethr =  1.41E-11,  avg # of iterations =  1.0

     total cpu time spent up to now is     1572.6 secs

     total energy              =    -289.37711380 Ry
     estimated scf accuracy    <       0.00000001 Ry

     iteration # 38     ecut=    40.00 Ry     beta= 0.05
     Davidson diagonalization with overlap
     ethr =  1.19E-11,  avg # of iterations =  1.7

     total cpu time spent up to now is     1575.3 secs

     total energy              =    -289.37711382 Ry
     estimated scf accuracy    <       0.00000001 Ry

     iteration # 39     ecut=    40.00 Ry     beta= 0.05
     Davidson diagonalization with overlap
     ethr =  1.09E-11,  avg # of iterations =  1.0

     total cpu time spent up to now is     1577.6 secs

     End of self-consistent calculation

     Number of k-points >= 100: set verbosity='high' to print the bands.

     the Fermi energy is     7.3976 ev

!    total energy              =    -289.37711379 Ry
     estimated scf accuracy    <          8.6E-09 Ry
     smearing contrib. (-TS)   =      -0.00061255 Ry
     internal energy E=F+TS    =    -289.37650124 Ry

     The total energy is F=E-TS. E is the sum of the following terms:
     one-electron contribution =     -83.56104936 Ry
     hartree contribution      =      93.04513258 Ry
     xc contribution           =    -101.56564812 Ry
     ewald contribution        =    -197.29493633 Ry

     convergence has been achieved in  39 iterations

     Forces acting on atoms (cartesian axes, Ry/au):

     atom    1 type  1   force =     0.00015583   -0.00026241    0.00022890
     atom    2 type  1   force =     0.00004070   -0.00020738   -0.00019155
     atom    3 type  1   force =    -0.00035414   -0.00023791    0.00003387
     atom    4 type  1   force =    -0.00009065    0.00026305    0.00025065
     atom    5 type  1   force =    -0.00048980    0.00002679   -0.00058408
     atom    6 type  1   force =    -0.00017376    0.00018184    0.00016366
     atom    7 type  1   force =     0.00025831   -0.00032232    0.00018190
     atom    8 type  1   force =     0.00045149   -0.00058816   -0.00027234
     atom    9 type  1   force =    -0.00010969    0.00011513    0.00013230
     atom   10 type  1   force =    -0.00003619    0.00031085    0.00025410
     atom   11 type  1   force =     0.00009135   -0.00014899   -0.00047318
     atom   12 type  1   force =    -0.00039195   -0.00012471    0.00020669
     atom   13 type  1   force =     0.00013825   -0.00025894    0.00000488
     atom   14 type  1   force =     0.00015675   -0.00003297   -0.00036143
     atom   15 type  1   force =     0.00022224    0.00008229    0.00003294
     atom   16 type  1   force =    -0.00009197    0.00022997    0.00024182
     atom   17 type  1   force =     0.00033532    0.00048451   -0.00038768
     atom   18 type  1   force =    -0.00001164    0.00006320    0.00022132
     atom   19 type  1   force =     0.00016696   -0.00019828    0.00020671
     atom   20 type  1   force =     0.00008071    0.00000421   -0.00029932
     atom   21 type  1   force =     0.00008941    0.00004808    0.00015944
     atom   22 type  1   force =    -0.00013571    0.00025892    0.00039360
     atom   23 type  1   force =    -0.00004544    0.00022672   -0.00050854
     atom   24 type  1   force =     0.00011642    0.00007267    0.00037454
     atom   25 type  2   force =    -0.00191378    0.00291799   -0.00004369
     atom   26 type  2   force =     0.00154099   -0.00290412    0.00003448
     The non-local contrib.  to forces
     atom    1 type  1   force =     0.00168521    0.00063318    0.00519494
     atom    2 type  1   force =     0.00186836    0.00087548   -0.01241020
     atom    3 type  1   force =     0.00457293    0.00258615    0.01330987
     atom    4 type  1   force =    -0.00056027    0.00092811    0.00273296
     atom    5 type  1   force =     0.00328443    0.00185960    0.00190402
     atom    6 type  1   force =    -0.00351183    0.00312516   -0.01058415
     atom    7 type  1   force =    -0.00199512    0.00078162    0.00504626
     atom    8 type  1   force =     0.00086123    0.00579324    0.00060490
     atom    9 type  1   force =    -0.00508910    0.00453136    0.00786349
     atom   10 type  1   force =     0.00122476    0.00095070    0.00303170
     atom   11 type  1   force =    -0.00599265    0.00183430    0.00036795
     atom   12 type  1   force =     0.00333136    0.00140879   -0.01533184
     atom   13 type  1   force =    -0.00056325   -0.00058894    0.00184159
     atom   14 type  1   force =    -0.00309674   -0.00232116    0.00197342
     atom   15 type  1   force =    -0.00123293   -0.00084532   -0.02330196
     atom   16 type  1   force =     0.00033275   -0.00050323    0.00269522
     atom   17 type  1   force =    -0.00096217    0.00042347   -0.00915395
     atom   18 type  1   force =     0.00147982   -0.00382896   -0.01165902
     atom   19 type  1   force =    -0.00000857   -0.00269766    0.00515766
     atom   20 type  1   force =     0.00600416   -0.00310104   -0.00155738
     atom   21 type  1   force =     0.00154962   -0.00624390    0.00978153
     atom   22 type  1   force =     0.00008818    0.00049979    0.00562115
     atom   23 type  1   force =    -0.00127006   -0.00565029   -0.00091530
     atom   24 type  1   force =    -0.00021666    0.00028354    0.03149129
     atom   25 type  2   force =    -0.03323551    0.05594849   -0.00050164
     atom   26 type  2   force =     0.03323129   -0.05594695   -0.00047992
     The ionic contribution  to forces
     atom    1 type  1   force =     0.01568709    0.00975822   -0.87308830
     atom    2 type  1   force =     0.20052825    0.11404910    3.86459532
     atom    3 type  1   force =     0.15802753    0.10019707   -3.06911273
     atom    4 type  1   force =    -0.00467697    0.00584808   -0.92250453
     atom    5 type  1   force =     0.00910471   -0.00096705    4.31246590
     atom    6 type  1   force =    -0.00758329    0.01213989   -3.45512794
     atom    7 type  1   force =    -0.02091333    0.01036545   -0.87260074
     atom    8 type  1   force =    -0.19271906    0.10973311    3.92413394
     atom    9 type  1   force =    -0.17637673    0.08413780   -3.11793622
     atom   10 type  1   force =     0.00755742    0.00413356   -0.91918364
     atom   11 type  1   force =    -0.00021563    0.22627081    3.93425961
     atom   12 type  1   force =     0.00272730   -0.00823544   -3.43878601
     atom   13 type  1   force =    -0.00427073   -0.00256026   -0.91641964
     atom   14 type  1   force =     0.00618434   -0.00487029    4.27108274
     atom   15 type  1   force =     0.01176595    0.00311392   -3.54615345
     atom   16 type  1   force =     0.00298504   -0.00401683   -0.92332218
     atom   17 type  1   force =    -0.19163508   -0.10993636    3.92162347
     atom   18 type  1   force =     0.01440152   -0.00022875   -3.45794807
     atom   19 type  1   force =    -0.00201766   -0.02362863   -0.87229733
     atom   20 type  1   force =     0.00056292   -0.23060551    3.89682188
     atom   21 type  1   force =    -0.02401041   -0.19030692   -3.07300107
     atom   22 type  1   force =    -0.00113505    0.00294056   -0.86523808
     atom   23 type  1   force =     0.20055851   -0.11577546    3.90837948
     atom   24 type  1   force =    -0.01223019    0.00511206   -2.40832278
     atom   25 type  2   force =     0.47022380   -0.78235977    0.34975173
     atom   26 type  2   force =    -0.46253026    0.78569164    0.34792866
     The local contribution  to forces
     atom    1 type  1   force =    -0.01718613   -0.01064665    0.86830204
     atom    2 type  1   force =    -0.20235969   -0.11514514   -3.85289206
     atom    3 type  1   force =    -0.16288227   -0.10298047    3.05631120
     atom    4 type  1   force =     0.00515327   -0.00648795    0.91996036
     atom    5 type  1   force =    -0.01277176   -0.00080645   -4.31434392
     atom    6 type  1   force =     0.01086112   -0.01499507    3.46514601
     atom    7 type  1   force =     0.02310835   -0.01146225    0.86790706
     atom    8 type  1   force =     0.19238763   -0.11598634   -3.92508936
     atom    9 type  1   force =     0.18118531   -0.08845459    3.11047922
     atom   10 type  1   force =    -0.00878435   -0.00474389    0.91635530
     atom   11 type  1   force =     0.00613331   -0.22825889   -3.93504545
     atom   12 type  1   force =    -0.00638389    0.00671439    3.45351641
     atom   13 type  1   force =     0.00494497    0.00286613    0.91464218
     atom   14 type  1   force =    -0.00302360    0.00708288   -4.27298564
     atom   15 type  1   force =    -0.01033002   -0.00221084    3.56834770
     atom   16 type  1   force =    -0.00339249    0.00475753    0.92080632
     atom   17 type  1   force =     0.19294806    0.11003530   -3.91307582
     atom   18 type  1   force =    -0.01582451    0.00405666    3.46906698
     atom   19 type  1   force =     0.00217983    0.02605353    0.86752123
     atom   20 type  1   force =    -0.00631507    0.23369607   -3.89574288
     atom   21 type  1   force =     0.02255154    0.19644573    3.06377818
     atom   22 type  1   force =     0.00092218   -0.00315930    0.86008648
     atom   23 type  1   force =    -0.19943324    0.12153338   -3.90799074
     atom   24 type  1   force =     0.01260188   -0.00531944    2.37922171
     atom   25 type  2   force =    -0.43889668    0.72932013   -0.34929835
     atom   26 type  2   force =     0.43083455   -0.73263974   -0.34741882
     The core correction contribution to forces
     atom    1 type  1   force =    -0.00002814   -0.00000578   -0.00019553
     atom    2 type  1   force =     0.00001588    0.00002076    0.00052944
     atom    3 type  1   force =    -0.00005846   -0.00003209   -0.00046094
     atom    4 type  1   force =    -0.00000692   -0.00002514    0.00004573
     atom    5 type  1   force =    -0.00010924   -0.00006030   -0.00058904
     atom    6 type  1   force =     0.00006320   -0.00008834    0.00073903
     atom    7 type  1   force =     0.00005643   -0.00000606   -0.00018699
     atom    8 type  1   force =    -0.00009027   -0.00012347    0.00009253
     atom    9 type  1   force =     0.00015731   -0.00009311   -0.00026165
     atom   10 type  1   force =    -0.00003367   -0.00002967    0.00003419
     atom   11 type  1   force =     0.00016854    0.00001748   -0.00004142
     atom   12 type  1   force =    -0.00006945   -0.00001494    0.00081727
     atom   13 type  1   force =     0.00002752    0.00002412   -0.00007561
     atom   14 type  1   force =     0.00009526    0.00007634   -0.00041093
     atom   15 type  1   force =     0.00002109    0.00002498    0.00115024
     atom   16 type  1   force =    -0.00001706   -0.00000760    0.00004619
     atom   17 type  1   force =    -0.00002716   -0.00004497    0.00023268
     atom   18 type  1   force =    -0.00006646    0.00006724    0.00077073
     atom   19 type  1   force =     0.00001321    0.00007204   -0.00019100
     atom   20 type  1   force =    -0.00017380    0.00000154    0.00019324
     atom   21 type  1   force =    -0.00000315    0.00013778   -0.00038608
     atom   22 type  1   force =    -0.00001122   -0.00002188   -0.00009155
     atom   23 type  1   force =     0.00011136    0.00011448    0.00003173
     atom   24 type  1   force =    -0.00004070   -0.00000379   -0.00199444
     atom   25 type  2   force =     0.00000000    0.00000000    0.00000000
     atom   26 type  2   force =     0.00000000    0.00000000    0.00000000
     The Hubbard contrib.    to forces
     atom    1 type  1   force =     0.00000000    0.00000000    0.00000000
     atom    2 type  1   force =     0.00000000    0.00000000    0.00000000
     atom    3 type  1   force =     0.00000000    0.00000000    0.00000000
     atom    4 type  1   force =     0.00000000    0.00000000    0.00000000
     atom    5 type  1   force =     0.00000000    0.00000000    0.00000000
     atom    6 type  1   force =     0.00000000    0.00000000    0.00000000
     atom    7 type  1   force =     0.00000000    0.00000000    0.00000000
     atom    8 type  1   force =     0.00000000    0.00000000    0.00000000
     atom    9 type  1   force =     0.00000000    0.00000000    0.00000000
     atom   10 type  1   force =     0.00000000    0.00000000    0.00000000
     atom   11 type  1   force =     0.00000000    0.00000000    0.00000000
     atom   12 type  1   force =     0.00000000    0.00000000    0.00000000
     atom   13 type  1   force =     0.00000000    0.00000000    0.00000000
     atom   14 type  1   force =     0.00000000    0.00000000    0.00000000
     atom   15 type  1   force =     0.00000000    0.00000000    0.00000000
     atom   16 type  1   force =     0.00000000    0.00000000    0.00000000
     atom   17 type  1   force =     0.00000000    0.00000000    0.00000000
     atom   18 type  1   force =     0.00000000    0.00000000    0.00000000
     atom   19 type  1   force =     0.00000000    0.00000000    0.00000000
     atom   20 type  1   force =     0.00000000    0.00000000    0.00000000
     atom   21 type  1   force =     0.00000000    0.00000000    0.00000000
     atom   22 type  1   force =     0.00000000    0.00000000    0.00000000
     atom   23 type  1   force =     0.00000000    0.00000000    0.00000000
     atom   24 type  1   force =     0.00000000    0.00000000    0.00000000
     atom   25 type  2   force =     0.00000000    0.00000000    0.00000000
     atom   26 type  2   force =     0.00000000    0.00000000    0.00000000
     The SCF correction term to forces
     atom    1 type  1   force =    -0.00000214   -0.00000138    0.00001650
     atom    2 type  1   force =    -0.00001202   -0.00000759   -0.00001330
     atom    3 type  1   force =    -0.00001381   -0.00000856   -0.00001277
     atom    4 type  1   force =     0.00000032   -0.00000006    0.00001690
     atom    5 type  1   force =     0.00000213    0.00000099   -0.00002029
     atom    6 type  1   force =    -0.00000289    0.00000020   -0.00000854
     atom    7 type  1   force =     0.00000205   -0.00000109    0.00001707
     atom    8 type  1   force =     0.00001204   -0.00000471   -0.00001360
     atom    9 type  1   force =     0.00001359   -0.00000634   -0.00001179
     atom   10 type  1   force =    -0.00000028    0.00000016    0.00001730
     atom   11 type  1   force =    -0.00000215   -0.00001270   -0.00001312
     atom   12 type  1   force =     0.00000281    0.00000248   -0.00000839
     atom   13 type  1   force =    -0.00000020    0.00000001    0.00001712
     atom   14 type  1   force =    -0.00000244   -0.00000075   -0.00002027
     atom   15 type  1   force =    -0.00000178   -0.00000045   -0.00000882
     atom   16 type  1   force =    -0.00000014    0.00000010    0.00001702
     atom   17 type  1   force =     0.00001174    0.00000706   -0.00001330
     atom   18 type  1   force =    -0.00000195   -0.00000299   -0.00000855
     atom   19 type  1   force =     0.00000022    0.00000243    0.00001691
     atom   20 type  1   force =     0.00000256    0.00001315   -0.00001343
     atom   21 type  1   force =     0.00000187    0.00001538   -0.00001237
     atom   22 type  1   force =     0.00000026   -0.00000025    0.00001637
     atom   23 type  1   force =    -0.00001193    0.00000462   -0.00001295
     atom   24 type  1   force =     0.00000215    0.00000030   -0.00002048
     atom   25 type  2   force =    -0.00000533    0.00000915    0.00000533
     atom   26 type  2   force =     0.00000547   -0.00000906    0.00000532

     Total force =     0.005257     Total SCF correction =     0.000087


     Computing stress (Cartesian axis) and pressure

          total   stress  (Ry/bohr**3)                   (kbar)     P=       91.00
   0.00056065   0.00000008  -0.00000590           82.47        0.01       -0.87
   0.00000008   0.00056277   0.00000209            0.01       82.79        0.31
  -0.00000590   0.00000209   0.00073242           -0.87        0.31      107.74


     Writing all to output data dir ../../results/server/1h2_abs/1H2abs_C.save/
 
     init_run     :      2.98s CPU      3.34s WALL (       2 calls)
     electrons    :   1337.61s CPU   1425.35s WALL (      23 calls)
     update_pot   :      4.29s CPU      4.46s WALL (      21 calls)
     forces       :      9.63s CPU     10.51s WALL (      23 calls)
     stress       :    139.15s CPU    141.56s WALL (      23 calls)

     Called by init_run:
     wfcinit      :      2.49s CPU      2.71s WALL (       2 calls)
     potinit      :      0.15s CPU      0.21s WALL (       2 calls)
     hinit0       :      0.27s CPU      0.31s WALL (       2 calls)

     Called by electrons:
     c_bands      :   1190.69s CPU   1249.88s WALL (     533 calls)
     sum_band     :    137.13s CPU    153.20s WALL (     533 calls)
     v_of_rho     :      0.83s CPU      2.10s WALL (     553 calls)
     newd         :      1.55s CPU      3.32s WALL (     553 calls)
     mix_rho      :      4.18s CPU      8.87s WALL (     533 calls)

     Called by c_bands:
     init_us_2    :      8.83s CPU     11.31s WALL (   60156 calls)
     init_us_2:cp :      8.66s CPU     11.11s WALL (   60156 calls)
     cegterg      :   1109.29s CPU   1157.22s WALL (   28783 calls)

     Called by *egterg:
     cdiaghg      :    377.98s CPU    391.35s WALL (  105424 calls)
     h_psi        :    585.10s CPU    614.39s WALL (  106829 calls)
     s_psi        :     29.42s CPU     30.18s WALL (  106829 calls)
     g_psi        :      2.25s CPU      2.36s WALL (   77938 calls)

     Called by h_psi:
     h_psi:calbec :     55.49s CPU     58.83s WALL (  106829 calls)
     vloc_psi     :    495.91s CPU    520.55s WALL (  106829 calls)
     add_vuspsi   :     30.23s CPU     31.38s WALL (  106829 calls)

     General routines
     calbec       :     82.49s CPU     88.60s WALL (  141821 calls)
     fft          :      2.62s CPU      5.00s WALL (    3480 calls)
     ffts         :      1.25s CPU      2.47s WALL (   11601 calls)
     fftw         :    496.86s CPU    522.61s WALL (10527770 calls)
     interpolate  :      0.26s CPU      0.99s WALL (     553 calls)
 
     Parallel routines
 
     PWSCF        :  24m54.78s CPU  26m28.28s WALL

 
   This run was terminated on:  17:43:12   2Sep2024            

=------------------------------------------------------------------------------=
   JOB DONE.
=------------------------------------------------------------------------------=
