LAMMPS data file via write_data, version 27 Jun 2024, timestep = 1507, units = real

480 atoms
1 atom types
676 bonds
1 bond types
1268 angles
1 angle types
2394 dihedrals
1 dihedral types
396 impropers
1 improper types

-30 30 xlo xhi
-30 30 ylo yhi
-15 15 zlo zhi

Masses

1 12.0107

Atoms # molecular

4 1 1 -10.402581111832626 -12.73481068163034 -7.5 0 0 0
1 2 1 -11.622871661671612 -12.04045151696714 -7.5 0 0 0
2 3 1 -11.628474062019219 -10.635383695750805 -7.5 0 0 0
5 4 1 -10.41766870371544 -9.915887718600102 -7.5 0 0 0
10 5 1 -7.970473228818796 -12.722478750902964 -7.5 0 0 0
7 6 1 -9.190194117055237 -12.024477760243562 -7.5 0 0 0
8 7 1 -9.194353123972432 -10.615736321865732 -7.5 0 0 0
11 8 1 -7.973268835626918 -9.910439442321747 -7.5 0 0 0
16 9 1 -5.524294882945067 -12.721095458632234 -7.5 0 0 0
13 10 1 -6.7490785949951615 -12.023314724976709 -7.5 0 0 0
14 11 1 -6.7499519486316855 -10.614736222249139 -7.5 0 0 0
17 12 1 -5.524816132749424 -9.9120076323455 -7.5 0 0 0
19 14 1 -4.297626406868707 -12.024595610683445 -7.5 0 0 0
20 15 1 -4.297705245955815 -10.614651860373401 -7.5 0 0 0
6 41 1 -10.414402024715233 -8.505682471155275 -7.5 0 0 0
3 42 1 -11.624269291578678 -7.791408082297639 -7.5 0 0 0
61 43 1 -11.623022740179488 -6.386725916370976 -7.5 0 0 0
63 44 1 -10.412418719030285 -5.669838695310759 -7.5 0 0 0
12 45 1 -7.97304874852587 -8.500923893357344 -7.5 0 0 0
9 46 1 -9.194335057759266 -7.795985089616827 -7.5 0 0 0
65 47 1 -9.19346788058715 -6.380774137507138 -7.5 0 0 0
67 48 1 -7.9729465555262955 -5.670597120980332 -7.5 0 0 0
18 49 1 -5.5248490262783365 -8.50021745502191 -7.5 0 0 0
15 50 1 -6.750250104181912 -7.794753567805517 -7.5 0 0 0
69 51 1 -6.750233593558966 -6.380127374769701 -7.5 0 0 0
71 52 1 -5.524941723297585 -5.67155923207425 -7.5 0 0 0
21 54 1 -4.297850604930149 -7.795997699376215 -7.5 0 0 0
73 55 1 -4.297832780577386 -6.379242021100254 -7.5 0 0 0
22 13 1 -3.0698927381515 -12.720816009267836 -7.5 0 0 0
23 16 1 -3.0700147011370027 -9.912657632267443 -7.5 0 0 0
28 17 1 -0.614002346400141 -12.720785707837791 -7.5 0 0 0
25 18 1 -1.8419977049134328 -12.024688467804522 -7.5 0 0 0
26 19 1 -1.8420016351204251 -10.614533235399213 -7.5 0 0 0
29 20 1 -0.6140006056039136 -9.912706120795324 -7.5 0 0 0
34 21 1 1.8420106140688952 -12.72078892535979 -7.5 0 0 0
31 22 1 0.6140033242820873 -12.024690299476822 -7.5 0 0 0
32 23 1 0.6140012765746119 -10.614522597943617 -7.5 0 0 0
35 24 1 1.842008697777097 -9.912696695607089 -7.5 0 0 0
37 26 1 3.070033553725137 -12.02469461286753 -7.5 0 0 0
38 27 1 3.0700062642264174 -10.614567474255416 -7.5 0 0 0
24 53 1 -3.0699924473686115 -8.499778418922185 -7.5 0 0 0
75 56 1 -3.069996402045655 -5.672123212101755 -7.5 0 0 0
30 57 1 -0.6139996303850637 -8.499717378471399 -7.5 0 0 0
27 58 1 -1.8420019422943525 -7.796199721505848 -7.5 0 0 0
77 59 1 -1.8419988777041245 -6.379026368290412 -7.5 0 0 0
79 60 1 -0.6139988334909967 -5.672184325035951 -7.5 0 0 0
36 61 1 1.8420015441313062 -8.499732037566801 -7.5 0 0 0
33 62 1 0.6139995042129307 -7.796211132712143 -7.5 0 0 0
81 63 1 0.6139988669212451 -6.379012493405282 -7.5 0 0 0
83 64 1 1.841998646991399 -5.672171741014924 -7.5 0 0 0
39 66 1 3.0700032563981328 -7.796153152937449 -7.5 0 0 0
85 67 1 3.0699967668356716 -6.379078074608155 -7.5 0 0 0
40 25 1 4.297806108848167 -12.720903080713018 -7.5 0 0 0
41 28 1 4.297903964125742 -9.912588315044859 -7.5 0 0 0
46 29 1 6.750626624134824 -12.72134795434115 -7.5 0 0 0
43 30 1 5.525082926990852 -12.02447234849141 -7.5 0 0 0
44 31 1 5.524792294371865 -10.61495834228327 -7.5 0 0 0
47 32 1 6.750249669687138 -9.911375693175435 -7.5 0 0 0
52 33 1 9.19151552547767 -12.723835706398257 -7.5 0 0 0
49 34 1 7.972812937491994 -12.022583518893116 -7.5 0 0 0
50 35 1 7.973246271402749 -10.615159368137927 -7.5 0 0 0
53 36 1 9.1951325125701 -9.912765569312517 -7.5 0 0 0
58 37 1 11.609929926347853 -12.761677072506078 -7.5 0 0 0
55 38 1 10.4127695867357 -12.030526283225106 -7.5 0 0 0
56 39 1 10.415429270545204 -10.621804375417286 -7.5 0 0 0
59 40 1 11.627750084686069 -9.912768272305774 -7.5 0 0 0
42 65 1 4.2978428824160675 -8.499943393087014 -7.5 0 0 0
87 68 1 4.297838018716826 -5.671962588863664 -7.5 0 0 0
48 69 1 6.750153382990819 -8.500678626657754 -7.5 0 0 0
45 70 1 5.524970065353606 -7.795612150088304 -7.5 0 0 0
89 71 1 5.524944186549119 -6.379651010772239 -7.5 0 0 0
91 72 1 6.750281524297851 -5.670978009960443 -7.5 0 0 0
54 73 1 9.193685821833053 -8.501588402985064 -7.5 0 0 0
51 74 1 7.973002408100636 -7.794608661370089 -7.5 0 0 0
93 75 1 7.972831784061969 -6.380725275102289 -7.5 0 0 0
95 76 1 9.193165156572816 -5.671068417555983 -7.5 0 0 0
60 77 1 11.62467210111509 -8.509466257061542 -7.5 0 0 0
57 78 1 10.413183221917288 -7.79453995995778 -7.5 0 0 0
97 79 1 10.41255497761353 -6.38201240803952 -7.5 0 0 0
99 80 1 11.62288048550512 -5.6655818690598165 -7.5 0 0 0
64 81 1 -10.412394669912535 -4.256118012205998 -7.5 0 0 0
62 82 1 -11.622887799819795 -3.5386359701090604 -7.5 0 0 0
101 83 1 -11.62287548086614 -2.1333199859051843 -7.5 0 0 0
104 84 1 -10.412412956500928 -1.4157232220189822 -7.5 0 0 0
68 85 1 -7.972847489560389 -4.255482420411057 -7.5 0 0 0
66 86 1 -9.193178963353585 -3.5438938819071177 -7.5 0 0 0
106 87 1 -9.19316575069119 -2.12805207155709 -7.5 0 0 0
109 88 1 -7.972842572040961 -1.4162927906525316 -7.5 0 0 0
72 89 1 -5.5249367865974195 -4.254395728277129 -7.5 0 0 0
70 90 1 -6.750277567844064 -3.5437379978149424 -7.5 0 0 0
111 91 1 -6.750273186621187 -2.1281885878754334 -7.5 0 0 0
114 92 1 -5.5249346563781 -1.4173633331729545 -7.5 0 0 0
74 94 1 -4.2978338992747 -3.5447190987406216 -7.5 0 0 0
116 95 1 -4.297832525638193 -2.1272009820885547 -7.5 0 0 0
105 121 1 -10.41241301281953 -0.0022768030927713258 -7.5 0 0 0
102 122 1 -11.62287550891679 0.7153200629844171 -7.5 0 0 0
103 123 1 -11.622887909491437 2.1206358610942493 -7.5 0 0 0
153 124 1 -10.412394687512782 2.838118246283378 -7.5 0 0 0
110 125 1 -7.972842602724896 -0.0017073759162270835 -7.5 0 0 0
107 126 1 -9.193165713109446 0.7100524791493092 -7.5 0 0 0
108 127 1 -9.193179058661908 2.1258931994297017 -7.5 0 0 0
158 128 1 -7.972847486902145 2.8374832544080935 -7.5 0 0 0
115 129 1 -5.524934660174121 -0.00063688189960554 -7.5 0 0 0
112 130 1 -6.7502731729784164 0.7101892649087216 -7.5 0 0 0
113 131 1 -6.750277602426636 2.125736925129481 -7.5 0 0 0
163 132 1 -5.524936783702374 2.8363968812393185 -7.5 0 0 0
117 134 1 -4.297832524710485 0.7092017229295533 -7.5 0 0 0
118 135 1 -4.2978339006939965 2.126717897341739 -7.5 0 0 0
154 161 1 -10.412418751378056 4.251838258212526 -7.5 0 0 0
159 165 1 -7.972946613957004 4.252596111927451 -7.5 0 0 0
164 169 1 -5.524941747510372 4.253557911788147 -7.5 0 0 0
76 93 1 -3.0699941771930166 -4.253831691071478 -7.5 0 0 0
119 96 1 -3.0699932030712884 -1.4179221155632007 -7.5 0 0 0
80 97 1 -0.6139985446350344 -4.253767841589092 -7.5 0 0 0
78 98 1 -1.8419976461005718 -3.5449308068153393 -7.5 0 0 0
121 99 1 -1.8419973314330862 -2.1269869908748413 -7.5 0 0 0
124 100 1 -0.6139983975274487 -1.4179846556332294 -7.5 0 0 0
84 101 1 1.8419977527657918 -4.253781290990822 -7.5 0 0 0
82 102 1 0.6139985127749152 -3.544943728346267 -7.5 0 0 0
126 103 1 0.6139984369190403 -2.1269737251249956 -7.5 0 0 0
129 104 1 1.8419973195958628 -1.4179715261482777 -7.5 0 0 0
86 106 1 3.0699938878933297 -3.544881754516604 -7.5 0 0 0
131 107 1 3.0699932809609485 -2.1270367095789218 -7.5 0 0 0
120 133 1 -3.06999320328645 -7.811203457061655e-05 -7.5 0 0 0
168 136 1 -3.0699941770227728 2.83583289434494 -7.5 0 0 0
125 137 1 -0.6139983975245997 -1.5572344339376663e-05 -7.5 0 0 0
122 138 1 -1.8419973313786084 0.7089877372395955 -7.5 0 0 0
123 139 1 -1.8419976461549379 2.126929592972884 -7.5 0 0 0
173 140 1 -0.6139985446040299 2.835769048238972 -7.5 0 0 0
130 141 1 1.8419973196723967 -2.870178815133867e-05 -7.5 0 0 0
127 142 1 0.6139984369102306 0.7089744715533928 -7.5 0 0 0
128 143 1 0.6139985127649705 2.12694251419859 -7.5 0 0 0
178 144 1 1.8419977526364728 2.835782497248582 -7.5 0 0 0
132 146 1 3.069993280558398 0.7090374552480727 -7.5 0 0 0
133 147 1 3.069993889468033 2.1268805432812794 -7.5 0 0 0
169 173 1 -3.069996402496533 4.254121816510096 -7.5 0 0 0
174 177 1 -0.6139988334617655 4.254182924631281 -7.5 0 0 0
179 181 1 1.8419986468907315 4.254170341295541 -7.5 0 0 0
88 105 1 4.297834080007384 -4.253997062942879 -7.5 0 0 0
134 108 1 4.297832345887529 -1.4177583698466614 -7.5 0 0 0
92 109 1 6.750275866315282 -4.254990244586574 -7.5 0 0 0
90 110 1 5.5249370751925895 -3.544325321577135 -7.5 0 0 0
136 111 1 5.524934826497105 -2.1275971202085393 -7.5 0 0 0
139 112 1 6.750272769756868 -1.4167735707449454 -7.5 0 0 0
96 113 1 9.193156172936149 -4.254853249170654 -7.5 0 0 0
94 114 1 7.972849037583209 -3.5432585265881054 -7.5 0 0 0
141 115 1 7.972842828596923 -2.128671663182289 -7.5 0 0 0
144 116 1 9.193164722882006 -1.4169159586357891 -7.5 0 0 0
100 117 1 11.622888294611556 -4.260221746132295 -7.5 0 0 0
98 118 1 10.412428890150219 -3.542697522447593 -7.5 0 0 0
146 119 1 10.412412427771795 -2.1292487094109322 -7.5 0 0 0
149 120 1 11.622873848602591 -1.4116576115727846 -7.5 0 0 0
135 145 1 4.297832347366992 -0.00024185496245017206 -7.5 0 0 0
183 148 1 4.297834079660432 2.8359982531336767 -7.5 0 0 0
140 149 1 6.750272794891638 -0.001226615199979647 -7.5 0 0 0
137 150 1 5.524934830296344 0.7095978398883036 -7.5 0 0 0
138 151 1 5.524937091593953 2.1263241534557 -7.5 0 0 0
188 152 1 6.7502758647739 2.8369912874909984 -7.5 0 0 0
145 153 1 9.193164806428271 -0.0010840950878481413 -7.5 0 0 0
142 154 1 7.972842811295202 0.7106722635584141 -7.5 0 0 0
143 155 1 7.972849112685742 2.1252576317099874 -7.5 0 0 0
193 156 1 9.193156199031105 2.836853826791436 -7.5 0 0 0
150 157 1 11.622873920022165 -0.0063422850625206376 -7.5 0 0 0
147 158 1 10.41241241786083 0.7112489810866325 -7.5 0 0 0
148 159 1 10.412428985240235 2.1246971374217525 -7.5 0 0 0
198 160 1 11.622888399665902 2.8422216616004383 -7.5 0 0 0
184 185 1 4.297838024238174 4.253961209954158 -7.5 0 0 0
189 189 1 6.750281547875283 4.252976800455717 -7.5 0 0 0
194 193 1 9.193165173618853 4.2530677261989025 -7.5 0 0 0
199 197 1 11.622880466637913 4.247581615331808 -7.5 0 0 0
151 162 1 -11.623022757955193 4.968725919214753 -7.5 0 0 0
152 163 1 -11.624269245828001 6.37340793109729 -7.5 0 0 0
155 164 1 -10.414402058440423 7.087682825456661 -7.5 0 0 0
156 166 1 -9.193467953096174 4.962774628624705 -7.5 0 0 0
157 167 1 -9.194335044131742 6.377984504925115 -7.5 0 0 0
160 168 1 -7.97304881917478 7.0829247309049475 -7.5 0 0 0
161 170 1 -6.750233625865034 4.962128369316839 -7.5 0 0 0
162 171 1 -6.750250097609073 6.376752575644221 -7.5 0 0 0
165 172 1 -5.524849047047701 7.08221857296716 -7.5 0 0 0
166 174 1 -4.297832786411306 4.961243183300038 -7.5 0 0 0
167 175 1 -4.297850607896857 6.377996583100954 -7.5 0 0 0
203 201 1 -10.417668715717502 8.497887355648823 -7.5 0 0 0
201 202 1 -11.628474144643478 9.217383742908526 -7.5 0 0 0
202 203 1 -11.622871765555741 10.622451429606521 -7.5 0 0 0
204 204 1 -10.402581178059107 11.316810481438566 -7.5 0 0 0
207 205 1 -7.973268780078476 8.492438559005036 -7.5 0 0 0
205 206 1 -9.194353135790411 9.19773678197831 -7.5 0 0 0
206 207 1 -9.190194054006472 10.606477211346292 -7.5 0 0 0
208 208 1 -7.970473235123699 11.304478719144461 -7.5 0 0 0
211 209 1 -5.524816117500264 8.494006606230293 -7.5 0 0 0
209 210 1 -6.749951943919381 9.196737011811699 -7.5 0 0 0
210 211 1 -6.749078578375857 10.605314108061707 -7.5 0 0 0
212 212 1 -5.524294866567646 11.303095485208408 -7.5 0 0 0
213 214 1 -4.2977052459498495 9.196652710774716 -7.5 0 0 0
214 215 1 -4.297626404223174 10.606594965927563 -7.5 0 0 0
170 176 1 -3.0699924484314143 7.0817795821450025 -7.5 0 0 0
171 178 1 -1.8419988774102285 4.96102755334429 -7.5 0 0 0
172 179 1 -1.842001941874745 6.378198587134728 -7.5 0 0 0
175 180 1 -0.6139996303695439 7.081718545463327 -7.5 0 0 0
176 182 1 0.6139988668940208 4.961013679253217 -7.5 0 0 0
177 183 1 0.6139995041888625 6.378209997620337 -7.5 0 0 0
180 184 1 1.8420015440620658 7.081733203947414 -7.5 0 0 0
181 186 1 3.0699967664412515 4.9610792556647425 -7.5 0 0 0
182 187 1 3.0700032559246226 6.378152022088135 -7.5 0 0 0
215 213 1 -3.0700146990350228 8.494656579227737 -7.5 0 0 0
216 216 1 -3.069892739000815 11.302816025628921 -7.5 0 0 0
219 217 1 -0.6140006055891679 8.494705067752804 -7.5 0 0 0
217 218 1 -1.8420016352768553 9.196534087947619 -7.5 0 0 0
218 219 1 -1.8419977052045204 10.606687823277742 -7.5 0 0 0
220 220 1 -0.6140023464018299 11.30278572479053 -7.5 0 0 0
223 221 1 1.8420086976680752 8.494695642635548 -7.5 0 0 0
221 222 1 0.6140012765933173 9.196523450307186 -7.5 0 0 0
222 223 1 0.6140033242898634 10.60668965490765 -7.5 0 0 0
224 224 1 1.8420106143966763 11.302788942173736 -7.5 0 0 0
225 226 1 3.0700062648006416 9.196568326557156 -7.5 0 0 0
226 227 1 3.0700335553429836 10.606693969994437 -7.5 0 0 0
185 188 1 4.297842887705943 7.081944545464297 -7.5 0 0 0
186 190 1 5.5249441902843826 4.961652122604988 -7.5 0 0 0
187 191 1 5.524970064888053 6.377611073030831 -7.5 0 0 0
190 192 1 6.750153422111504 7.0826796515483625 -7.5 0 0 0
191 194 1 7.972831799640702 4.962726079100661 -7.5 0 0 0
192 195 1 7.973002405728434 6.376607886948945 -7.5 0 0 0
195 196 1 9.193685890766556 7.08358906107785 -7.5 0 0 0
196 198 1 10.412555006779188 4.964012634482927 -7.5 0 0 0
197 199 1 10.413183208965261 6.376539707284419 -7.5 0 0 0
200 200 1 11.624672075011912 7.091466538625686 -7.5 0 0 0
227 225 1 4.29790396818147 8.494587270937147 -7.5 0 0 0
228 228 1 4.297806100395507 11.302903098997795 -7.5 0 0 0
231 229 1 6.750249669785682 8.493374717762851 -7.5 0 0 0
229 230 1 5.524792308493568 9.19695916211744 -7.5 0 0 0
230 231 1 5.525082910778622 10.606471698400325 -7.5 0 0 0
232 232 1 6.750626606754293 11.303347935921565 -7.5 0 0 0
235 233 1 9.195132559519342 8.494764949131767 -7.5 0 0 0
233 234 1 7.973246333840098 9.197160039148974 -7.5 0 0 0
234 235 1 7.972812851379782 10.604582905137976 -7.5 0 0 0
236 236 1 9.191515492601114 11.305835678342325 -7.5 0 0 0
239 237 1 11.62775019929257 8.494768324697763 -7.5 0 0 0
237 238 1 10.415429336956432 9.203804750868075 -7.5 0 0 0
238 239 1 10.412769477090412 10.612526008795658 -7.5 0 0 0
240 240 1 11.609929924453901 11.343676956331795 -7.5 0 0 0
243 241 1 -10.402581111832035 -11.316810681628233 7.5 0 0 0
241 242 1 -11.622871661670409 -10.622451516964547 7.5 0 0 0
242 243 1 -11.628474062015693 -9.21738369574453 7.5 0 0 0
244 244 1 -10.417668703687816 -8.497887718740602 7.5 0 0 0
247 245 1 -7.970473228818649 -11.304478750900197 7.5 0 0 0
245 246 1 -9.190194117054807 -10.6064777602399 7.5 0 0 0
246 247 1 -9.194353123971258 -9.19773632184893 7.5 0 0 0
248 248 1 -7.973268835621777 -8.492439442476329 7.5 0 0 0
251 249 1 -5.524294882944998 -11.303095458629288 7.5 0 0 0
249 250 1 -6.749078594995094 -10.605314724972494 7.5 0 0 0
250 251 1 -6.7499519486314625 -9.196736222230145 7.5 0 0 0
252 252 1 -5.524816132749234 -8.494007632503363 7.5 0 0 0
253 254 1 -4.2976264068687176 -10.606595610679149 7.5 0 0 0
254 255 1 -4.297705245955898 -9.196651860354303 7.5 0 0 0
283 281 1 -10.41440202496988 -7.087682470699174 7.5 0 0 0
281 282 1 -11.624269291075853 -6.373408086013714 7.5 0 0 0
282 283 1 -11.623022743477536 -4.968725917015366 7.5 0 0 0
288 285 1 -7.973048748604222 -7.0829238927820635 7.5 0 0 0
286 286 1 -9.194335056938481 -6.377985098750097 7.5 0 0 0
287 287 1 -9.193467886356613 -4.962774116325503 7.5 0 0 0
293 289 1 -5.524849026288991 -7.082217454391262 7.5 0 0 0
291 290 1 -6.750250104042994 -6.376753577463724 7.5 0 0 0
292 291 1 -6.7502335944097 -4.962127351249836 7.5 0 0 0
296 294 1 -4.297850604929391 -6.3779977091177065 7.5 0 0 0
297 295 1 -4.297832780615165 -4.961241996881361 7.5 0 0 0
255 253 1 -3.069892738151505 -11.302816009264893 7.5 0 0 0
256 256 1 -3.070014701136999 -8.494657632426248 7.5 0 0 0
259 257 1 -0.6140023464001881 -11.302785707834904 7.5 0 0 0
257 258 1 -1.8419977049134093 -10.606688467800186 7.5 0 0 0
258 259 1 -1.8420016351204784 -9.196533235380361 7.5 0 0 0
260 260 1 -0.6140006056038452 -8.494706120954255 7.5 0 0 0
263 261 1 1.8420106140688142 -11.302788925356884 7.5 0 0 0
261 262 1 0.6140033242820377 -10.60669029947251 7.5 0 0 0
262 263 1 0.6140012765745375 -9.196522597924812 7.5 0 0 0
264 264 1 1.842008697777074 -8.494696695766121 7.5 0 0 0
265 266 1 3.070033553725082 -10.606694612863263 7.5 0 0 0
266 267 1 3.07000626422629 -9.196567474236833 7.5 0 0 0
298 293 1 -3.0699924473692617 -7.08177841828972 7.5 0 0 0
303 297 1 -0.6139996303853337 -7.081717377839528 7.5 0 0 0
301 298 1 -1.8420019422946763 -6.3781997312518754 7.5 0 0 0
302 299 1 -1.8419988777058969 -4.96102634407202 7.5 0 0 0
308 301 1 1.842001544130982 -7.081732036935192 7.5 0 0 0
306 302 1 0.6139995042128024 -6.378211142458729 7.5 0 0 0
307 303 1 0.6139988669209135 -4.961012469187879 7.5 0 0 0
311 306 1 3.0700032563977513 -6.378153162683524 7.5 0 0 0
312 307 1 3.0699967668411103 -4.961078050382874 7.5 0 0 0
267 265 1 4.2978061088481 -11.30290308071025 7.5 0 0 0
268 268 1 4.297903964125366 -8.494588315204183 7.5 0 0 0
271 269 1 6.750626624134607 -11.30334795433862 7.5 0 0 0
269 270 1 5.525082926990712 -10.606472348487431 7.5 0 0 0
270 271 1 5.5247922943712675 -9.196958342265301 7.5 0 0 0
272 272 1 6.750249669684012 -8.493375693334727 7.5 0 0 0
275 273 1 9.191515525477195 -11.305835706396179 7.5 0 0 0
273 274 1 7.972812937491646 -10.60458351888982 7.5 0 0 0
274 275 1 7.973246271401734 -9.197159368121778 7.5 0 0 0
276 276 1 9.19513251256213 -8.494765569459124 7.5 0 0 0
279 277 1 11.609929926347435 -11.343677072504816 7.5 0 0 0
277 278 1 10.41276958673521 -10.612526283223028 7.5 0 0 0
278 279 1 10.41542927054514 -9.203804375401152 7.5 0 0 0
280 280 1 11.627750084658285 -8.494768272370997 7.5 0 0 0
313 305 1 4.297842882415672 -7.0819433924558 7.5 0 0 0
318 309 1 6.750153383025633 -7.082678626029188 7.5 0 0 0
316 310 1 5.5249700653441005 -6.377612159813344 7.5 0 0 0
317 311 1 5.5249441868965645 -4.9616509864183564 7.5 0 0 0
323 313 1 9.193685822075853 -7.08358840224442 7.5 0 0 0
321 314 1 7.973002407957681 -6.376608670570233 7.5 0 0 0
322 315 1 7.972831788750945 -4.9627252485264535 7.5 0 0 0
328 317 1 11.62467210120467 -7.091466256991453 7.5 0 0 0
326 318 1 10.413183220571144 -6.376539966472491 7.5 0 0 0
327 319 1 10.412554982168135 -4.9640123940382015 7.5 0 0 0
284 284 1 -10.412418714955532 -4.251838813572913 7.5 0 0 0
289 288 1 -7.972946547490681 -4.25259731801512 7.5 0 0 0
294 292 1 -5.524941722652469 -4.253559427373307 7.5 0 0 0
285 321 1 -10.412394645522719 -2.838117863881011 7.5 0 0 0
331 322 1 -11.622887804853757 -2.1206361646887375 7.5 0 0 0
332 323 1 -11.622875401090656 -0.7153198848105429 7.5 0 0 0
334 324 1 -10.412412984008427 0.0022761655218049366 7.5 0 0 0
290 325 1 -7.9728474661091635 -2.8374820839841726 7.5 0 0 0
336 326 1 -9.193178969193038 -2.1258945364914954 7.5 0 0 0
337 327 1 -9.193165606590298 -0.7100512952563486 7.5 0 0 0
339 328 1 -7.972842594008102 0.0017058230581658267 7.5 0 0 0
295 329 1 -5.524936787087735 -2.836395332239762 7.5 0 0 0
341 330 1 -6.750277560043045 -2.1257388647186604 7.5 0 0 0
342 331 1 -6.750273130904995 -0.7101873965273922 7.5 0 0 0
344 332 1 -5.524934656475588 0.0006349888121618148 7.5 0 0 0
346 334 1 -4.29783389916435 -2.1267199932470864 7.5 0 0 0
347 335 1 -4.29783252182337 -0.7091996875931996 7.5 0 0 0
335 361 1 -10.412412904375502 1.4157238903328675 7.5 0 0 0
333 362 1 -11.622875401329937 2.13332003801302 7.5 0 0 0
381 363 1 -11.622887873588668 3.5386361770419095 7.5 0 0 0
383 364 1 -10.412394638600075 4.256117959736777 7.5 0 0 0
340 365 1 -7.9728424822165875 1.416294256068434 7.5 0 0 0
338 366 1 -9.19316568861815 2.128051430406879 7.5 0 0 0
385 367 1 -9.193178998184699 3.5438943719648504 7.5 0 0 0
387 368 1 -7.972847462068369 4.255482072475943 7.5 0 0 0
345 369 1 -5.524934617789592 1.4173651916363674 7.5 0 0 0
343 370 1 -6.7502731890614776 2.1281874238006155 7.5 0 0 0
389 371 1 -6.750277550695672 3.543738972282203 7.5 0 0 0
391 372 1 -5.524936789120585 4.254395148929919 7.5 0 0 0
348 374 1 -4.297832529774145 2.127199635743849 7.5 0 0 0
393 375 1 -4.297833884574149 3.544720229002377 7.5 0 0 0
299 296 1 -3.0699964020423223 -4.254123407215963 7.5 0 0 0
304 300 1 -0.6139988334915151 -4.254184520148514 7.5 0 0 0
309 304 1 1.8419986469932126 -4.254171936125531 7.5 0 0 0
300 333 1 -3.0699941771745074 -2.8358312940310038 7.5 0 0 0
349 336 1 -3.0699932039805735 7.615969060514385e-05 7.5 0 0 0
305 337 1 -0.613998544636038 -2.8357674446200494 7.5 0 0 0
351 338 1 -1.8419976461274605 -2.126931701875123 7.5 0 0 0
352 339 1 -1.8419973313030649 -0.7089856907309958 7.5 0 0 0
354 340 1 -0.6139983975456927 1.3618359408023768e-05 7.5 0 0 0
310 341 1 1.8419977527638467 -2.835780894021735 7.5 0 0 0
356 342 1 0.6139985127760395 -2.1269446234199583 7.5 0 0 0
357 343 1 0.6139984369229142 -0.7089724248905028 7.5 0 0 0
359 344 1 1.841997319669987 2.6747940288124675e-05 7.5 0 0 0
361 346 1 3.0699938879676223 -2.1268826494911632 7.5 0 0 0
362 347 1 3.069993280861877 -0.7090354099698675 7.5 0 0 0
350 373 1 -3.06999320008842 1.4179240416113288 7.5 0 0 0
395 376 1 -3.0699941784793263 4.25383104641199 7.5 0 0 0
355 377 1 -0.6139983975503809 1.417986586720651 7.5 0 0 0
353 378 1 -1.841997331648271 2.1269856215711958 7.5 0 0 0
397 379 1 -1.8419976464971362 3.5449319598477427 7.5 0 0 0
399 380 1 -0.6139985446542479 4.253767192526102 7.5 0 0 0
360 381 1 1.8419973195777188 1.4179734567736524 7.5 0 0 0
358 382 1 0.6139984369570857 2.126972355161333 7.5 0 0 0
401 383 1 0.6139985128011498 3.544944882330873 7.5 0 0 0
403 384 1 1.841997753049221 4.253780642855723 7.5 0 0 0
363 386 1 3.0699932804022394 2.1270353446926604 7.5 0 0 0
405 387 1 3.069993889688665 3.5448829038121694 7.5 0 0 0
314 308 1 4.297838018679138 -4.253962783954975 7.5 0 0 0
319 312 1 6.750281522888985 -4.252978203905836 7.5 0 0 0
324 316 1 9.19316515261363 -4.253068576852281 7.5 0 0 0
329 320 1 11.6228804861799 -4.24758192225082 7.5 0 0 0
315 345 1 4.297834080177733 -2.835996666062532 7.5 0 0 0
364 348 1 4.297832345849132 0.00023991336562903336 7.5 0 0 0
320 349 1 6.750275868172489 -2.836989857630871 7.5 0 0 0
366 350 1 5.524937074254332 -2.1263262102925684 7.5 0 0 0
367 351 1 5.524934822837409 -0.7095958472716914 7.5 0 0 0
369 352 1 6.7502727832593115 0.0012248389402999445 7.5 0 0 0
325 353 1 9.193156149648978 -2.836852966980478 7.5 0 0 0
371 354 1 7.972849043036011 -2.1252593146012426 7.5 0 0 0
372 355 1 7.972842775590094 -0.7106706015573702 7.5 0 0 0
374 356 1 9.19316474838557 0.0010830191117130045 7.5 0 0 0
330 357 1 11.622888278765515 -2.842221696972736 7.5 0 0 0
376 358 1 10.412428912780424 -2.1246979286000935 7.5 0 0 0
377 359 1 10.412412359331055 -0.7112482466657718 7.5 0 0 0
379 360 1 11.622873828260273 0.0063421998939811345 7.5 0 0 0
365 385 1 4.297832348363633 1.4177602821337665 7.5 0 0 0
407 388 1 4.297834062890269 4.2539964354571 7.5 0 0 0
370 389 1 6.750272741971578 1.4167753099757225 7.5 0 0 0
368 390 1 5.524934823606188 2.1275958145270137 7.5 0 0 0
409 391 1 5.524937076284705 3.544326395217251 7.5 0 0 0
411 392 1 6.750275808057201 4.25498975680048 7.5 0 0 0
375 393 1 9.193164663269666 1.4169171142401134 7.5 0 0 0
373 394 1 7.972842807910862 2.128670758241215 7.5 0 0 0
413 395 1 7.972849014271909 3.543259315348113 7.5 0 0 0
415 396 1 9.193156107867901 4.254853095815458 7.5 0 0 0
380 397 1 11.622873807851885 1.4116578985376393 7.5 0 0 0
378 398 1 10.412412391433996 2.1292484847410744 7.5 0 0 0
417 399 1 10.412428897907919 3.5426978154380504 7.5 0 0 0
419 400 1 11.622888330174403 4.260221685985776 7.5 0 0 0
384 401 1 -10.412418793285115 5.669838581643445 7.5 0 0 0
382 402 1 -11.623022747593645 6.386725857667434 7.5 0 0 0
421 403 1 -11.624269236435865 7.791407970838262 7.5 0 0 0
424 404 1 -10.414401960986995 8.505682542834132 7.5 0 0 0
388 405 1 -7.972946653871309 5.670597121031054 7.5 0 0 0
386 406 1 -9.193467816915556 6.380774294146467 7.5 0 0 0
427 407 1 -9.194335165435163 7.7959848880271405 7.5 0 0 0
430 408 1 -7.9730487177157086 8.500924348693346 7.5 0 0 0
392 409 1 -5.5249417366851805 5.671559345334985 7.5 0 0 0
390 410 1 -6.750233572814373 6.380127605032113 7.5 0 0 0
433 411 1 -6.75025017207774 7.794753105025185 7.5 0 0 0
436 412 1 -5.524849029378736 8.50021820097148 7.5 0 0 0
394 414 1 -4.297832782914845 6.379242255978762 7.5 0 0 0
439 415 1 -4.297850611912786 7.79599711862882 7.5 0 0 0
425 441 1 -10.417668690674276 9.915887757763665 7.5 0 0 0
422 442 1 -11.628474065960264 10.635383811434249 7.5 0 0 0
423 443 1 -11.622871711586397 12.0404516392895 7.5 0 0 0
426 444 1 -10.40258116581838 12.734810813480967 7.5 0 0 0
431 445 1 -7.973268829199907 9.91043905388125 7.5 0 0 0
428 446 1 -9.194353173326334 10.615736575172996 7.5 0 0 0
429 447 1 -9.190194062916728 12.02447774190283 7.5 0 0 0
432 448 1 -7.9704733064127185 12.722478983906166 7.5 0 0 0
437 449 1 -5.5248161363091475 9.912006900229454 7.5 0 0 0
434 450 1 -6.749951997351903 10.614736871562677 7.5 0 0 0
435 451 1 -6.749078562246159 12.023314439949838 7.5 0 0 0
438 452 1 -5.524294916294214 12.721095745567094 7.5 0 0 0
440 454 1 -4.29770525336721 10.614652682231275 7.5 0 0 0
441 455 1 -4.297626405106948 12.024595227749943 7.5 0 0 0
396 413 1 -3.069996403163115 5.672123343837302 7.5 0 0 0
442 416 1 -3.0699924465831945 8.499779235646741 7.5 0 0 0
400 417 1 -0.6139988335180441 5.672184459076254 7.5 0 0 0
398 418 1 -1.8419988775236849 6.3790266016169594 7.5 0 0 0
445 419 1 -1.8420019423204699 7.796199125001745 7.5 0 0 0
448 420 1 -0.6139996303554164 8.49971820001933 7.5 0 0 0
404 421 1 1.8419986472820074 5.672171874700661 7.5 0 0 0
402 422 1 0.6139988669122904 6.379012726670427 7.5 0 0 0
451 423 1 0.613999504200207 7.796210535558762 7.5 0 0 0
454 424 1 1.8420015436674668 8.499732858343929 7.5 0 0 0
406 426 1 3.069996763504681 6.379078309361952 7.5 0 0 0
457 427 1 3.0700032577970062 7.79615255985928 7.5 0 0 0
443 453 1 -3.0700147016849257 9.912656818615392 7.5 0 0 0
444 456 1 -3.0698927394441737 12.720816319644499 7.5 0 0 0
449 457 1 -0.6140006055717588 9.912705300350456 7.5 0 0 0
446 458 1 -1.842001635030488 10.614534083897906 7.5 0 0 0
447 459 1 -1.841997704621983 12.024688073349283 7.5 0 0 0
450 460 1 -0.6140023463910748 12.72078601986543 7.5 0 0 0
455 461 1 1.842008697472192 9.912695876172185 7.5 0 0 0
452 462 1 0.6140012765285536 10.614523447411292 7.5 0 0 0
453 463 1 0.6140033242439309 12.024689904686053 7.5 0 0 0
456 464 1 1.8420106140179349 12.720789237192927 7.5 0 0 0
458 466 1 3.070006265331285 10.614568317199023 7.5 0 0 0
459 467 1 3.070033552384311 12.024694219938064 7.5 0 0 0
408 425 1 4.297838024216021 5.671962711860665 7.5 0 0 0
460 428 1 4.2978428839570215 8.499944191373581 7.5 0 0 0
412 429 1 6.750281556134792 5.670978078955342 7.5 0 0 0
410 430 1 5.524944144655966 6.379651255352545 7.5 0 0 0
463 431 1 5.524970091890037 7.795611606877661 7.5 0 0 0
466 432 1 6.750153348217472 8.500679289354602 7.5 0 0 0
416 433 1 9.193165209125626 5.671068390958402 7.5 0 0 0
414 434 1 7.972831651540048 6.380725509217617 7.5 0 0 0
469 435 1 7.973002499054011 7.794608329260022 7.5 0 0 0
472 436 1 9.193685736318338 8.50158865992317 7.5 0 0 0
420 437 1 11.622880504793148 5.665581784914341 7.5 0 0 0
418 438 1 10.412554883937357 6.382012476473173 7.5 0 0 0
475 439 1 10.413183270414358 7.794539879926546 7.5 0 0 0
478 440 1 11.624671994292969 8.509466345487178 7.5 0 0 0
461 465 1 4.297903967723253 9.912587523411645 7.5 0 0 0
462 468 1 4.297806117102438 12.720903385609738 7.5 0 0 0
467 469 1 6.750249686654927 9.911375095526756 7.5 0 0 0
464 470 1 5.524792319904781 10.614959110626458 7.5 0 0 0
465 471 1 5.525082921591414 12.024471997606565 7.5 0 0 0
468 472 1 6.750626681120006 12.72134821234022 7.5 0 0 0
473 473 1 9.195132533803449 9.91276542029598 7.5 0 0 0
470 474 1 7.973246343282701 10.6151598182478 7.5 0 0 0
471 475 1 7.972812913927376 12.022583353160888 7.5 0 0 0
474 476 1 9.191515616394792 12.723835847633428 7.5 0 0 0
479 477 1 11.62775007779955 9.912768404010201 7.5 0 0 0
476 478 1 10.41542932290174 10.6218044799861 7.5 0 0 0
477 479 1 10.412769576965308 12.030526357173457 7.5 0 0 0
480 480 1 11.609929978571465 12.761677155292288 7.5 0 0 0

Velocities

4 -0.0032306119469729506 -0.004645728574828016 0.0015124483454881366
1 -0.0049035515965069896 0.002075153559631972 0.0028584474086106207
2 0.006384925440510286 -0.004368364013097627 0.003032205801585258
5 -0.002287578630139349 -0.004372551178833839 0.002542230127894417
10 -0.005447021293365978 -0.01034960787057731 0.00801390028861183
7 -0.0012600719016300221 -0.0026236362777195764 0.0012875165366405996
8 0.005272730950510819 0.0015645406986150628 -0.004544568796273511
11 0.005047012394724622 0.009460025129469408 0.002739669563725824
16 0.002981559482632324 0.00870244626869096 -0.001666253443083943
13 0.008305481929626803 -0.002540086622773761 0.0017777854955800428
14 0.008133545720129103 -0.007425859397524013 0.004504974628145694
17 -0.002738555186942541 0.0029007338700900776 0.0014159412744345872
19 -0.003329799859177725 -0.005189232811042619 -0.007046178033079544
20 0.002203841492295297 0.0032440560597160302 0.0017434879423589497
6 -0.002977939690631924 0.00658258375716575 -0.0019037455557496916
3 0.001178383614631349 0.00878111424464082 -0.001976194201111115
61 0.0030633678218938585 0.0011886247880323868 -0.0013863625791451248
63 0.005396331285698984 -0.000792470287481824 0.009989786439930698
12 0.014506972399476535 -0.0018722892029143473 0.0044491449378344745
9 -0.00019139728488358463 -0.0006802118648039449 0.009945784444155451
65 -0.0007691521963340434 0.001015517442138536 -0.012902292340529859
67 0.0021722997294054192 -0.0015305195310525844 0.0005934417653439611
18 -0.00021678011239033068 -0.0036404534181387685 -0.0008095304656997996
15 -0.003551533636092147 0.004442036607378184 7.252033883407236e-05
69 0.00026929846588390037 -0.0035254304407966726 0.004016701724862212
71 -0.004824292886241407 0.003222387621582762 0.0005633183898158421
21 0.002963931479391939 0.006709733622029337 0.007985708774049064