ITEM: TIMESTEP
150000
ITEM: NUMBER OF ATOMS
692
ITEM: BOX BOUNDS pp pp pp
-3.0000000000000000e+01 3.0000000000000000e+01
-3.0000000000000000e+01 3.0000000000000000e+01
-1.5000000000000000e+01 1.5000000000000000e+01
ITEM: ATOMS id type xs ys zs
6 1 0.327103 0.289965 0.248393
3 1 0.306942 0.302296 0.252337
1 1 0.307686 0.32617 0.25526
12 1 0.367945 0.288647 0.242732
9 1 0.348123 0.300688 0.250664
7 1 0.347914 0.324287 0.243648
18 1 0.408535 0.289929 0.237988
15 1 0.388197 0.3011 0.237625
14 1 0.388301 0.324701 0.248028
21 1 0.428195 0.301678 0.248451
20 1 0.429498 0.324637 0.244187
24 1 0.448722 0.289394 0.247151
28 1 0.48943 0.2898 0.2443
27 1 0.469143 0.300409 0.25346
26 1 0.469722 0.323528 0.247093
278 1 0.328799 0.312473 0.74955
276 1 0.307686 0.323536 0.751869
282 1 0.369062 0.312251 0.740131
280 1 0.348819 0.323895 0.740825
286 1 0.409222 0.313255 0.749323
284 1 0.389199 0.324765 0.738637
288 1 0.429031 0.326068 0.75375
290 1 0.449329 0.314968 0.749065
293 1 0.491033 0.313698 0.751512
292 1 0.470767 0.325062 0.744274
9256 2 0.250222 0.303272 0.258908
9271 2 0.396902 0.0680962 0.775715
6039 2 0.442556 0.317634 0.355049
9329 2 0.307652 0.331958 0.490569
9071 2 0.405587 0.123539 0.280453
9357 2 0.498571 0.10444 0.76642
9384 2 0.0571942 0.196751 0.250084
7105 2 0.452362 0.317354 0.146688
9410 2 0.165841 0.224954 0.248415
9408 2 0.204181 0.056 0.430798
9335 2 0.283426 0.27505 0.0748531
9441 2 0.195692 0.318452 0.670842
9406 2 0.12215 0.275742 0.924832
9106 2 0.471451 0.184636 0.675102
9405 2 0.410494 0.217721 0.270655
9391 2 0.386383 0.202917 0.48683
8909 2 0.289142 0.196227 0.190036
9491 2 0.285973 0.136941 0.768701
8923 2 0.472435 0.0841543 0.490829
9472 2 0.0837703 0.049285 0.534336
9435 2 0.197376 0.165869 0.881419
9119 2 0.15393 0.0746995 0.27641
9486 2 0.0811773 0.177757 0.00967292
9371 2 0.454524 0.160756 0.125319
9373 2 0.365514 0.0351698 0.620932
9381 2 0.361045 0.177435 0.663725
9386 2 0.144057 0.217605 0.768362
9437 2 0.429401 0.31267 0.621928
9431 2 0.468397 0.139388 0.95252
9467 2 0.236168 0.0996815 0.251549
9471 2 0.00523164 0.132405 0.0378371
9476 2 0.291497 0.0603827 0.0785449
5791 2 0.463523 0.333202 0.851433
4 1 0.328178 0.336309 0.253988
10 1 0.367737 0.336281 0.250662
17 1 0.409304 0.33654 0.244567
5 1 0.327578 0.359313 0.247394
2 1 0.307683 0.371333 0.251535
64 1 0.307095 0.394197 0.246619
69 1 0.327346 0.406247 0.244086
11 1 0.368105 0.360283 0.246217
8 1 0.347796 0.371303 0.252394
74 1 0.34801 0.395107 0.252047
79 1 0.368936 0.406154 0.246357
16 1 0.408627 0.360236 0.248437
13 1 0.388427 0.372576 0.255917
88 1 0.388659 0.395976 0.256982
89 1 0.40877 0.405984 0.249029
19 1 0.429408 0.370511 0.255753
96 1 0.429783 0.394475 0.254472
22 1 0.450039 0.334714 0.252624
29 1 0.489674 0.335687 0.254896
23 1 0.450088 0.358322 0.248276
99 1 0.449626 0.40658 0.247593
30 1 0.489948 0.359747 0.250212
25 1 0.469526 0.371047 0.256244
104 1 0.469898 0.394313 0.248015
109 1 0.48958 0.405761 0.253733
73 1 0.327102 0.429889 0.254109
66 1 0.306154 0.441992 0.250295
68 1 0.307204 0.464455 0.24895
71 1 0.327374 0.476372 0.25329
80 1 0.367817 0.429646 0.245285
76 1 0.347876 0.441939 0.25366
77 1 0.34756 0.465246 0.245579
83 1 0.368233 0.477084 0.245548
90 1 0.408998 0.429488 0.255069
85 1 0.388847 0.440838 0.24409
86 1 0.388468 0.464727 0.250062
93 1 0.409384 0.476619 0.251099
95 1 0.428589 0.441595 0.2502
97 1 0.429594 0.46457 0.257661
70 1 0.328122 0.500135 0.245838
67 1 0.309049 0.512692 0.25611
65 1 0.308861 0.535944 0.253392
72 1 0.328841 0.547421 0.245496
82 1 0.367801 0.500506 0.253282
78 1 0.34832 0.512283 0.246427
75 1 0.347905 0.535145 0.254362
81 1 0.368154 0.547193 0.248891
92 1 0.408965 0.500274 0.255129
87 1 0.388352 0.511572 0.249603
84 1 0.388147 0.534962 0.253338
91 1 0.408386 0.546635 0.247413
98 1 0.429416 0.512207 0.254374
94 1 0.428977 0.535288 0.245649
175 1 0.327751 0.570697 0.240514
183 1 0.36817 0.570593 0.25441
189 1 0.408678 0.570191 0.256838
100 1 0.448715 0.430276 0.251769
103 1 0.45048 0.477108 0.254887
110 1 0.48972 0.429057 0.245273
106 1 0.469636 0.441817 0.249138
107 1 0.469655 0.465221 0.244969
112 1 0.490203 0.476715 0.246318
102 1 0.449366 0.500598 0.249601
101 1 0.449826 0.547858 0.253201
113 1 0.490134 0.499958 0.252957
108 1 0.469518 0.512361 0.2473
105 1 0.469706 0.535667 0.254485
111 1 0.490052 0.547982 0.254407
198 1 0.449348 0.57168 0.254172
208 1 0.489737 0.570965 0.244352
171 1 0.307085 0.581059 0.250417
170 1 0.306099 0.604148 0.258858
174 1 0.326562 0.616403 0.250839
179 1 0.348298 0.582016 0.245302
178 1 0.34711 0.604986 0.255767
182 1 0.36734 0.617067 0.25771
186 1 0.388275 0.582277 0.24929
185 1 0.387971 0.605399 0.254757
190 1 0.408493 0.616952 0.247498
194 1 0.428702 0.582368 0.25156
193 1 0.428735 0.60556 0.255956
173 1 0.327121 0.639855 0.261987
169 1 0.306527 0.651873 0.26083
181 1 0.367431 0.640099 0.247037
177 1 0.347143 0.651635 0.250887
191 1 0.407546 0.640946 0.242644
187 1 0.387142 0.652701 0.251057
195 1 0.427613 0.651899 0.2479
199 1 0.449168 0.61696 0.250354
203 1 0.470196 0.583069 0.250708
201 1 0.469978 0.605638 0.242149
207 1 0.489514 0.6176 0.238867
197 1 0.448479 0.640248 0.240508
206 1 0.490088 0.640454 0.24847
202 1 0.469454 0.651333 0.241166
275 1 0.30725 0.347088 0.752306
277 1 0.328311 0.35837 0.75181
279 1 0.348441 0.347149 0.74826
281 1 0.36766 0.360074 0.742618
283 1 0.387757 0.348246 0.744515
285 1 0.40783 0.360417 0.738373
287 1 0.429343 0.348679 0.74362
321 1 0.327804 0.381877 0.746796
315 1 0.307651 0.39365 0.751165
316 1 0.307163 0.416886 0.752074
332 1 0.366864 0.382481 0.756475
326 1 0.346832 0.394568 0.758639
327 1 0.347749 0.417387 0.753433
347 1 0.408343 0.383571 0.74536
341 1 0.387734 0.394071 0.753529
342 1 0.387262 0.417472 0.748775
348 1 0.429098 0.39532 0.753112
351 1 0.42892 0.418951 0.752
289 1 0.449386 0.359841 0.75008
291 1 0.470004 0.348678 0.743979
294 1 0.490251 0.359985 0.749493
358 1 0.449704 0.383563 0.746921
365 1 0.490264 0.383415 0.745118
359 1 0.470095 0.395239 0.75024
360 1 0.469395 0.418405 0.745904
322 1 0.327051 0.428595 0.750597
333 1 0.367388 0.429017 0.759285
343 1 0.408115 0.429158 0.758303
325 1 0.326602 0.452074 0.757757
318 1 0.307105 0.464423 0.753107
320 1 0.308179 0.487061 0.747466
323 1 0.327743 0.499626 0.745464
334 1 0.3677 0.453373 0.75881
329 1 0.346651 0.463939 0.751206
331 1 0.347475 0.487825 0.755665
335 1 0.367649 0.500186 0.750857
344 1 0.408934 0.453313 0.758627
337 1 0.388351 0.465093 0.750776
340 1 0.388242 0.488782 0.754835
345 1 0.408442 0.500042 0.749174
349 1 0.428588 0.465741 0.752243
353 1 0.428918 0.48909 0.757139
324 1 0.327245 0.522486 0.755717
319 1 0.307287 0.534585 0.748682
317 1 0.306898 0.558572 0.749819
434 1 0.327249 0.570228 0.753994
336 1 0.367752 0.523087 0.755087
330 1 0.347513 0.534492 0.748774
328 1 0.347616 0.55766 0.754006
443 1 0.367526 0.568929 0.748029
346 1 0.408347 0.523705 0.753518
339 1 0.387657 0.534293 0.748605
338 1 0.388439 0.55784 0.74594
450 1 0.408722 0.569327 0.75298
352 1 0.428965 0.535034 0.746589
350 1 0.42906 0.557749 0.74755
354 1 0.449478 0.430949 0.755361
366 1 0.489999 0.430126 0.751509
355 1 0.449218 0.454654 0.756291
356 1 0.449121 0.501059 0.747416
367 1 0.489881 0.454048 0.752439
362 1 0.469166 0.465785 0.745138
364 1 0.46923 0.489401 0.751829
369 1 0.489944 0.500549 0.746291
357 1 0.449434 0.523588 0.754556
460 1 0.449549 0.568973 0.75852
368 1 0.490208 0.523923 0.751057
363 1 0.469642 0.534644 0.748137
361 1 0.469987 0.558214 0.757824
471 1 0.49054 0.569896 0.752
433 1 0.327657 0.59383 0.747925
429 1 0.307187 0.605102 0.746042
428 1 0.308193 0.628499 0.745672
432 1 0.328163 0.640129 0.752296
442 1 0.367643 0.592918 0.752916
438 1 0.348227 0.604806 0.754499
437 1 0.348185 0.627857 0.748101
441 1 0.368159 0.64028 0.751639
449 1 0.408293 0.593243 0.753256
446 1 0.387588 0.604966 0.744595
445 1 0.388064 0.628643 0.744535
451 1 0.408451 0.639612 0.752484
455 1 0.429648 0.604472 0.748383
454 1 0.429308 0.628334 0.746291
8291 2 0.360675 0.612079 0.361448
440 1 0.36801 0.663825 0.754184
452 1 0.409676 0.662795 0.748419
459 1 0.449614 0.592459 0.759672
461 1 0.450131 0.640444 0.756369
470 1 0.490633 0.593386 0.758488
465 1 0.469038 0.604394 0.752084
463 1 0.469798 0.627982 0.755438
469 1 0.490268 0.639645 0.74809
458 1 0.450261 0.663491 0.747663
468 1 0.490912 0.663462 0.752246
8135 2 0.348159 0.356498 0.347458
9171 2 0.205348 0.370444 0.937935
3911 2 0.345445 0.426074 0.644331
267 2 0.434158 0.532782 0.384413
7213 2 0.367791 0.580103 0.865115
254 2 0.325252 0.444857 0.357418
7877 2 0.449128 0.466641 0.924747
252 2 0.449725 0.582483 0.879741
9422 2 0.0653639 0.343669 0.424946
7524 2 0.360592 0.605917 0.645835
9460 2 0.264935 0.486732 0.51644
5360 2 0.34106 0.526098 0.645514
8973 2 0.12676 0.530606 0.0975998
3782 2 0.476181 0.548878 0.154555
9393 2 0.175952 0.504812 0.54953
711 2 0.492067 0.428944 0.353168
615 2 0.340865 0.355931 0.634334
5675 2 0.414592 0.476903 0.641195
9469 2 0.453581 0.37279 0.00133156
8979 2 0.323758 0.341382 0.849839
5128 2 0.426757 0.392726 0.646884
5079 2 0.349402 0.456052 0.144822
9475 2 0.396953 0.404255 0.924995
9409 2 0.123948 0.662433 0.111241
9288 2 0.0828134 0.536947 0.823599
9317 2 0.222913 0.637739 0.511248
272 2 0.413072 0.607113 0.13773
1428 2 0.448433 0.585093 0.642414
5604 2 0.356829 0.343879 0.140357
9452 2 0.0993215 0.415085 0.832776
8902 2 0.153878 0.338939 0.218356
2524 2 0.408605 0.426785 0.362061
9060 2 0.26195 0.497513 0.237161
9451 2 0.130329 0.597517 0.691627
8941 2 0.243632 0.476563 0.808045
431 1 0.327625 0.663231 0.742668
9487 2 0.458371 0.448639 0.127263
9225 2 0.136908 0.399611 0.345465
9340 2 0.253088 0.662252 0.833778
9439 2 0.0037126 0.582532 0.576455
9474 2 0.0276091 0.358397 0.0702774
9481 2 0.278174 0.652836 0.172377
172 1 0.307052 0.675045 0.257959
176 1 0.327166 0.686049 0.250968
180 1 0.347206 0.675474 0.256386
184 1 0.36689 0.687594 0.252217
188 1 0.386942 0.675853 0.244819
192 1 0.407599 0.686811 0.248274
196 1 0.42757 0.67514 0.244281
200 1 0.448539 0.685771 0.24927
204 1 0.468655 0.673325 0.254199
205 1 0.488221 0.685739 0.251224
427 1 0.307891 0.673772 0.751045
430 1 0.308786 0.697389 0.756948
435 1 0.327835 0.71008 0.751417
436 1 0.347547 0.675538 0.751367
439 1 0.348044 0.698451 0.742495
444 1 0.36834 0.709287 0.749909
447 1 0.38874 0.674372 0.748169
448 1 0.388788 0.697367 0.751889
453 1 0.408836 0.709709 0.744211
456 1 0.42987 0.674668 0.752132
457 1 0.429542 0.697933 0.740624
462 1 0.449538 0.709562 0.741014
464 1 0.470469 0.675259 0.753172
466 1 0.470284 0.697719 0.740285
467 1 0.490509 0.710189 0.745981
9402 2 0.229078 0.757346 0.671256
9208 2 0.267582 0.821715 0.552244
9111 2 0.07737 0.680625 0.348692
9369 2 0.245487 0.846557 0.16115
9321 2 0.476343 0.859783 0.570676
9448 2 0.0465319 0.758579 0.119372
9468 2 0.0112313 0.938893 0.530301
9473 2 0.286165 0.910543 0.126413
3694 2 0.360488 0.695416 0.849397
9420 2 0.175648 0.689233 0.685599
9038 2 0.363135 0.747223 0.673595
9312 2 0.319795 0.693428 0.392744
9429 2 0.37805 0.744272 0.0317421
9395 2 0.231942 0.72023 0.310583
9389 2 0.259605 0.676678 0.0049658
9269 2 0.465201 0.669129 0.507292
9000 2 0.344375 0.856203 0.270688
9465 2 0.311659 0.960812 0.377647
9359 2 0.165647 0.80068 0.416434
9387 2 0.0399112 0.933942 0.268947
9430 2 0.18382 0.85368 0.982516
9135 2 0.418801 0.769584 0.761016
9370 2 0.116327 0.938518 0.902265
9258 2 0.180324 0.922089 0.555676
9449 2 0.343085 0.882655 0.985194
9482 2 0.0544224 0.845913 0.0450322
9492 2 0.0326916 0.810792 0.658308
9495 2 0.0235674 0.845002 0.511976
9496 2 0.0287391 0.972894 0.798664
36 1 0.530922 0.289386 0.243313
33 1 0.509848 0.301225 0.237465
32 1 0.509281 0.32354 0.250987
39 1 0.55107 0.301046 0.249465
38 1 0.550126 0.32485 0.243302
40 1 0.57094 0.289298 0.243403
48 1 0.611447 0.29084 0.241978
45 1 0.590881 0.300971 0.249055
43 1 0.59124 0.32423 0.250774
52 1 0.651987 0.291679 0.247575
49 1 0.632168 0.303283 0.238274
51 1 0.631391 0.325512 0.250679
58 1 0.690096 0.289733 0.260895
55 1 0.671256 0.303035 0.257652
57 1 0.672552 0.325474 0.24697
298 1 0.530985 0.313186 0.755734
296 1 0.510575 0.324954 0.75614
300 1 0.551519 0.323208 0.749341
301 1 0.571361 0.311848 0.758876
306 1 0.611536 0.312627 0.757069
304 1 0.590706 0.32386 0.761105
309 1 0.652333 0.312944 0.75026
307 1 0.632005 0.324391 0.748454
313 1 0.691535 0.313146 0.761276
311 1 0.67257 0.324708 0.747791
9479 2 0.541391 0.145892 0.500643
9383 2 0.605143 0.0199549 0.819119
9302 2 0.993216 0.322813 0.551328
9240 2 0.654729 0.0957825 0.608533
6808 2 0.548598 0.301586 0.144861
9404 2 0.718879 0.099389 0.33433
9424 2 0.944072 0.138231 0.317337
4945 2 0.522947 0.327725 0.642309
8568 2 0.724253 0.305149 0.172788
9493 2 0.869309 0.232163 0.187833
9344 2 0.980208 0.249464 0.195053
9428 2 0.693702 0.309727 0.430625
9350 2 0.700691 0.241037 0.296507
9379 2 0.624116 0.141868 0.0942708
9313 2 0.69951 0.320606 0.925062
4479 2 0.558313 0.332168 0.865525
9396 2 0.571978 0.103163 0.962892
9443 2 0.981339 0.0183155 0.53361
9403 2 0.875554 0.223849 0.379517
9436 2 0.967747 0.0514937 0.32164
9447 2 0.978378 0.299724 0.783218
9454 2 0.795598 0.0345 0.205883
9455 2 0.532157 0.0108238 0.969813
9466 2 0.881598 0.0588077 0.309724
9463 2 0.778076 0.220935 0.783763
9461 2 0.548192 0.226814 0.98707
9478 2 0.835306 0.137704 0.859007
9480 2 0.633359 0.232694 0.800292
9483 2 0.738925 0.113229 0.869302
9489 2 0.778891 0.163343 0.292193
9490 2 0.783482 0.147151 0.097581
35 1 0.529434 0.335499 0.244307
34 1 0.529717 0.359147 0.252626
31 1 0.509878 0.371372 0.252112
118 1 0.509702 0.393961 0.248533
123 1 0.530085 0.405775 0.251757
37 1 0.550197 0.371456 0.244206
128 1 0.55023 0.394714 0.253031
42 1 0.570475 0.336505 0.248923
47 1 0.610981 0.336162 0.243774
54 1 0.652381 0.33788 0.250712
60 1 0.692629 0.33798 0.25011
41 1 0.570421 0.359995 0.2423
133 1 0.570899 0.406204 0.245412
46 1 0.611571 0.359095 0.253875
44 1 0.590795 0.370326 0.250237
138 1 0.591276 0.393499 0.243923
143 1 0.611014 0.406469 0.246938
53 1 0.651867 0.361012 0.241078
50 1 0.631642 0.371829 0.251692
144 1 0.631439 0.395494 0.250455
153 1 0.651883 0.407134 0.238435
59 1 0.692092 0.361583 0.248031
56 1 0.671658 0.372696 0.242875
158 1 0.671352 0.395605 0.249608
161 1 0.691402 0.406593 0.244835
122 1 0.53061 0.428958 0.249418
117 1 0.509844 0.441027 0.253566
115 1 0.50972 0.465054 0.257395
119 1 0.53013 0.476388 0.252413
126 1 0.551141 0.440841 0.249097
125 1 0.550228 0.464232 0.257586
120 1 0.529916 0.499863 0.250498
114 1 0.510315 0.511972 0.244652
116 1 0.510711 0.535242 0.252174
121 1 0.531555 0.546403 0.245087
124 1 0.550328 0.510641 0.24259
127 1 0.551232 0.534001 0.24991
213 1 0.529606 0.569945 0.253858
132 1 0.571484 0.429249 0.252956
129 1 0.570569 0.475968 0.251134
142 1 0.611354 0.429692 0.244119
136 1 0.591517 0.441379 0.244979
134 1 0.590787 0.464513 0.254242
139 1 0.611653 0.475443 0.248645
149 1 0.651781 0.430674 0.244504
147 1 0.631175 0.441391 0.250739
146 1 0.632099 0.464702 0.253076
151 1 0.652914 0.476295 0.248486
162 1 0.692212 0.42967 0.249931
156 1 0.672209 0.440706 0.258389
155 1 0.672892 0.464542 0.257893
159 1 0.69291 0.476223 0.247998
130 1 0.570876 0.498989 0.250857
131 1 0.571238 0.545702 0.244055
140 1 0.61179 0.498795 0.251132
135 1 0.591082 0.510362 0.240737
137 1 0.590891 0.5337 0.239303
141 1 0.611418 0.545344 0.245049
152 1 0.653193 0.499163 0.245685
145 1 0.632734 0.510373 0.251257
148 1 0.633003 0.53367 0.244662
150 1 0.653127 0.545283 0.250276
160 1 0.693481 0.499866 0.246274
154 1 0.673579 0.511596 0.250306
157 1 0.673064 0.534392 0.24577
163 1 0.692174 0.546384 0.254203
222 1 0.570475 0.569586 0.24912
233 1 0.611832 0.569167 0.242142
240 1 0.65241 0.569431 0.245725
248 1 0.691422 0.570522 0.252202
209 1 0.509637 0.58203 0.244943
210 1 0.509553 0.606137 0.246835
214 1 0.530447 0.617431 0.243519
217 1 0.550205 0.581768 0.246062
218 1 0.550111 0.605203 0.25285
215 1 0.530974 0.64034 0.247157
211 1 0.510447 0.651973 0.242765
219 1 0.551551 0.651292 0.246813
223 1 0.570872 0.615859 0.24642
226 1 0.590839 0.581066 0.244449
227 1 0.591002 0.604197 0.25125
231 1 0.611398 0.615626 0.254448
236 1 0.632315 0.581023 0.250887
237 1 0.63139 0.604302 0.244048
241 1 0.651516 0.616678 0.249766
243 1 0.671585 0.582164 0.253469
245 1 0.671903 0.605284 0.246031
249 1 0.690683 0.617283 0.256763
224 1 0.571138 0.63942 0.254104
232 1 0.61101 0.639092 0.253114
225 1 0.590802 0.650859 0.251825
242 1 0.651899 0.640418 0.246333
238 1 0.631823 0.651122 0.255168
250 1 0.690915 0.640181 0.260143
246 1 0.670934 0.652495 0.258136
295 1 0.510649 0.3481 0.747761
297 1 0.530097 0.360042 0.754239
299 1 0.55107 0.347865 0.752923
380 1 0.530712 0.382539 0.743502
375 1 0.510807 0.39428 0.74704
374 1 0.510594 0.417644 0.744883
386 1 0.550718 0.394482 0.75134
385 1 0.550346 0.418594 0.748247
302 1 0.571156 0.359684 0.754382
303 1 0.591004 0.347163 0.750644
305 1 0.611064 0.35965 0.757423
308 1 0.63206 0.347954 0.756846
310 1 0.65149 0.360402 0.747018
312 1 0.672062 0.34834 0.750667
314 1 0.692169 0.359543 0.740438
391 1 0.571459 0.382673 0.744997
398 1 0.612266 0.382781 0.748368
397 1 0.591719 0.39406 0.752846
396 1 0.590421 0.418007 0.748068
413 1 0.652104 0.384229 0.752395
408 1 0.63195 0.394988 0.755732
403 1 0.630735 0.418383 0.748342
424 1 0.690629 0.383579 0.738987
419 1 0.671133 0.396126 0.741117
418 1 0.671193 0.419113 0.748616
379 1 0.530405 0.429931 0.750106
378 1 0.530623 0.453344 0.745999
372 1 0.510354 0.465114 0.745465
370 1 0.509779 0.488297 0.749492
377 1 0.530089 0.500393 0.741531
383 1 0.549896 0.465126 0.755215
382 1 0.549557 0.489066 0.757372
376 1 0.530518 0.524293 0.74793
371 1 0.510399 0.53576 0.742396
373 1 0.510855 0.558243 0.752037
476 1 0.531167 0.570362 0.74689
381 1 0.551222 0.535423 0.744065
384 1 0.551456 0.558632 0.751298
390 1 0.570408 0.430591 0.754788
402 1 0.609896 0.429964 0.756318
412 1 0.650606 0.43081 0.751709
422 1 0.691051 0.430591 0.744484
389 1 0.571075 0.454566 0.749353
387 1 0.570347 0.500087 0.748435
401 1 0.609932 0.453747 0.751821
394 1 0.590638 0.465293 0.760825
392 1 0.590434 0.488473 0.759376
400 1 0.610729 0.500293 0.749616
409 1 0.650928 0.453754 0.74857
407 1 0.630971 0.464786 0.753769
404 1 0.631283 0.48838 0.747243
411 1 0.651809 0.500051 0.75128
423 1 0.691762 0.45366 0.74452
417 1 0.671828 0.465544 0.75388
414 1 0.672153 0.488413 0.745928
421 1 0.691571 0.501134 0.750359
388 1 0.571621 0.523508 0.749022
486 1 0.571298 0.570915 0.747023
399 1 0.611822 0.52393 0.752581
393 1 0.591715 0.535168 0.741601
395 1 0.591265 0.558698 0.746968
496 1 0.61098 0.570461 0.739616
410 1 0.652302 0.522889 0.742085
405 1 0.632459 0.535188 0.747895
406 1 0.631336 0.558302 0.739721
504 1 0.651195 0.570258 0.747339
420 1 0.691967 0.524213 0.747056
415 1 0.671692 0.535083 0.752287
416 1 0.671107 0.557918 0.745243
514 1 0.691094 0.569389 0.757041
477 1 0.530609 0.593904 0.750762
472 1 0.510943 0.605788 0.746999
473 1 0.511189 0.629497 0.748107
478 1 0.530941 0.641109 0.743422
481 1 0.550553 0.60552 0.74553
482 1 0.55077 0.62944 0.749078
479 1 0.531024 0.664557 0.743972
487 1 0.571229 0.594505 0.753172
488 1 0.570787 0.641229 0.745913
497 1 0.612025 0.593612 0.74675
491 1 0.591618 0.605508 0.745634
492 1 0.591135 0.628712 0.753573
494 1 0.611625 0.639731 0.749122
505 1 0.651116 0.593505 0.741023
500 1 0.631498 0.606076 0.743623
501 1 0.631577 0.628641 0.752
506 1 0.651518 0.640182 0.7467
513 1 0.69024 0.592999 0.762086
508 1 0.670876 0.604867 0.750607
510 1 0.671456 0.628517 0.756049
515 1 0.692412 0.639885 0.753022
489 1 0.570786 0.663842 0.75633
495 1 0.611875 0.662982 0.750995
507 1 0.651556 0.663547 0.752252
6821 2 0.643897 0.596726 0.639802
8448 2 0.710067 0.423218 0.622341
7592 2 0.64076 0.569515 0.852419
9414 2 0.66845 0.633187 0.145868
9082 2 0.709922 0.511191 0.519814
2243 2 0.538944 0.59013 0.879601
3623 2 0.537109 0.480394 0.142894
9327 2 0.727703 0.615103 0.93148
9450 2 0.985853 0.44881 0.940646
2943 2 0.614853 0.569555 0.347693
722 2 0.512809 0.398988 0.144374
730 2 0.594422 0.377126 0.066223
1732 2 0.555706 0.521269 0.359421
6460 2 0.509191 0.636759 0.351736
516 1 0.691294 0.66323 0.748213
7385 2 0.652579 0.445997 0.145561
1430 2 0.651749 0.53773 0.141748
9212 2 0.759085 0.344462 0.727806
8974 2 0.900748 0.533607 0.69034
9278 2 0.582602 0.454085 0.433102
716 2 0.615452 0.38821 0.85493
6523 2 0.614476 0.393589 0.638066
9440 2 0.739971 0.509623 0.18612
1252 2 0.523324 0.517573 0.864602
9301 2 0.849166 0.51913 0.0243767
9438 2 0.791117 0.522198 0.759265
8396 2 0.596201 0.486815 0.8696
9193 2 0.690049 0.379893 0.352533
9477 2 0.984133 0.414349 0.537041
6803 2 0.703944 0.521635 0.87461
9433 2 0.990165 0.615871 0.894994
1024 2 0.509728 0.441502 0.636843
7654 2 0.588301 0.370707 0.353484
2370 2 0.647962 0.498247 0.629922
1195 2 0.517209 0.419293 0.854855
8663 2 0.6963 0.371417 0.119425
9277 2 0.761239 0.571704 0.283274
9323 2 0.76146 0.453226 0.915106
8472 2 0.562277 0.55472 0.644697
8282 2 0.644722 0.64025 0.354828
7942 2 0.506513 0.632862 0.149245
9378 2 0.872598 0.41462 0.474411
9354 2 0.835307 0.614359 0.170625
9362 2 0.927139 0.407288 0.00451346
9374 2 0.79266 0.343554 0.338818
9412 2 0.8249 0.655988 0.739293
212 1 0.509696 0.67555 0.244857
216 1 0.530376 0.686328 0.25266
220 1 0.550789 0.673998 0.256954
221 1 0.570631 0.685961 0.254824
228 1 0.59005 0.673976 0.261362
234 1 0.610627 0.685115 0.256255
235 1 0.631568 0.674508 0.24782
239 1 0.651848 0.687105 0.253332
244 1 0.670991 0.676116 0.26081
247 1 0.690444 0.687183 0.249661
474 1 0.510682 0.675586 0.742901
475 1 0.510244 0.698718 0.750011
480 1 0.530004 0.710896 0.745854
483 1 0.551118 0.67668 0.752647
484 1 0.551459 0.700008 0.745721
485 1 0.571555 0.711005 0.747221
490 1 0.591265 0.674447 0.747826
493 1 0.591018 0.698912 0.754046
498 1 0.611341 0.711004 0.755261
502 1 0.63144 0.675259 0.744386
499 1 0.630973 0.69808 0.75424
503 1 0.65117 0.709666 0.751621
511 1 0.67144 0.675047 0.74454
509 1 0.67108 0.697809 0.751331
512 1 0.689688 0.710539 0.740651
9331 2 0.994538 0.854212 0.874042
5237 2 0.52854 0.683572 0.63257
9347 2 0.810569 0.888591 0.658956
9366 2 0.947975 0.969366 0.266174
8981 2 0.774006 0.821752 0.552185
9364 2 0.860316 0.89193 0.462041
9123 2 0.656705 0.846054 0.130687
955 2 0.60284 0.687839 0.857083
9018 2 0.833268 0.810699 0.0395447
9453 2 0.927611 0.685423 0.821558
9334 2 0.788979 0.68854 0.501067
9006 2 0.537761 0.743257 0.320254
9281 2 0.590409 0.81196 0.834247
9031 2 0.627795 0.998495 0.202774
9423 2 0.93256 0.768745 0.181058
9416 2 0.849513 0.979282 0.347011
8951 2 0.743461 0.678151 0.312586
9446 2 0.782608 0.91652 0.00693207
9425 2 0.713274 0.71771 0.0975039
9270 2 0.671843 0.883681 0.753459
9213 2 0.714855 0.771019 0.814705
8648 2 0.610909 0.756534 0.706167
9380 2 0.62924 0.955787 0.95804
9432 2 0.756807 0.870743 0.443714
9434 2 0.846936 0.721016 0.835374
9442 2 0.563039 0.726254 0.00501711
9444 2 0.598627 0.97778 0.39795
9470 2 0.536829 0.909303 0.615189
9484 2 0.909665 0.734026 0.66339
9488 2 0.682009 0.918638 0.157512
9494 2 0.925697 0.948031 0.0552113
9497 2 0.562896 0.889062 0.221539
