ITEM: TIMESTEP
150000
ITEM: NUMBER OF ATOMS
475
ITEM: BOX BOUNDS pp pp pp
-3.0000000000000000e+01 3.0000000000000000e+01
-3.0000000000000000e+01 3.0000000000000000e+01
-1.5000000000000000e+01 1.5000000000000000e+01
ITEM: ATOMS id type xs ys zs
40 1 0.329328 0.303025 0.491131
35 1 0.30812 0.313726 0.491474
50 1 0.369686 0.302878 0.499587
45 1 0.350097 0.314417 0.490273
60 1 0.409674 0.301665 0.503186
55 1 0.389554 0.313923 0.507929
65 1 0.430414 0.312779 0.496906
70 1 0.451591 0.301964 0.498091
76 1 0.491562 0.302989 0.501185
74 1 0.470923 0.314513 0.505259
9536 2 0.122141 0.275705 0.924564
9419 2 0.336733 0.0236202 0.927336
2190 2 0.305007 0.25739 0.501158
9388 2 0.177015 0.268971 0.577247
9602 2 0.0837703 0.0492292 0.534347
9583 2 0.336192 0.197767 0.367756
9500 2 0.0571406 0.196759 0.250269
9364 2 0.183886 0.315301 0.223433
9434 2 0.276264 0.2964 0.171996
4287 2 0.356378 0.320807 0.389174
9563 2 0.0210745 0.150853 0.939351
923 2 0.485331 0.255732 0.534952
9520 2 0.260927 0.32471 0.791829
9562 2 0.158402 0.112519 0.815146
9550 2 0.106163 0.0914354 0.204093
1001 2 0.399608 0.25082 0.482919
9505 2 0.471606 0.276956 0.0536823
3080 2 0.453412 0.321356 0.391493
790 2 0.335896 0.311209 0.601062
9621 2 0.285999 0.136959 0.76874
9484 2 0.0892944 0.127559 0.542564
9506 2 0.144174 0.217506 0.768278
9604 2 0.1585 0.0676254 0.376468
9582 2 0.211766 0.0470726 0.201715
9598 2 0.364655 0.29588 0.0450905
9523 2 0.229834 0.0923917 0.687995
9607 2 0.291492 0.0603758 0.0785473
9491 2 0.36553 0.0351223 0.621198
9497 2 0.360815 0.177439 0.660913
31 1 0.307898 0.336767 0.501276
36 1 0.327915 0.349319 0.500635
41 1 0.348979 0.337438 0.50181
46 1 0.36956 0.349511 0.497305
54 1 0.389109 0.336999 0.494494
59 1 0.409099 0.348393 0.503154
64 1 0.429633 0.336604 0.503722
37 1 0.327777 0.371994 0.507933
32 1 0.308531 0.383112 0.496765
33 1 0.309116 0.406283 0.496895
38 1 0.327971 0.418117 0.508559
47 1 0.368946 0.372608 0.506291
42 1 0.348265 0.383108 0.503515
43 1 0.34853 0.406292 0.510851
48 1 0.368749 0.418543 0.504418
58 1 0.408882 0.371677 0.495244
52 1 0.388914 0.384091 0.50451
53 1 0.38949 0.407066 0.498115
56 1 0.409571 0.418515 0.494064
61 1 0.428619 0.382884 0.504885
63 1 0.429313 0.406566 0.50325
66 1 0.450033 0.349001 0.496792
72 1 0.470035 0.337015 0.495967
77 1 0.490469 0.348011 0.494339
69 1 0.449356 0.37131 0.505182
67 1 0.449673 0.418215 0.497843
78 1 0.490372 0.371107 0.505198
71 1 0.46986 0.383708 0.499657
73 1 0.46986 0.407273 0.50456
79 1 0.489495 0.419154 0.503248
39 1 0.3283 0.441124 0.500721
34 1 0.30819 0.452899 0.508144
139 1 0.308442 0.476659 0.506754
145 1 0.328847 0.488503 0.500742
49 1 0.368329 0.441797 0.500678
44 1 0.348085 0.452544 0.507472
152 1 0.349071 0.476266 0.502812
160 1 0.36932 0.488616 0.508695
57 1 0.409805 0.441875 0.496608
51 1 0.389448 0.452409 0.504935
163 1 0.389356 0.476264 0.501269
172 1 0.409934 0.488817 0.503882
62 1 0.429631 0.453858 0.503154
179 1 0.429055 0.477035 0.498003
144 1 0.327915 0.511587 0.508225
138 1 0.308991 0.52394 0.498733
137 1 0.30888 0.546642 0.50025
146 1 0.329114 0.557863 0.506746
159 1 0.369004 0.511893 0.502672
153 1 0.348626 0.523498 0.50934
151 1 0.349498 0.546974 0.502703
158 1 0.368859 0.558569 0.50686
171 1 0.409447 0.512506 0.500668
164 1 0.389015 0.523444 0.50555
162 1 0.388594 0.546899 0.500048
170 1 0.408875 0.558259 0.506746
180 1 0.429315 0.523691 0.508353
177 1 0.429143 0.546857 0.501328
68 1 0.449334 0.442269 0.497614
187 1 0.449153 0.488706 0.504288
80 1 0.489806 0.442006 0.494363
75 1 0.469816 0.453403 0.505242
195 1 0.469557 0.47656 0.498188
202 1 0.489649 0.488196 0.50111
186 1 0.449271 0.512269 0.501619
185 1 0.448966 0.558547 0.503017
203 1 0.489024 0.511276 0.496432
196 1 0.469594 0.523719 0.504621
194 1 0.468616 0.54724 0.495969
201 1 0.489448 0.558384 0.491641
143 1 0.327414 0.58165 0.496486
136 1 0.307209 0.5942 0.503547
135 1 0.307783 0.618113 0.504001
142 1 0.327772 0.628948 0.498844
157 1 0.367989 0.582229 0.502381
150 1 0.347287 0.593977 0.50711
149 1 0.347327 0.6173 0.50501
156 1 0.367427 0.627803 0.490522
169 1 0.408887 0.581355 0.500493
166 1 0.388649 0.593057 0.506295
165 1 0.388513 0.616505 0.49822
173 1 0.408747 0.628377 0.493906
178 1 0.428633 0.59342 0.499111
176 1 0.42882 0.616925 0.503074
141 1 0.327626 0.652221 0.498348
6 2 0.422192 0.520927 0.61043
155 1 0.367754 0.651698 0.494774
148 1 0.347403 0.664224 0.490437
174 1 0.408316 0.651839 0.500174
167 1 0.388042 0.663265 0.49337
181 1 0.428818 0.663277 0.4934
184 1 0.448376 0.581594 0.503006
188 1 0.449549 0.628392 0.497215
200 1 0.490202 0.581811 0.494799
192 1 0.469506 0.59322 0.497736
190 1 0.469217 0.616264 0.505506
199 1 0.489886 0.62691 0.498849
183 1 0.449617 0.652005 0.500025
198 1 0.490131 0.650719 0.503016
191 1 0.470102 0.662959 0.494573
454 2 0.2757 0.357584 0.579413
18 2 0.337188 0.587336 0.614489
15 2 0.424622 0.568827 0.399496
3139 2 0.267176 0.519051 0.558661
316 2 0.453054 0.481054 0.398906
16 2 0.367861 0.48146 0.402073
2771 2 0.282189 0.354504 0.408965
8968 2 0.410101 0.570952 0.802059
26 2 0.342322 0.566878 0.396694
9293 2 0.233582 0.425758 0.685136
9617 2 0.0208508 0.519747 0.114295
9241 2 0.365387 0.416604 0.773439
9548 2 0.243817 0.465785 0.221695
436 2 0.481231 0.631665 0.400026
9038 2 0.485305 0.524538 0.197232
636 2 0.316745 0.430742 0.623981
17 2 0.396864 0.642888 0.387399
709 2 0.410571 0.591081 0.605338
1375 2 0.347787 0.508432 0.607881
1137 2 0.274385 0.646898 0.565274
27 2 0.477567 0.568584 0.5978
9575 2 0.00364626 0.582584 0.576659
1240 2 0.260708 0.430656 0.503458
1472 2 0.431948 0.38949 0.39424
565 2 0.302076 0.646325 0.399253
2410 2 0.291207 0.500204 0.411907
450 2 0.345678 0.409764 0.398701
9197 2 0.407324 0.516926 0.254587
9334 2 0.159111 0.474591 0.802335
9612 2 0.0985209 0.533561 0.915742
562 2 0.401381 0.445553 0.607358
8811 2 0.307693 0.60093 0.839294
9517 2 0.175094 0.505019 0.54952
9406 2 0.138976 0.388582 0.578192
9503 2 0.129348 0.438241 0.0615
763 2 0.462217 0.408307 0.605643
1955 2 0.364515 0.661307 0.604571
959 2 0.383723 0.366195 0.60966
1604 2 0.260481 0.581924 0.46192
134 1 0.307881 0.66447 0.499835
2245 2 0.44547 0.66394 0.608614
9096 2 0.180628 0.518571 0.175743
2 2 0.495114 0.480707 0.600779
9606 2 0.397012 0.404293 0.925123
9326 2 0.131082 0.600987 0.721729
9527 2 0.195332 0.373857 0.389595
9478 2 0.068518 0.462105 0.718778
9385 2 0.0237154 0.33647 0.337745
9399 2 0.0838282 0.556434 0.339114
9461 2 0.263752 0.458008 0.819271
9596 2 0.4536 0.372683 0.00113819
9624 2 0.278496 0.591159 0.228361
9 2 0.446299 0.334799 0.601982
140 1 0.307454 0.687153 0.499106
147 1 0.326892 0.698732 0.502977
154 1 0.347561 0.687772 0.496585
161 1 0.368695 0.698452 0.503971
168 1 0.388134 0.686776 0.495973
175 1 0.408034 0.697708 0.503604
182 1 0.428754 0.685879 0.506145
189 1 0.448935 0.697923 0.502166
193 1 0.469669 0.686463 0.496908
197 1 0.489696 0.696973 0.507493
9622 2 0.0326829 0.810823 0.658215
9535 2 0.25214 0.839192 0.808112
9297 2 0.198182 0.975453 0.790141
9586 2 0.129661 0.784007 0.371791
9512 2 0.259495 0.676504 0.0049249
5960 2 0.268765 0.727915 0.477678
9593 2 0.404112 0.682308 0.236678
9525 2 0.38386 0.793767 0.932815
9080 2 0.073536 0.895129 0.437094
9467 2 0.31647 0.672547 0.249397
9118 2 0.491004 0.825132 0.497077
4036 2 0.35447 0.726713 0.420618
345 2 0.370237 0.747512 0.645247
1115 2 0.495248 0.716438 0.40858
9587 2 0.394293 0.879133 0.584602
9487 2 0.116687 0.940381 0.899899
1230 2 0.428248 0.746877 0.511936
9552 2 0.250076 0.772753 0.0762399
9426 2 0.071089 0.74688 0.555086
9585 2 0.413614 0.807497 0.146116
9411 2 0.303722 0.89865 0.366086
9608 2 0.391318 0.715277 0.0461761
9311 2 0.313196 0.869204 0.698309
9544 2 0.10917 0.897468 0.0730926
9514 2 0.189924 0.830815 0.997456
9463 2 0.490038 0.841989 0.271989
9581 2 0.343047 0.882614 0.985204
9488 2 0.248345 0.80938 0.525901
9580 2 0.0466801 0.758578 0.119323
9610 2 0.19704 0.896776 0.141119
9509 2 0.38471 0.870111 0.256207
9510 2 0.167358 0.992513 0.0115095
9555 2 0.176596 0.69044 0.685386
9603 2 0.286052 0.910347 0.126491
9613 2 0.0543643 0.845844 0.0450082
9626 2 0.0287372 0.972891 0.798693
90 1 0.53183 0.302898 0.500543
85 1 0.511792 0.314253 0.503949
95 1 0.552419 0.31356 0.49974
96 1 0.57316 0.302386 0.490993
110 1 0.613432 0.302936 0.497801
105 1 0.5929 0.314187 0.489329
116 1 0.652756 0.30177 0.502931
111 1 0.633389 0.313807 0.507423
126 1 0.69275 0.302094 0.506384
123 1 0.673076 0.313244 0.49337
9553 2 0.511764 0.0673133 0.17108
9532 2 0.875503 0.224119 0.379183
9521 2 0.571479 0.103335 0.96281
9515 2 0.919992 0.0164796 0.0748942
1592 2 0.540042 0.309084 0.392952
9310 2 0.926794 0.114557 0.96067
9499 2 0.605436 0.0197004 0.819673
9558 2 0.944105 0.138087 0.317252
9623 2 0.869238 0.232154 0.187776
9522 2 0.938005 0.327022 0.0323868
794 2 0.591314 0.302511 0.593699
2419 2 0.665944 0.24811 0.496252
9073 2 0.718077 0.277517 0.779406
9469 2 0.710551 0.0479631 0.792346
9451 2 0.793363 0.0873011 0.372815
9236 2 0.515215 0.0767839 0.569311
9620 2 0.783485 0.147155 0.0975936
9556 2 0.670766 0.18032 0.898427
508 2 0.582447 0.252989 0.46744
9576 2 0.981284 0.0181389 0.53353
9313 2 0.730629 0.205393 0.424741
9565 2 0.858727 0.059791 0.202146
9589 2 0.54821 0.226803 0.987083
9592 2 0.94475 0.23451 0.23645
9591 2 0.634278 0.313711 0.847671
9584 2 0.532072 0.0108299 0.96976
9474 2 0.500916 0.107764 0.77022
9605 2 0.810706 0.17703 0.767518
9609 2 0.62978 0.274323 0.313604
9611 2 0.541406 0.14594 0.500601
9615 2 0.738951 0.113279 0.869377
9616 2 0.922768 0.061058 0.409824
9618 2 0.778879 0.163344 0.292165
9619 2 0.63508 0.0643637 0.607108
4 2 0.52199 0.333084 0.596916
84 1 0.511487 0.337148 0.497086
89 1 0.532567 0.348816 0.500307
94 1 0.552259 0.336995 0.497152
88 1 0.531351 0.3725 0.4993
83 1 0.510563 0.383348 0.506553
82 1 0.509649 0.40778 0.499247
87 1 0.530906 0.418428 0.499803
93 1 0.551549 0.384134 0.502599
92 1 0.551104 0.406592 0.494012
100 1 0.571842 0.348314 0.50546
101 1 0.592506 0.337051 0.503651
107 1 0.613202 0.347712 0.503501
115 1 0.633476 0.336174 0.49864
120 1 0.652936 0.347559 0.506018
125 1 0.673359 0.336991 0.494211
130 1 0.693518 0.348853 0.501478
99 1 0.57094 0.371891 0.49692
98 1 0.571511 0.41854 0.497736
106 1 0.612035 0.371123 0.496017
104 1 0.592018 0.383242 0.500474
103 1 0.591773 0.406807 0.494432
109 1 0.612041 0.418521 0.49787
119 1 0.652442 0.371178 0.50833
114 1 0.632234 0.382725 0.49787
112 1 0.632227 0.406057 0.498067
118 1 0.651124 0.418324 0.51155
129 1 0.692022 0.372463 0.503881
124 1 0.671914 0.383414 0.502101
122 1 0.671308 0.406483 0.515422
127 1 0.691431 0.418264 0.514749
86 1 0.531339 0.442035 0.493257
81 1 0.510706 0.453268 0.498477
205 1 0.509648 0.476761 0.492677
211 1 0.530072 0.488044 0.495125
91 1 0.551423 0.454059 0.498655
219 1 0.550504 0.476784 0.491229
212 1 0.530126 0.511619 0.492982
204 1 0.509744 0.523589 0.501247
206 1 0.509753 0.546663 0.499498
213 1 0.530219 0.557599 0.492234
218 1 0.550984 0.522546 0.499758
220 1 0.550725 0.546435 0.501809
97 1 0.570452 0.441529 0.490806
226 1 0.571102 0.48783 0.486524
108 1 0.6112 0.442649 0.503888
102 1 0.590421 0.452911 0.498492
233 1 0.591103 0.476213 0.491385
241 1 0.611635 0.488597 0.500558
117 1 0.651545 0.441763 0.501116
113 1 0.631325 0.454047 0.506985
249 1 0.63254 0.477416 0.500972
255 1 0.653124 0.488784 0.49998
128 1 0.692133 0.441908 0.50871
121 1 0.672017 0.453667 0.508021
261 1 0.672857 0.476226 0.497844
268 1 0.693014 0.48743 0.505373
227 1 0.571297 0.51097 0.49146
228 1 0.57164 0.558469 0.494992
242 1 0.611881 0.511775 0.493914
234 1 0.591677 0.522663 0.499774
235 1 0.591485 0.546412 0.502241
243 1 0.612225 0.558119 0.502137
256 1 0.653197 0.511732 0.491256
248 1 0.632152 0.523363 0.497464
250 1 0.633235 0.547258 0.493588
254 1 0.654157 0.557929 0.49753
269 1 0.692936 0.510449 0.505789
260 1 0.674092 0.522287 0.492406
262 1 0.673116 0.545282 0.503046
271 1 0.691797 0.558683 0.506405
214 1 0.531311 0.581088 0.49208
207 1 0.511317 0.592539 0.500365
208 1 0.510383 0.616031 0.502826
215 1 0.529929 0.628183 0.494906
221 1 0.551327 0.592641 0.500717
222 1 0.551207 0.616235 0.50206
216 1 0.529364 0.651824 0.500667
209 1 0.509537 0.662871 0.492844
223 1 0.550392 0.662031 0.492555
229 1 0.57152 0.581713 0.496648
230 1 0.572513 0.626931 0.495072
244 1 0.611771 0.58114 0.498171
236 1 0.59188 0.592978 0.505021
237 1 0.592061 0.616032 0.502602
239 1 0.612076 0.627478 0.499298
257 1 0.653063 0.581095 0.504295
247 1 0.63245 0.592091 0.499339
251 1 0.631713 0.615033 0.509465
258 1 0.651969 0.626828 0.503072
270 1 0.693196 0.582167 0.506306
263 1 0.672699 0.593958 0.502512
265 1 0.671967 0.616589 0.512395
272 1 0.691885 0.628001 0.504511
231 1 0.570958 0.650043 0.499581
240 1 0.612147 0.65059 0.503168
232 1 0.591305 0.662053 0.496209
259 1 0.652309 0.650264 0.510055
252 1 0.632394 0.662242 0.503071
273 1 0.691846 0.651586 0.499766
266 1 0.671438 0.663227 0.499765
274 2 0.563529 0.567517 0.601425
630 2 0.73975 0.339537 0.443868
8 2 0.697762 0.595453 0.40472
23 2 0.527873 0.46576 0.39354
277 2 0.604788 0.449096 0.399674
30 2 0.682105 0.420129 0.406812
25 2 0.626328 0.612682 0.404018
9097 2 0.91055 0.514478 0.866475
12 2 0.611922 0.38018 0.597995
9601 2 0.814698 0.356141 0.287854
383 2 0.637609 0.597217 0.610854
9106 2 0.629687 0.459752 0.952553
319 2 0.593697 0.368149 0.394762
9361 2 0.967101 0.512496 0.653391
133 2 0.547365 0.418004 0.601532
553 2 0.651497 0.522726 0.594192
3476 2 0.6774 0.491417 0.381653
9625 2 0.784694 0.634857 0.100985
452 2 0.60426 0.53707 0.398997
293 2 0.658545 0.449341 0.608444
2479 2 0.718191 0.597533 0.602044
9379 2 0.883603 0.41379 0.0889942
739 2 0.739637 0.453424 0.480435
377 2 0.740186 0.533532 0.474571
9446 2 0.945438 0.632624 0.937446
399 2 0.581919 0.492162 0.595974
9577 2 0.591871 0.512942 0.10456
9134 2 0.723154 0.568702 0.168983
9557 2 0.500922 0.524143 0.808392
9547 2 0.942107 0.437792 0.309838
3 2 0.523774 0.634854 0.599466
9391 2 0.694945 0.460678 0.848126
21 2 0.513504 0.390265 0.39877
9138 2 0.726588 0.507671 0.642944
6282 2 0.720851 0.386865 0.583568
29 2 0.547587 0.603263 0.392797
22 2 0.512138 0.540148 0.386426
9459 2 0.881037 0.572663 0.558637
9595 2 0.993445 0.415025 0.0125416
843 2 0.5989 0.666003 0.605234
9573 2 0.665961 0.590378 0.84598
9570 2 0.502077 0.426401 0.170638
9495 2 0.872731 0.414125 0.473702
9502 2 0.79197 0.446376 0.838586
535 2 0.654951 0.334727 0.39235
9276 2 0.538702 0.337832 0.191204
9524 2 0.679682 0.436683 0.185326
9554 2 0.512339 0.656462 0.0131391
9539 2 0.718617 0.375809 0.0506592
9541 2 0.819354 0.529353 0.00378315
9543 2 0.71799 0.606906 0.955933
9546 2 0.824137 0.654879 0.740679
9549 2 0.667498 0.634514 0.142806
379 2 0.667089 0.333479 0.604763
210 1 0.509868 0.684729 0.508189
217 1 0.530647 0.696117 0.507038
224 1 0.551021 0.68582 0.496956
225 1 0.571581 0.696225 0.508544
238 1 0.591527 0.685791 0.500206
245 1 0.611885 0.696327 0.511695
246 1 0.631769 0.684574 0.513795
253 1 0.651366 0.697469 0.510966
264 1 0.672076 0.685574 0.510243
267 1 0.690585 0.695953 0.490932
9416 2 0.94733 0.858926 0.611369
28 2 0.591475 0.747152 0.50359
9481 2 0.865213 0.708815 0.650197
9578 2 0.78256 0.916649 0.00673385
9454 2 0.649672 0.950383 0.258792
9479 2 0.80389 0.722153 0.472818
9317 2 0.77942 0.986513 0.167199
9482 2 0.947632 0.969448 0.26713
9087 2 0.951082 0.918894 0.443849
9271 2 0.729267 0.895512 0.312879
301 2 0.51287 0.715468 0.606793
326 2 0.673468 0.745408 0.515354
9240 2 0.979627 0.721179 0.889781
9537 2 0.91652 0.870762 0.225711
808 2 0.575054 0.678726 0.397905
9600 2 0.745326 0.700621 0.175219
9599 2 0.537965 0.78408 0.0558254
9572 2 0.789351 0.918469 0.472511
2134 2 0.648788 0.692917 0.404451
9542 2 0.57908 0.719969 0.89411
9447 2 0.512533 0.700336 0.188947
903 2 0.738849 0.675838 0.504428
9551 2 0.849118 0.97971 0.346288
9332 2 0.717004 0.772483 0.822283
6852 2 0.674586 0.675334 0.614794
9597 2 0.536678 0.909174 0.615073
9614 2 0.872993 0.83809 0.0840935
9627 2 0.562905 0.889071 0.221522
