ITEM: TIMESTEP
150000
ITEM: NUMBER OF ATOMS
1227
ITEM: BOX BOUNDS pp pp pp
-3.0000000000000000e+01 3.0000000000000000e+01
-3.0000000000000000e+01 3.0000000000000000e+01
-1.8000000000000000e+01 1.8000000000000000e+01
ITEM: ATOMS id type xs ys zs
3 1 0.32732 0.292038 0.126014
2 1 0.307429 0.303966 0.125056
23 1 0.306621 0.327344 0.126116
5 1 0.367986 0.291653 0.129048
4 1 0.348091 0.302348 0.117395
32 1 0.34762 0.325972 0.117728
7 1 0.409901 0.290031 0.128462
6 1 0.389811 0.302206 0.130675
45 1 0.388838 0.32588 0.126864
8 1 0.430058 0.301918 0.123156
54 1 0.428652 0.324738 0.128778
9 1 0.450658 0.289531 0.124612
11 1 0.490663 0.291342 0.122644
10 1 0.470476 0.301343 0.12765
59 1 0.469339 0.324405 0.1224
257 1 0.329431 0.313842 0.383182
273 1 0.309848 0.325513 0.387572
258 1 0.369267 0.313968 0.375694
282 1 0.348866 0.325086 0.374351
259 1 0.409561 0.315558 0.376416
291 1 0.389346 0.325605 0.371354
300 1 0.429301 0.327016 0.383123
260 1 0.449537 0.315372 0.3817
261 1 0.490161 0.314536 0.377164
308 1 0.47041 0.32592 0.381683
9189 2 0.36458 0.156146 0.0726959
8559 2 0.407484 0.295497 0.463331
9099 2 0.401282 0.260813 0.0255037
8820 2 0.076486 0.00701892 0.180452
9225 2 0.169504 0.184772 0.943382
9227 2 0.410908 0.216662 0.271739
8837 2 0.305872 0.263555 0.38765
8989 2 0.00657953 0.207039 0.343968
513 1 0.40999 0.290994 0.625432
8973 2 0.252673 0.312276 0.100806
9224 2 0.287204 0.108025 0.0446782
9006 2 0.355792 0.242424 0.141116
9237 2 0.00388661 0.325677 0.0612225
9091 2 0.48317 0.270453 0.429969
9061 2 0.118013 0.3121 0.471239
9095 2 0.248205 0.300722 0.262755
9258 2 0.380118 0.106061 0.774976
9238 2 0.106031 0.0921012 0.20362
9153 2 0.2322 0.0770145 0.940902
9234 2 0.165793 0.225116 0.248543
9264 2 0.211772 0.0470883 0.199741
9125 2 0.129829 0.0502349 0.49941
756 1 0.408982 0.313179 0.872364
9250 2 0.468383 0.139465 0.952519
754 1 0.367932 0.314372 0.874878
9293 2 0.285965 0.136966 0.768743
9010 2 0.099101 0.162505 0.893866
9173 2 0.230407 0.181639 0.163045
9230 2 0.122108 0.275603 0.922584
8729 2 0.415737 0.247286 0.584054
9259 2 0.356198 0.247829 0.738571
9022 2 0.0486033 0.253327 0.838867
777 1 0.347773 0.325744 0.875242
9232 2 0.203757 0.0563477 0.429996
538 1 0.34813 0.324708 0.622439
4979 2 0.324897 0.324806 0.53312
511 1 0.369788 0.291601 0.627661
9210 2 0.144065 0.217544 0.766825
768 1 0.307442 0.327125 0.866338
757 1 0.451185 0.313159 0.875948
560 1 0.429249 0.326482 0.625277
795 1 0.429907 0.324268 0.870427
514 1 0.429901 0.302843 0.63283
516 1 0.469778 0.301563 0.620384
551 1 0.388616 0.326129 0.621744
509 1 0.328833 0.28962 0.631593
510 1 0.349026 0.301588 0.632603
517 1 0.489395 0.28974 0.622261
753 1 0.327196 0.314966 0.870534
803 1 0.470559 0.325875 0.880175
515 1 0.450059 0.291557 0.629732
529 1 0.306667 0.322953 0.62593
565 1 0.468997 0.325139 0.625455
786 1 0.388347 0.324541 0.870682
508 1 0.307933 0.299579 0.627036
758 1 0.49093 0.315111 0.875118
512 1 0.389288 0.302668 0.620741
9223 2 0.0358174 0.127183 0.0614275
37 1 0.367365 0.337226 0.129991
49 1 0.408947 0.337331 0.124661
29 1 0.327366 0.36168 0.124867
24 1 0.307195 0.37354 0.116862
25 1 0.306797 0.396467 0.115976
30 1 0.327545 0.40741 0.117821
38 1 0.367971 0.360862 0.128713
33 1 0.348034 0.37186 0.119189
34 1 0.347196 0.395007 0.125646
39 1 0.367798 0.406772 0.126153
48 1 0.408514 0.360438 0.13053
43 1 0.388643 0.371957 0.127125
44 1 0.387893 0.395001 0.1304
46 1 0.408551 0.406678 0.128361
50 1 0.428846 0.371623 0.123896
52 1 0.428778 0.395416 0.122491
55 1 0.448847 0.335878 0.123009
64 1 0.488409 0.336746 0.12964
58 1 0.448975 0.359445 0.12818
56 1 0.448368 0.407031 0.127691
65 1 0.489049 0.359961 0.121629
60 1 0.468703 0.37179 0.120856
61 1 0.468081 0.395359 0.124556
66 1 0.488931 0.407094 0.128793
31 1 0.326674 0.430332 0.126855
26 1 0.307513 0.442526 0.11912
27 1 0.307204 0.466314 0.115606
121 1 0.328065 0.477435 0.117967
40 1 0.367082 0.430097 0.129473
35 1 0.347111 0.441573 0.123482
36 1 0.347503 0.464952 0.126616
131 1 0.367008 0.477322 0.132637
47 1 0.408532 0.429753 0.122208
41 1 0.387637 0.441271 0.123724
42 1 0.387686 0.465113 0.129861
139 1 0.407956 0.476874 0.123255
51 1 0.428345 0.441764 0.127051
53 1 0.428117 0.46492 0.123069
122 1 0.326599 0.501226 0.124557
118 1 0.306514 0.513091 0.118905
117 1 0.307542 0.536638 0.124202
123 1 0.328436 0.546933 0.120116
132 1 0.367297 0.500195 0.126311
127 1 0.347295 0.51263 0.120781
126 1 0.348187 0.535765 0.126759
130 1 0.368462 0.54646 0.13078
140 1 0.408019 0.499755 0.129577
134 1 0.387667 0.511745 0.130368
133 1 0.388596 0.534825 0.126223
138 1 0.40825 0.546124 0.13313
145 1 0.427903 0.511779 0.126424
143 1 0.427506 0.534529 0.132144
120 1 0.327402 0.569373 0.128255
129 1 0.367855 0.569646 0.124333
137 1 0.409073 0.569798 0.130782
57 1 0.449038 0.430602 0.124171
148 1 0.447771 0.476503 0.129032
67 1 0.489437 0.430509 0.121278
62 1 0.469159 0.442488 0.123809
63 1 0.467968 0.465451 0.121483
158 1 0.488503 0.475971 0.124688
149 1 0.44844 0.499757 0.125812
147 1 0.447895 0.545646 0.126798
159 1 0.488593 0.499702 0.121162
154 1 0.468985 0.510645 0.130764
153 1 0.468399 0.534185 0.125344
157 1 0.488642 0.546397 0.12845
146 1 0.449496 0.56878 0.135754
156 1 0.48946 0.569331 0.124657
116 1 0.307257 0.581395 0.123714
115 1 0.308251 0.604386 0.12475
119 1 0.328065 0.616012 0.118643
125 1 0.347513 0.581156 0.127107
124 1 0.348644 0.603851 0.117599
128 1 0.368879 0.616037 0.127131
136 1 0.387883 0.58152 0.130552
135 1 0.388208 0.604884 0.126412
141 1 0.407857 0.616911 0.13556
144 1 0.428898 0.581114 0.139341
142 1 0.428333 0.604368 0.133214
210 1 0.328263 0.639202 0.129174
208 1 0.308357 0.650722 0.125172
214 1 0.368524 0.638962 0.120331
212 1 0.348182 0.650958 0.121924
218 1 0.408854 0.639715 0.124146
216 1 0.388281 0.65156 0.12513
220 1 0.428641 0.651111 0.13002
150 1 0.449099 0.615379 0.136557
152 1 0.469248 0.580241 0.12715
151 1 0.469291 0.603623 0.132244
155 1 0.489091 0.615267 0.122687
222 1 0.448746 0.638147 0.127213
227 1 0.489943 0.638546 0.129188
224 1 0.469577 0.649498 0.131499
269 1 0.307995 0.348084 0.378414
274 1 0.327838 0.360342 0.373804
278 1 0.348355 0.34835 0.377234
283 1 0.3687 0.36027 0.374769
290 1 0.388973 0.348699 0.379039
295 1 0.409328 0.361085 0.375606
299 1 0.430366 0.349742 0.375213
275 1 0.327903 0.383433 0.378511
270 1 0.307684 0.395395 0.379175
271 1 0.308895 0.418376 0.375926
284 1 0.368574 0.383242 0.376915
279 1 0.348351 0.394404 0.372724
280 1 0.348076 0.418153 0.377359
294 1 0.409197 0.384652 0.378817
288 1 0.388704 0.395894 0.374113
289 1 0.388822 0.419295 0.377671
296 1 0.430016 0.396143 0.374229
298 1 0.428685 0.419199 0.382348
301 1 0.450615 0.361836 0.379089
305 1 0.470236 0.348837 0.374805
310 1 0.49023 0.359614 0.377603
304 1 0.450736 0.384714 0.372703
311 1 0.490355 0.383191 0.373017
306 1 0.470365 0.395472 0.379779
307 1 0.469867 0.418523 0.373419
276 1 0.328683 0.429596 0.369732
285 1 0.367968 0.430494 0.371037
292 1 0.409039 0.430924 0.372225
277 1 0.328741 0.452174 0.375101
272 1 0.309271 0.464367 0.376639
363 1 0.308427 0.487939 0.378839
366 1 0.328817 0.499645 0.379278
286 1 0.367938 0.453621 0.375873
281 1 0.347692 0.464846 0.369726
372 1 0.348137 0.487938 0.370131
376 1 0.36862 0.499784 0.370693
293 1 0.408802 0.45382 0.375363
287 1 0.388346 0.464644 0.36911
379 1 0.389 0.488493 0.374181
385 1 0.409794 0.50057 0.37062
297 1 0.429252 0.465268 0.376076
390 1 0.430029 0.488456 0.370625
365 1 0.328851 0.522972 0.381252
362 1 0.30834 0.53495 0.379668
361 1 0.309791 0.558393 0.378979
367 1 0.328357 0.570472 0.369903
375 1 0.368332 0.523062 0.37738
371 1 0.348918 0.534597 0.372224
370 1 0.348738 0.558872 0.374729
374 1 0.368551 0.570789 0.37542
384 1 0.409525 0.524033 0.37647
378 1 0.388466 0.53558 0.373624
377 1 0.388828 0.558815 0.378648
383 1 0.408883 0.570104 0.375237
389 1 0.429895 0.535562 0.367789
387 1 0.429729 0.557813 0.377527
302 1 0.450038 0.430884 0.38023
312 1 0.490564 0.430248 0.375832
303 1 0.449742 0.453883 0.375492
394 1 0.44971 0.500374 0.373666
313 1 0.490314 0.453395 0.371289
309 1 0.470251 0.465377 0.378795
399 1 0.469585 0.488766 0.371275
403 1 0.489766 0.500027 0.377012
393 1 0.450137 0.523703 0.367467
392 1 0.448927 0.569897 0.367483
402 1 0.490143 0.523587 0.371929
398 1 0.469911 0.535235 0.373115
397 1 0.469936 0.558472 0.366176
401 1 0.490276 0.570328 0.371795
364 1 0.327897 0.594139 0.375401
360 1 0.30794 0.605784 0.371304
359 1 0.308367 0.62951 0.370093
455 1 0.32832 0.641392 0.375946
373 1 0.367168 0.594455 0.376527
369 1 0.347484 0.606161 0.371016
368 1 0.347751 0.629098 0.378551
460 1 0.368469 0.640356 0.375479
382 1 0.4089 0.593484 0.378683
381 1 0.388294 0.605244 0.373794
380 1 0.388792 0.629038 0.378767
464 1 0.408755 0.639853 0.371335
388 1 0.428792 0.605164 0.372921
386 1 0.428916 0.62842 0.375708
454 1 0.329134 0.66514 0.370712
459 1 0.369727 0.663554 0.381154
465 1 0.409244 0.663522 0.378048
391 1 0.449473 0.593583 0.374979
470 1 0.448835 0.640215 0.372823
400 1 0.490152 0.594203 0.368396
396 1 0.470044 0.605588 0.371987
395 1 0.469622 0.628488 0.377606
476 1 0.489226 0.640062 0.368786
469 1 0.448926 0.66363 0.377689
475 1 0.489139 0.663291 0.376486
28 1 0.327286 0.338704 0.117947
1328 2 0.371617 0.410556 0.211912
1528 2 0.408609 0.522592 0.0369937
1492 2 0.361372 0.585036 0.469216
1315 2 0.389356 0.600652 0.284698
4268 2 0.482997 0.603354 0.455539
1288 2 0.387459 0.382693 0.466666
5411 2 0.342097 0.620748 0.027266
9272 2 0.0907884 0.643027 0.978718
3647 2 0.497235 0.456407 0.0359966
7012 2 0.306222 0.408758 0.471799
494 2 0.432553 0.620091 0.0319133
710 1 0.307184 0.653484 0.62553
7585 2 0.250791 0.582593 0.38
7386 2 0.320449 0.349255 0.0140587
7802 2 0.359315 0.518419 0.291555
8008 2 0.454064 0.533069 0.20839
8188 2 0.286344 0.52028 0.495433
113 2 0.468881 0.411308 0.209771
8512 2 0.258739 0.506201 0.156567
1183 2 0.377014 0.479313 0.460615
8552 2 0.240732 0.607938 0.114231
9131 2 0.25567 0.391825 0.142896
8680 2 0.289998 0.429627 0.279018
1445 2 0.402539 0.36701 0.0398574
9166 2 0.0844551 0.507115 0.237178
9177 2 0.253204 0.457962 0.818996
1744 2 0.36116 0.341353 0.273912
9058 2 0.128872 0.410802 0.0849378
7058 2 0.447606 0.662836 0.251865
714 1 0.347003 0.651865 0.625569
9162 2 0.0280818 0.400104 0.260971
9068 2 0.134688 0.417953 0.647415
716 1 0.367148 0.640267 0.627732
1319 2 0.374555 0.648106 0.717603
654 1 0.448493 0.616545 0.62297
659 1 0.489531 0.61576 0.621876
8968 2 0.255963 0.337867 0.641641
9197 2 0.0670293 0.465347 0.717774
1796 2 0.489543 0.55806 0.962248
8687 2 0.29136 0.431479 0.989553
655 1 0.46871 0.605082 0.628299
8961 2 0.257591 0.619619 0.90108
9291 2 0.0208566 0.519758 0.114457
724 1 0.449123 0.639796 0.621073
656 1 0.469802 0.581331 0.624547
9233 2 0.124107 0.662555 0.112866
7071 2 0.371087 0.348003 0.697672
773 1 0.348026 0.349281 0.873447
720 1 0.407685 0.639571 0.624775
778 1 0.36816 0.359865 0.880743
7387 2 0.272912 0.384423 0.797063
769 1 0.32782 0.36056 0.87663
726 1 0.469488 0.650794 0.625796
790 1 0.407846 0.360029 0.870916
794 1 0.42803 0.347943 0.876565
770 1 0.328378 0.38302 0.8689
722 1 0.428237 0.651604 0.622741
8178 2 0.307873 0.57172 0.767669
779 1 0.368274 0.383328 0.878392
729 1 0.489666 0.639334 0.619554
764 1 0.307173 0.349889 0.868297
765 1 0.308821 0.395572 0.868308
785 1 0.388167 0.347634 0.877376
775 1 0.347397 0.418662 0.876046
789 1 0.408429 0.383306 0.880899
774 1 0.347367 0.394879 0.878916
783 1 0.388315 0.395181 0.885535
796 1 0.449062 0.359942 0.869673
793 1 0.42888 0.418189 0.8832
718 1 0.387778 0.650928 0.618804
791 1 0.42905 0.395466 0.875697
766 1 0.308095 0.418339 0.874685
806 1 0.490078 0.38331 0.867832
780 1 0.367645 0.430595 0.881958
771 1 0.327719 0.430473 0.879576
799 1 0.449499 0.383485 0.875022
805 1 0.488847 0.361033 0.876113
772 1 0.326899 0.453084 0.875202
4924 2 0.479769 0.364996 0.526807
776 1 0.347014 0.464967 0.881305
860 1 0.307378 0.489342 0.880135
801 1 0.469803 0.395034 0.868372
3603 2 0.463638 0.461023 0.726316
802 1 0.469631 0.418401 0.876787
5984 2 0.393898 0.548735 0.723517
784 1 0.387994 0.418449 0.879705
781 1 0.367193 0.453474 0.877401
5865 2 0.261329 0.621888 0.636418
863 1 0.327124 0.501882 0.879719
873 1 0.366971 0.500426 0.872902
788 1 0.408752 0.45327 0.878712
5524 2 0.38557 0.449103 0.971841
4422 2 0.487573 0.397674 0.955547
767 1 0.30751 0.466158 0.880427
882 1 0.407498 0.500674 0.879346
862 1 0.327306 0.524585 0.871056
782 1 0.387952 0.465279 0.882288
876 1 0.386728 0.488866 0.88136
858 1 0.307817 0.560858 0.877958
800 1 0.469729 0.348361 0.87125
787 1 0.408083 0.430018 0.885529
5288 2 0.253158 0.43832 0.616025
792 1 0.428375 0.465145 0.884197
887 1 0.427468 0.48823 0.8769
867 1 0.348604 0.558908 0.873292
875 1 0.387204 0.535531 0.874919
868 1 0.347756 0.535629 0.876633
881 1 0.40796 0.523306 0.871694
864 1 0.32811 0.571372 0.879043
871 1 0.36872 0.570642 0.877968
6983 2 0.336325 0.545928 0.961184
872 1 0.367102 0.524053 0.872425
886 1 0.428812 0.535289 0.874061
797 1 0.449067 0.430143 0.879115
874 1 0.387622 0.558781 0.872891
891 1 0.448601 0.500531 0.88092
896 1 0.468865 0.487675 0.879403
807 1 0.489389 0.43018 0.871549
804 1 0.469288 0.464426 0.873939
884 1 0.428919 0.558059 0.87062
890 1 0.449186 0.523825 0.873939
3159 2 0.431906 0.390777 0.78938
898 1 0.489471 0.569516 0.876506
899 1 0.490736 0.522985 0.875755
895 1 0.470048 0.534262 0.878098
900 1 0.489068 0.499281 0.874973
856 1 0.310244 0.629279 0.876212
857 1 0.308077 0.606708 0.879103
859 1 0.307276 0.53762 0.877825
866 1 0.34846 0.605565 0.877323
870 1 0.369481 0.594128 0.876203
798 1 0.448591 0.453574 0.883703
861 1 0.327277 0.594342 0.874703
952 1 0.330131 0.640806 0.869698
894 1 0.469521 0.557228 0.869746
880 1 0.408517 0.569697 0.87703
889 1 0.449137 0.568902 0.876014
1409 2 0.455834 0.604449 0.732233
957 1 0.370129 0.640453 0.880618
878 1 0.389733 0.604679 0.881889
865 1 0.349789 0.628818 0.873188
879 1 0.409171 0.593063 0.873359
883 1 0.430207 0.627174 0.873326
885 1 0.429581 0.603972 0.877488
961 1 0.410448 0.639721 0.87272
951 1 0.330519 0.663868 0.875008
956 1 0.370881 0.663666 0.872201
808 1 0.489799 0.452949 0.875038
869 1 0.346774 0.488742 0.87442
888 1 0.449681 0.592519 0.871385
979 2 0.31601 0.461943 0.722758
967 1 0.449909 0.639465 0.871579
897 1 0.490299 0.593367 0.872955
962 1 0.41144 0.663666 0.878589
893 1 0.469896 0.604455 0.875984
892 1 0.470227 0.62828 0.877561
973 1 0.490396 0.640203 0.87554
966 1 0.450146 0.662658 0.876643
972 1 0.490565 0.663506 0.88078
877 1 0.39043 0.628241 0.881619
534 1 0.326991 0.335508 0.627294
543 1 0.368239 0.336398 0.615982
555 1 0.409214 0.337592 0.61507
535 1 0.327253 0.358447 0.619142
530 1 0.308248 0.371172 0.621856
531 1 0.308021 0.395213 0.622062
536 1 0.328129 0.406814 0.627059
544 1 0.367477 0.359655 0.615014
539 1 0.347059 0.370462 0.622187
540 1 0.34741 0.394529 0.619588
545 1 0.367811 0.406435 0.625893
554 1 0.40873 0.360617 0.615349
549 1 0.388412 0.371843 0.621315
550 1 0.387911 0.395801 0.621075
552 1 0.408287 0.406887 0.629022
556 1 0.428342 0.371563 0.622244
558 1 0.428955 0.395241 0.622212
561 1 0.449414 0.337824 0.620754
570 1 0.489352 0.33627 0.617381
564 1 0.449271 0.360791 0.618832
562 1 0.449083 0.406313 0.628157
571 1 0.489788 0.359805 0.617568
566 1 0.469783 0.371457 0.625391
567 1 0.470005 0.394875 0.622707
572 1 0.489716 0.406856 0.626279
537 1 0.327541 0.43043 0.625666
532 1 0.306408 0.441638 0.630533
533 1 0.305905 0.465228 0.633256
625 1 0.326357 0.476344 0.635272
546 1 0.368699 0.430192 0.624736
541 1 0.348548 0.441553 0.632969
542 1 0.347131 0.465743 0.632633
635 1 0.367338 0.476754 0.633336
553 1 0.408389 0.430423 0.627834
547 1 0.388087 0.441981 0.632307
548 1 0.38728 0.464879 0.628697
643 1 0.407214 0.477371 0.632079
557 1 0.42883 0.441822 0.632982
559 1 0.427969 0.465938 0.632604
626 1 0.326747 0.498795 0.6257
622 1 0.307185 0.51169 0.624811
621 1 0.309089 0.534763 0.622445
627 1 0.327997 0.5466 0.617855
636 1 0.367417 0.500017 0.626993
631 1 0.347122 0.511607 0.629657
630 1 0.347829 0.535581 0.621029
634 1 0.367827 0.547469 0.625439
644 1 0.407522 0.500855 0.62785
638 1 0.387394 0.512227 0.631991
637 1 0.387776 0.535095 0.623322
642 1 0.408375 0.547049 0.623332
649 1 0.428566 0.511981 0.62482
647 1 0.428493 0.535412 0.627576
624 1 0.327048 0.569246 0.622305
633 1 0.367574 0.570623 0.621402
641 1 0.408169 0.569819 0.628809
563 1 0.448704 0.429999 0.624661
652 1 0.448522 0.476738 0.624757
573 1 0.488737 0.430162 0.628778
568 1 0.468568 0.441764 0.627889
569 1 0.468757 0.464924 0.624625
662 1 0.490395 0.475935 0.618028
653 1 0.448539 0.499816 0.628633
651 1 0.449549 0.546954 0.624147
663 1 0.490791 0.499895 0.619184
658 1 0.469256 0.511633 0.622619
657 1 0.469766 0.535279 0.628407
661 1 0.4902 0.546904 0.622731
650 1 0.449139 0.569982 0.629581
660 1 0.490431 0.569727 0.630882
620 1 0.306899 0.581086 0.621153
619 1 0.306933 0.604896 0.62294
623 1 0.326868 0.617307 0.621443
629 1 0.347292 0.581748 0.618442
628 1 0.347397 0.605011 0.6258
632 1 0.367631 0.616538 0.619593
640 1 0.387848 0.581231 0.62657
639 1 0.387644 0.605046 0.625492
645 1 0.408206 0.616412 0.621393
648 1 0.428548 0.581323 0.626335
646 1 0.428337 0.604966 0.629002
712 1 0.326557 0.641009 0.628945
9265 2 0.130452 0.597753 0.691672
9266 2 0.0995547 0.415128 0.832956
9284 2 0.102771 0.546182 0.813869
9294 2 0.172623 0.492992 0.832362
9296 2 0.278584 0.591231 0.228376
209 1 0.308718 0.674369 0.125728
211 1 0.328985 0.685904 0.124296
213 1 0.348804 0.673195 0.129884
215 1 0.368859 0.685588 0.119824
217 1 0.389029 0.674638 0.114029
219 1 0.409681 0.685811 0.118655
221 1 0.429764 0.673831 0.121638
223 1 0.450083 0.684891 0.125865
225 1 0.469663 0.673163 0.133344
226 1 0.489817 0.684902 0.128228
452 1 0.309442 0.676953 0.372005
453 1 0.30942 0.701041 0.369448
456 1 0.33022 0.712348 0.374969
457 1 0.348888 0.675732 0.382075
458 1 0.349786 0.699671 0.381388
461 1 0.370519 0.710447 0.374778
462 1 0.389852 0.675743 0.379715
463 1 0.389467 0.698293 0.371718
466 1 0.409251 0.710184 0.376754
467 1 0.429123 0.675647 0.374452
468 1 0.429143 0.698422 0.381794
471 1 0.448439 0.710291 0.374963
472 1 0.469526 0.675671 0.37301
473 1 0.469458 0.699096 0.377986
474 1 0.49014 0.711109 0.372392
6034 2 0.363488 0.769051 0.370646
5398 2 0.472461 0.729216 0.100409
9274 2 0.394225 0.879232 0.584636
9161 2 0.432731 0.969801 0.270199
9295 2 0.0326618 0.810842 0.658089
8553 2 0.380681 0.72467 0.161388
9229 2 0.252986 0.838655 0.805794
9212 2 0.385048 0.869569 0.254809
8825 2 0.253453 0.782066 0.188091
9273 2 0.129677 0.783963 0.372177
9106 2 0.457512 0.677404 0.475719
9240 2 0.176034 0.690223 0.685269
9007 2 0.171229 0.878951 0.233314
9279 2 0.0111228 0.939074 0.529671
9089 2 0.197534 0.990251 0.322591
9070 2 0.213074 0.723476 0.353907
9108 2 0.288502 0.981828 0.074049
9083 2 0.117314 0.893432 0.112763
9214 2 0.259801 0.677466 0.00668904
971 1 0.489929 0.708933 0.874581
9085 2 0.381842 0.699336 0.530422
9139 2 0.492918 0.781167 0.419802
1938 2 0.430849 0.729742 0.967355
727 1 0.46979 0.674021 0.619076
8891 2 0.258704 0.697187 0.595527
728 1 0.489844 0.686111 0.622303
9165 2 0.442618 0.989201 0.907831
9270 2 0.41368 0.807787 0.147184
9215 2 0.190147 0.830696 0.999111
969 1 0.470999 0.675432 0.878847
713 1 0.328113 0.687834 0.623516
954 1 0.35016 0.675218 0.870241
721 1 0.40793 0.686501 0.625604
725 1 0.449535 0.685379 0.623734
723 1 0.4285 0.674715 0.62704
950 1 0.309113 0.696363 0.876188
8690 2 0.0453259 0.6805 0.78055
8659 2 0.48586 0.837607 0.615268
955 1 0.349197 0.696778 0.881916
9245 2 0.0120262 0.891741 0.0872922
965 1 0.429948 0.698317 0.881323
958 1 0.369326 0.708599 0.875919
960 1 0.389348 0.697635 0.865744
968 1 0.450835 0.710357 0.881154
9186 2 0.0499505 0.81815 0.979112
9190 2 0.247777 0.878668 0.468358
949 1 0.309075 0.673576 0.875999
970 1 0.471071 0.698411 0.885278
715 1 0.348051 0.674873 0.629626
959 1 0.39097 0.674904 0.875036
711 1 0.307394 0.677109 0.622396
8171 2 0.467185 0.726453 0.668012
717 1 0.368517 0.685888 0.624027
719 1 0.388266 0.674164 0.617712
964 1 0.430901 0.675249 0.87331
953 1 0.329103 0.709109 0.875488
963 1 0.409145 0.70974 0.874058
9244 2 0.408135 0.773963 0.75937
9211 2 0.040113 0.934011 0.264749
9254 2 0.153805 0.79145 0.540756
9262 2 0.343011 0.882616 0.985083
9278 2 0.311557 0.960817 0.376784
9297 2 0.0236391 0.844904 0.512088
9298 2 0.0287869 0.972932 0.799292
13 1 0.53006 0.291314 0.125593
12 1 0.510645 0.303462 0.121521
72 1 0.509972 0.326262 0.130449
14 1 0.550272 0.302927 0.131311
81 1 0.550542 0.325926 0.122848
15 1 0.569596 0.291305 0.126705
17 1 0.609444 0.290776 0.118112
16 1 0.589901 0.302451 0.129256
86 1 0.590547 0.325534 0.126236
19 1 0.650213 0.289962 0.119382
18 1 0.630119 0.301759 0.115462
99 1 0.631456 0.324666 0.12363
21 1 0.690869 0.28847 0.12923
20 1 0.670835 0.299887 0.118894
108 1 0.671696 0.323466 0.127915
262 1 0.530762 0.313615 0.370705
318 1 0.510629 0.325108 0.370305
327 1 0.550987 0.323967 0.378535
263 1 0.571754 0.313313 0.373805
265 1 0.612089 0.312813 0.37533
336 1 0.591803 0.325055 0.37745
267 1 0.65202 0.313042 0.379789
341 1 0.63148 0.32537 0.381033
268 1 0.693325 0.314437 0.376537
352 1 0.672628 0.325386 0.38318
9082 2 0.519291 0.155882 0.138721
9216 2 0.91954 0.016197 0.0725431
6184 2 0.668548 0.289606 0.212381
9256 2 0.941525 0.226924 0.387382
9287 2 0.835314 0.137615 0.859402
9047 2 0.589776 0.240559 0.149223
7140 2 0.681661 0.310242 0.0326792
9242 2 0.947897 0.154335 0.718829
8856 2 0.790485 0.175685 0.242199
9087 2 0.905379 0.32151 0.805214
8104 2 0.586041 0.313543 0.0442504
8960 2 0.535611 0.169595 0.422646
9248 2 0.629644 0.0769667 0.0595714
8962 2 0.715101 0.217544 0.172003
9221 2 0.571517 0.103126 0.962981
9292 2 0.783478 0.147104 0.0978375
9067 2 0.884007 0.137897 0.526065
8257 2 0.504422 0.269946 0.907626
9243 2 0.944012 0.138108 0.315817
9247 2 0.858787 0.0597725 0.201637
9140 2 0.553523 0.0780426 0.229439
9077 2 0.657841 0.0951081 0.604851
9124 2 0.981838 0.23048 0.544871
8991 2 0.706112 0.256529 0.714522
578 1 0.509261 0.323592 0.621214
9289 2 0.738958 0.113269 0.869487
9160 2 0.806472 0.195474 0.763808
8806 2 0.553853 0.195361 0.955695
9182 2 0.836932 0.2304 0.909251
9168 2 0.964226 0.0310364 0.818889
8743 2 0.69546 0.318714 0.510042
9118 2 0.74162 0.317779 0.638868
9220 2 0.77859 0.0324095 0.93787
760 1 0.572128 0.312875 0.873905
605 1 0.63192 0.324265 0.624466
9155 2 0.751926 0.287755 0.829851
762 1 0.651082 0.31204 0.874145
587 1 0.550614 0.324121 0.620849
527 1 0.690307 0.288757 0.622288
6648 2 0.608441 0.324165 0.724956
8411 2 0.650543 0.25543 0.880749
592 1 0.590742 0.325007 0.62613
526 1 0.671771 0.301023 0.61482
519 1 0.530711 0.289886 0.623075
847 1 0.671969 0.324293 0.875321
763 1 0.692397 0.313355 0.884515
524 1 0.631581 0.301053 0.634736
759 1 0.530435 0.315183 0.873797
831 1 0.592022 0.324861 0.882435
520 1 0.551121 0.301186 0.617546
822 1 0.551643 0.325704 0.871512
614 1 0.672703 0.323271 0.624771
761 1 0.612009 0.313938 0.877499
7872 2 0.600614 0.246671 0.578136
522 1 0.591602 0.301734 0.623015
836 1 0.631749 0.324444 0.870073
523 1 0.610617 0.289705 0.632518
525 1 0.651427 0.289999 0.623283
813 1 0.510445 0.326475 0.880063
518 1 0.509851 0.300196 0.61576
521 1 0.571628 0.290647 0.621669
9255 2 0.967556 0.0514677 0.323103
9267 2 0.86468 0.221266 0.214437
9269 2 0.532035 0.0108101 0.970157
9271 2 0.978189 0.188231 0.905049
9275 2 0.718227 0.219009 0.470007
9277 2 0.944788 0.23444 0.236674
9286 2 0.629721 0.274333 0.313867
76 1 0.530323 0.337399 0.123886
75 1 0.529982 0.360985 0.127266
71 1 0.508688 0.372148 0.128476
70 1 0.509201 0.395774 0.123158
74 1 0.529483 0.407148 0.128513
80 1 0.550798 0.37208 0.120644
79 1 0.549768 0.395445 0.127291
85 1 0.57051 0.337552 0.130334
92 1 0.611419 0.33681 0.12759
103 1 0.65198 0.33588 0.122498
84 1 0.570305 0.360631 0.128022
83 1 0.569743 0.406844 0.120571
91 1 0.611449 0.360364 0.12142
90 1 0.590431 0.371974 0.122502
89 1 0.590262 0.395698 0.121228
94 1 0.611072 0.406566 0.114252
102 1 0.652149 0.360411 0.127476
98 1 0.632249 0.372938 0.118645
95 1 0.631626 0.396444 0.120085
101 1 0.652889 0.407602 0.118753
111 1 0.692973 0.358446 0.121976
107 1 0.673373 0.371714 0.128933
106 1 0.67254 0.394878 0.119929
109 1 0.69222 0.407167 0.128879
73 1 0.529318 0.430906 0.129057
69 1 0.509913 0.442702 0.121244
68 1 0.509815 0.465775 0.121008
165 1 0.52992 0.476299 0.12505
78 1 0.550134 0.441408 0.119453
77 1 0.550468 0.465051 0.120067
164 1 0.52943 0.499653 0.121686
160 1 0.508874 0.511479 0.126725
161 1 0.508916 0.534976 0.124911
166 1 0.529911 0.545851 0.128952
169 1 0.549704 0.511024 0.127598
170 1 0.550778 0.534184 0.124124
167 1 0.52971 0.569492 0.124229
82 1 0.570504 0.429991 0.12343
174 1 0.571163 0.47635 0.125023
93 1 0.611477 0.429387 0.122791
88 1 0.591492 0.441434 0.116057
87 1 0.591479 0.465894 0.119608
184 1 0.611439 0.476746 0.128199
100 1 0.653566 0.431153 0.124539
97 1 0.631693 0.441557 0.120116
96 1 0.631671 0.465434 0.123164
193 1 0.652443 0.477058 0.129253
110 1 0.692697 0.430834 0.128021
105 1 0.673461 0.443245 0.119154
104 1 0.672612 0.465955 0.12116
201 1 0.692495 0.477413 0.127507
173 1 0.569791 0.499379 0.122136
175 1 0.57161 0.546059 0.128091
183 1 0.61172 0.499989 0.12562
178 1 0.590893 0.511273 0.126607
179 1 0.591816 0.534266 0.123605
185 1 0.612035 0.545576 0.121204
192 1 0.652576 0.499973 0.129727
188 1 0.631645 0.510904 0.13099
189 1 0.631425 0.53471 0.129875
191 1 0.65176 0.54668 0.126894
200 1 0.691722 0.500462 0.133765
196 1 0.671611 0.512 0.135586
197 1 0.671313 0.535126 0.134896
203 1 0.692426 0.546587 0.132197
176 1 0.570687 0.568863 0.122422
186 1 0.612166 0.56916 0.125025
194 1 0.651943 0.570268 0.130517
202 1 0.692011 0.569813 0.127524
162 1 0.509797 0.581256 0.127086
163 1 0.509744 0.604208 0.119815
168 1 0.530359 0.614923 0.127078
171 1 0.550367 0.580521 0.128826
172 1 0.551197 0.603458 0.124256
230 1 0.52998 0.638272 0.121767
228 1 0.509804 0.650882 0.123563
232 1 0.550353 0.649984 0.123151
177 1 0.571075 0.615264 0.127853
180 1 0.591647 0.57976 0.120666
181 1 0.591087 0.603722 0.12747
182 1 0.611604 0.615687 0.121127
187 1 0.632034 0.581692 0.122762
190 1 0.631319 0.604829 0.126571
195 1 0.651316 0.616659 0.123997
198 1 0.672449 0.581626 0.126409
199 1 0.671163 0.6049 0.131717
204 1 0.690931 0.617806 0.129547
235 1 0.570238 0.638258 0.11819
238 1 0.61116 0.638908 0.125811
236 1 0.590449 0.650307 0.121347
243 1 0.651765 0.640433 0.128751
241 1 0.631377 0.651614 0.127403
247 1 0.691047 0.641566 0.131101
245 1 0.671505 0.653684 0.128183
317 1 0.511061 0.347859 0.378293
322 1 0.531221 0.358894 0.378385
326 1 0.551517 0.347438 0.374313
321 1 0.530508 0.381848 0.372647
316 1 0.511147 0.394679 0.377124
315 1 0.510243 0.417966 0.368919
325 1 0.550918 0.39386 0.370671
324 1 0.55103 0.417345 0.376909
331 1 0.570646 0.35947 0.381946
332 1 0.590755 0.348309 0.376022
338 1 0.61154 0.360272 0.380052
345 1 0.631796 0.348859 0.375747
349 1 0.651787 0.360607 0.380876
354 1 0.671589 0.348214 0.375916
358 1 0.692279 0.359821 0.377175
330 1 0.571552 0.38274 0.377819
337 1 0.611859 0.383551 0.380481
335 1 0.591751 0.39478 0.374573
334 1 0.591552 0.418023 0.378666
348 1 0.65241 0.383877 0.373479
344 1 0.631833 0.395035 0.374686
342 1 0.631964 0.418297 0.376148
357 1 0.692822 0.383752 0.38135
353 1 0.67255 0.395665 0.380572
351 1 0.672382 0.418405 0.369552
320 1 0.530706 0.429579 0.371666
319 1 0.530768 0.453305 0.3778
314 1 0.510368 0.464986 0.371971
405 1 0.510175 0.488022 0.380249
409 1 0.530973 0.5 0.379239
323 1 0.550796 0.46517 0.377279
414 1 0.550815 0.488317 0.382523
410 1 0.530014 0.52293 0.383722
404 1 0.509965 0.534895 0.381778
406 1 0.510406 0.557573 0.372357
411 1 0.530272 0.568887 0.379229
413 1 0.550681 0.534922 0.385429
415 1 0.550862 0.558006 0.376711
329 1 0.571739 0.429038 0.374939
340 1 0.611732 0.429846 0.376185
347 1 0.651953 0.430264 0.369222
355 1 0.692124 0.430104 0.373567
328 1 0.571376 0.452459 0.38142
418 1 0.571088 0.500336 0.378486
339 1 0.612119 0.453452 0.379923
333 1 0.591576 0.464042 0.372459
422 1 0.5916 0.487455 0.380334
427 1 0.611598 0.499405 0.376723
346 1 0.653228 0.453502 0.376857
343 1 0.632366 0.464482 0.374154
432 1 0.63176 0.487786 0.37907
437 1 0.652118 0.49908 0.370632
356 1 0.691731 0.453616 0.371806
350 1 0.672316 0.464503 0.365577
440 1 0.672602 0.487963 0.370546
445 1 0.692487 0.500605 0.364592
419 1 0.571166 0.523465 0.384558
420 1 0.571703 0.569853 0.372673
428 1 0.612791 0.522332 0.382234
423 1 0.5917 0.533605 0.379203
424 1 0.591471 0.557416 0.380317
429 1 0.611876 0.569423 0.375347
438 1 0.653715 0.522591 0.373238
433 1 0.632795 0.534102 0.374176
434 1 0.632728 0.557978 0.379187
436 1 0.652449 0.569982 0.371082
446 1 0.694356 0.524302 0.362433
441 1 0.673355 0.535009 0.36438
442 1 0.67269 0.558181 0.373355
448 1 0.692257 0.570868 0.368225
412 1 0.530645 0.592431 0.376749
407 1 0.509906 0.604865 0.37578
408 1 0.509799 0.628474 0.370652
479 1 0.530004 0.640414 0.378418
416 1 0.5509 0.604324 0.37942
417 1 0.550501 0.628459 0.375451
480 1 0.53014 0.663687 0.37627
421 1 0.571215 0.593505 0.372125
485 1 0.57049 0.640725 0.381031
430 1 0.611588 0.592505 0.37635
425 1 0.591709 0.605047 0.372422
426 1 0.590925 0.628406 0.380831
489 1 0.6121 0.639377 0.383012
439 1 0.652497 0.593299 0.377033
431 1 0.63205 0.60399 0.378341
435 1 0.632217 0.627997 0.37383
496 1 0.652475 0.639391 0.379501
447 1 0.692881 0.594025 0.368595
443 1 0.672131 0.605983 0.370109
444 1 0.672858 0.628786 0.378424
501 1 0.693048 0.638387 0.371323
486 1 0.570384 0.664102 0.377807
490 1 0.612037 0.663356 0.382273
497 1 0.65223 0.663162 0.375356
502 1 0.691714 0.661317 0.369337
112 1 0.692305 0.335614 0.123653
252 2 0.570442 0.578868 0.458921
1366 2 0.520606 0.651127 0.29203
1032 2 0.639321 0.406423 0.206842
1596 2 0.54995 0.485851 0.203628
1441 2 0.569177 0.602378 0.0370197
2178 2 0.6855 0.481344 0.280883
4074 2 0.565899 0.515788 0.0114642
3824 2 0.743166 0.506088 0.396066
2611 2 0.646452 0.537691 0.0385056
7335 2 0.725463 0.566129 0.200512
5414 2 0.65761 0.442023 0.0396704
1494 2 0.592677 0.47402 0.466546
6846 2 0.718152 0.597755 0.0542714
3291 2 0.624068 0.537192 0.286107