ITEM: TIMESTEP
150000
ITEM: NUMBER OF ATOMS
770
ITEM: BOX BOUNDS pp pp pp
-3.0000000000000000e+01 3.0000000000000000e+01
-3.0000000000000000e+01 3.0000000000000000e+01
-1.5000000000000000e+01 1.5000000000000000e+01
ITEM: ATOMS id type xs ys zs
6 1 0.329425 0.289928 0.241908
3 1 0.310374 0.302731 0.235525
1 1 0.309646 0.325584 0.239468
12 1 0.369885 0.290805 0.25224
9 1 0.349283 0.301711 0.251711
7 1 0.349631 0.324751 0.244223
18 1 0.410391 0.290275 0.255143
15 1 0.390352 0.301214 0.263782
14 1 0.389297 0.324261 0.255404
21 1 0.429737 0.302716 0.254489
20 1 0.430347 0.325661 0.262653
24 1 0.449483 0.291173 0.262052
28 1 0.490149 0.290293 0.261968
27 1 0.470485 0.302346 0.266027
26 1 0.47055 0.324653 0.249148
278 1 0.327825 0.313837 0.732559
276 1 0.307984 0.326158 0.731375
282 1 0.368507 0.314531 0.746869
280 1 0.346685 0.324126 0.749913
286 1 0.409427 0.314395 0.73793
284 1 0.38884 0.325867 0.73889
288 1 0.429092 0.325756 0.748041
290 1 0.448779 0.314479 0.73898
293 1 0.489236 0.313626 0.740001
292 1 0.469381 0.325458 0.734418
7975 2 0.41674 0.166589 0.97219
8169 2 0.0695329 0.123666 0.838379
8154 2 0.462893 0.146781 0.792498
8124 2 0.440983 0.177212 0.494436
1134 2 0.374946 0.262849 0.708979
724 2 0.278757 0.259831 0.210195
8224 2 0.169844 0.18452 0.943205
8190 2 0.074491 0.0196537 0.690598
4648 2 0.286689 0.282419 0.682768
8032 2 0.239333 0.294332 0.00408045
8220 2 0.034905 0.12758 0.0622781
2043 2 0.370057 0.275933 0.152209
531 2 0.440438 0.311294 0.361832
1173 2 0.358731 0.238388 0.285962
8264 2 0.211826 0.0471749 0.201123
7750 2 0.343171 0.224534 0.00627599
8257 2 0.379916 0.105907 0.774395
8233 2 0.105961 0.0915451 0.204071
1452 2 0.437845 0.241935 0.232358
8221 2 0.28611 0.107794 0.0456824
7484 2 0.314048 0.318005 0.860064
8231 2 0.165675 0.225161 0.248687
7569 2 0.455016 0.270837 0.988756
7851 2 0.301063 0.274459 0.387107
609 2 0.463074 0.265577 0.701361
8181 2 0.448979 0.0751005 0.449219
8126 2 0.41029 0.0148301 0.660129
8282 2 0.158529 0.0677019 0.376617
1659 2 0.390588 0.325386 0.847681
8252 2 0.22171 0.0695787 0.614902
8294 2 0.285975 0.13693 0.76871
8281 2 0.0837735 0.0496157 0.534308
260 2 0.496234 0.285568 0.155399
4 1 0.329606 0.337568 0.246629
10 1 0.369072 0.336453 0.251657
17 1 0.40961 0.337165 0.26483
5 1 0.329372 0.360703 0.24017
2 1 0.309852 0.371959 0.246877
64 1 0.308809 0.395982 0.247729
69 1 0.328405 0.407307 0.243913
11 1 0.368777 0.359864 0.246852
8 1 0.348899 0.371887 0.248951
74 1 0.348526 0.395483 0.249741
79 1 0.369107 0.406575 0.241854
16 1 0.409866 0.360229 0.254094
13 1 0.389078 0.371798 0.254745
88 1 0.389781 0.394429 0.243029
89 1 0.409856 0.405975 0.251373
19 1 0.430135 0.371404 0.259811
96 1 0.430855 0.394634 0.252595
22 1 0.44999 0.336633 0.253757
29 1 0.490677 0.336725 0.256776
23 1 0.450524 0.359244 0.262907
99 1 0.450804 0.406701 0.257226
30 1 0.490774 0.360399 0.250444
25 1 0.470354 0.371389 0.253038
104 1 0.471148 0.395066 0.261082
109 1 0.49052 0.407172 0.253007
73 1 0.329459 0.429943 0.254909
66 1 0.309299 0.441883 0.254569
68 1 0.307277 0.465354 0.252879
71 1 0.328299 0.475472 0.257407
80 1 0.369467 0.430112 0.241369
76 1 0.349296 0.441553 0.244245
77 1 0.34916 0.464645 0.254593
83 1 0.36937 0.47646 0.246549
90 1 0.410032 0.42858 0.243423
85 1 0.389246 0.440992 0.249873
86 1 0.389405 0.464826 0.244458
93 1 0.409062 0.476441 0.252662
95 1 0.430339 0.440505 0.25031
97 1 0.429347 0.464793 0.244635
70 1 0.329928 0.498854 0.246058
67 1 0.309884 0.510779 0.246781
65 1 0.311064 0.534117 0.250604
72 1 0.330234 0.546405 0.259908
82 1 0.369077 0.499243 0.256516
78 1 0.349987 0.511408 0.24877
75 1 0.350346 0.534433 0.25814
81 1 0.369169 0.547147 0.250055
92 1 0.410348 0.499523 0.255989
87 1 0.3894 0.51093 0.251031
84 1 0.388227 0.534918 0.253952
91 1 0.409387 0.545188 0.24601
98 1 0.430029 0.510797 0.24711
94 1 0.429705 0.53429 0.254018
175 1 0.329388 0.569009 0.249747
183 1 0.369456 0.570711 0.258067
189 1 0.4091 0.569704 0.25256
100 1 0.45093 0.429541 0.249794
103 1 0.450111 0.476821 0.24727
110 1 0.49125 0.430793 0.258117
106 1 0.470803 0.441814 0.252255
107 1 0.469912 0.465211 0.257617
112 1 0.491069 0.476781 0.250034
102 1 0.450158 0.500149 0.254976
101 1 0.45 0.546012 0.247678
113 1 0.490942 0.500789 0.253911
108 1 0.4702 0.511471 0.250054
105 1 0.470375 0.534366 0.254844
111 1 0.489788 0.546508 0.247128
198 1 0.449289 0.569311 0.252371
208 1 0.490217 0.570032 0.251492
171 1 0.308791 0.580698 0.247086
170 1 0.308243 0.603928 0.24427
174 1 0.328764 0.61626 0.241201
179 1 0.348863 0.582245 0.255647
178 1 0.349121 0.60489 0.24422
182 1 0.369329 0.61632 0.25219
186 1 0.389307 0.581671 0.249435
185 1 0.389613 0.604921 0.253646
190 1 0.410063 0.616365 0.248561
194 1 0.429302 0.581112 0.245913
193 1 0.429668 0.60434 0.25095
173 1 0.328029 0.63884 0.250102
169 1 0.308473 0.650355 0.241709
181 1 0.36879 0.640323 0.247126
177 1 0.347934 0.651673 0.247728
191 1 0.409439 0.639911 0.248727
187 1 0.389374 0.651357 0.254509
195 1 0.429755 0.65144 0.251341
199 1 0.449256 0.616487 0.245015
203 1 0.469323 0.581254 0.248666
201 1 0.469108 0.604411 0.25313
207 1 0.489058 0.616266 0.245218
197 1 0.44961 0.639941 0.253769
206 1 0.489961 0.639455 0.251491
202 1 0.469626 0.651563 0.256238
275 1 0.305772 0.349157 0.7421
277 1 0.326265 0.359602 0.748713
279 1 0.346854 0.348087 0.74551
281 1 0.367869 0.359842 0.752948
283 1 0.387993 0.347931 0.751554
285 1 0.40848 0.359841 0.75489
287 1 0.42859 0.349335 0.746675
321 1 0.326526 0.382876 0.744494
315 1 0.30651 0.394747 0.752322
316 1 0.306929 0.417737 0.753699
332 1 0.368045 0.38322 0.749098
326 1 0.34721 0.394402 0.751946
327 1 0.347933 0.41825 0.747231
347 1 0.408715 0.382891 0.748691
341 1 0.388431 0.394798 0.754542
342 1 0.387879 0.417317 0.749018
348 1 0.428526 0.39519 0.755089
351 1 0.428803 0.418486 0.747001
289 1 0.449271 0.360817 0.74517
291 1 0.469718 0.348038 0.746722
294 1 0.489999 0.360104 0.752331
358 1 0.449117 0.383494 0.757343
365 1 0.488811 0.383492 0.749306
359 1 0.469116 0.395337 0.759385
360 1 0.469133 0.418642 0.75714
322 1 0.326558 0.429833 0.746653
333 1 0.368219 0.430238 0.754775
343 1 0.408755 0.42937 0.743855
325 1 0.328486 0.452815 0.754688
318 1 0.309061 0.465857 0.756879
320 1 0.30778 0.489004 0.75375
323 1 0.328362 0.500494 0.747703
334 1 0.369427 0.453064 0.745112
329 1 0.348862 0.464454 0.743213
331 1 0.348404 0.487788 0.75035
335 1 0.368884 0.499687 0.744724
344 1 0.409565 0.452742 0.751381
337 1 0.389099 0.464954 0.7535
340 1 0.389133 0.487952 0.744733
345 1 0.409025 0.50016 0.746275
349 1 0.429522 0.464774 0.744348
353 1 0.42944 0.488013 0.750979
324 1 0.328434 0.523937 0.756865
319 1 0.308973 0.536683 0.75978
317 1 0.308665 0.559246 0.74838
434 1 0.32882 0.570131 0.741434
336 1 0.369491 0.523736 0.752512
330 1 0.34901 0.535466 0.749409
328 1 0.349135 0.558888 0.751979
443 1 0.369101 0.571035 0.748046
346 1 0.409336 0.523989 0.753104
339 1 0.389252 0.535647 0.746428
338 1 0.388441 0.559328 0.752934
450 1 0.408619 0.570903 0.750785
352 1 0.429435 0.535627 0.749166
350 1 0.429252 0.559047 0.75547
354 1 0.448708 0.43046 0.753683
366 1 0.489588 0.430489 0.748379
355 1 0.449442 0.45333 0.743329
356 1 0.450065 0.500336 0.742869
367 1 0.490652 0.45368 0.75122
362 1 0.470138 0.465175 0.74434
364 1 0.469991 0.48879 0.75012
369 1 0.489955 0.49963 0.744445
357 1 0.449802 0.524285 0.752131
460 1 0.449286 0.570626 0.749475
368 1 0.490252 0.523472 0.746991
363 1 0.469968 0.535777 0.746391
361 1 0.469505 0.558983 0.749511
471 1 0.489867 0.570103 0.741728
433 1 0.329113 0.593944 0.740241
429 1 0.309831 0.606211 0.747068
428 1 0.308168 0.628913 0.756404
432 1 0.328866 0.640667 0.756141
442 1 0.369144 0.594459 0.747348
438 1 0.349195 0.605549 0.749488
437 1 0.348589 0.62899 0.744061
441 1 0.369045 0.640855 0.744002
449 1 0.409443 0.594398 0.759609
446 1 0.388827 0.605815 0.754816
445 1 0.388926 0.62901 0.746955
451 1 0.409297 0.640521 0.755967
455 1 0.429591 0.605888 0.757392
454 1 0.429104 0.628777 0.762184
431 1 0.328358 0.663653 0.745048
440 1 0.369407 0.663873 0.752381
452 1 0.409531 0.664263 0.748123
459 1 0.449666 0.593467 0.75772
461 1 0.449218 0.64034 0.756481
470 1 0.49025 0.593737 0.748785
465 1 0.468696 0.605601 0.746438
463 1 0.468448 0.628019 0.755594
469 1 0.488718 0.640489 0.749655
458 1 0.449689 0.663739 0.761859
468 1 0.490004 0.663461 0.755835
8273 2 0.264958 0.486651 0.516158
270 2 0.41283 0.623293 0.653163
63 2 0.344764 0.551676 0.152291
262 2 0.433637 0.471354 0.34799
251 2 0.477397 0.543967 0.145771
168 2 0.290995 0.421283 0.350256
925 2 0.441727 0.386983 0.36057
694 2 0.424657 0.336412 0.154413
1403 2 0.259984 0.350145 0.248096
8104 2 0.185692 0.520506 0.859365
1857 2 0.338894 0.593669 0.364965
426 2 0.44752 0.478397 0.849259
264 2 0.489499 0.478336 0.63362
1584 2 0.450691 0.611802 0.856073
938 2 0.326801 0.571783 0.853859
1725 2 0.261945 0.614189 0.295501
675 2 0.406621 0.500783 0.151885
536 2 0.345026 0.498845 0.356658
3002 2 0.41174 0.335779 0.637892
539 2 0.262959 0.585412 0.735802
1665 2 0.471822 0.638694 0.148356
1193 2 0.328548 0.399245 0.851934
682 2 0.336085 0.642574 0.642415
555 2 0.330921 0.475006 0.146457
612 2 0.361207 0.386466 0.145851
744 2 0.360982 0.551558 0.64126
1696 2 0.254225 0.366027 0.743083
8158 2 0.120269 0.340575 0.277679
814 2 0.373874 0.623292 0.852337
8173 2 0.0847946 0.507273 0.233307
901 2 0.372042 0.425044 0.346194
3752 2 0.287003 0.527123 0.659901
1644 2 0.431392 0.420245 0.143799
699 2 0.35476 0.475311 0.854689
8287 2 0.0991287 0.654584 0.74037
1488 2 0.265323 0.54975 0.20213
809 2 0.27562 0.513752 0.831937
791 2 0.406879 0.484911 0.639877
8117 2 0.44615 0.655553 0.496594
855 2 0.410907 0.546387 0.853075
8197 2 0.019568 0.352341 0.96262
8150 2 0.162449 0.505568 0.67551
995 2 0.26062 0.442023 0.764694
1022 2 0.414432 0.548397 0.360434
951 2 0.265344 0.655775 0.694045
733 2 0.401612 0.40131 0.851127
3783 2 0.268038 0.432684 0.189916
3157 2 0.325879 0.454922 0.64029
1109 2 0.38074 0.409373 0.646373
8127 2 0.0545209 0.502747 0.0256419
949 2 0.451201 0.549108 0.648785
1969 2 0.331552 0.644156 0.134366
559 2 0.349233 0.350887 0.353764
6333 2 0.343791 0.351133 0.640528
1246 2 0.455023 0.407206 0.654059
827 2 0.492714 0.418381 0.864504
1493 2 0.265347 0.492841 0.316823
259 2 0.428435 0.623477 0.352143
268 2 0.486973 0.627679 0.647767
829 2 0.405192 0.591781 0.148735
8168 2 0.0713887 0.349676 0.742896
8270 2 0.0909157 0.643069 0.978733
7981 2 0.242102 0.393454 0.543674
7802 2 0.305983 0.589733 0.524835
272 2 0.464024 0.338453 0.855613
8222 2 0.195676 0.373613 0.388151
8208 2 0.129006 0.438865 0.0589985
7915 2 0.220322 0.444075 0.994325
265 2 0.498227 0.346564 0.641266
8278 2 0.453591 0.372807 0.00121866
8283 2 0.102721 0.546208 0.813652
172 1 0.309342 0.67411 0.239864
176 1 0.329107 0.685647 0.253397
180 1 0.348221 0.674103 0.2602
184 1 0.368819 0.686078 0.255456
188 1 0.389208 0.674765 0.24782
192 1 0.409426 0.686698 0.253638
196 1 0.429302 0.674953 0.260566
200 1 0.449391 0.686007 0.249913
204 1 0.46916 0.67412 0.246757
205 1 0.489702 0.685763 0.243238
427 1 0.308316 0.675151 0.7435
430 1 0.308525 0.698135 0.749247
435 1 0.328646 0.710147 0.74849
436 1 0.348486 0.675332 0.750853
439 1 0.348498 0.697903 0.74124
444 1 0.368401 0.710289 0.744077
447 1 0.389084 0.675572 0.744663
448 1 0.388521 0.698851 0.754124
453 1 0.408761 0.710813 0.746836
456 1 0.42905 0.675792 0.759296
457 1 0.428712 0.698578 0.749129
462 1 0.44901 0.71 0.755238
464 1 0.469586 0.67548 0.753906
466 1 0.46914 0.699101 0.759458
467 1 0.490415 0.710327 0.754229
1677 2 0.418084 0.710963 0.641496
533 2 0.411463 0.678018 0.140884
6042 2 0.384691 0.754981 0.795029
8078 2 0.209076 0.722145 0.362756
8062 2 0.330686 0.94249 0.0520867
8268 2 0.413512 0.807602 0.146549
7994 2 0.421558 0.961037 0.900593
7699 2 0.229829 0.708602 0.814732
1578 2 0.31971 0.696097 0.85699
630 2 0.409281 0.691507 0.861559
1508 2 0.345916 0.74234 0.659729
1590 2 0.432913 0.737379 0.267519
8094 2 0.197365 0.988485 0.3227
8064 2 0.175572 0.687693 0.134857
8015 2 0.115912 0.815801 0.665592
8215 2 0.259782 0.676224 0.00503722
2212 2 0.356494 0.710383 0.377291
8299 2 0.0287037 0.972847 0.798873
889 2 0.463173 0.760724 0.764995
7620 2 0.417278 0.76244 0.980569
2366 2 0.263088 0.70279 0.209237
8122 2 0.0920022 0.780201 0.39358
4353 2 0.351997 0.728492 0.197324
8009 2 0.14658 0.883956 0.95303
7992 2 0.239817 0.906904 0.901082
8284 2 0.357656 0.911159 0.238291
8238 2 0.474736 0.975406 0.348874
8110 2 0.491271 0.781734 0.445463
8198 2 0.246433 0.845567 0.161086
8213 2 0.166843 0.991913 0.0106727
8189 2 0.248561 0.878881 0.463686
8199 2 0.194769 0.90604 0.0913021
8203 2 0.469862 0.90093 0.833264
8211 2 0.370591 0.881877 0.847095
8276 2 0.311523 0.960821 0.377468
8271 2 0.394357 0.87909 0.584708
8286 2 0.0544442 0.845869 0.0450772
8297 2 0.0235365 0.845029 0.512084
36 1 0.52975 0.290043 0.249933
33 1 0.510815 0.302304 0.261428
32 1 0.510569 0.325173 0.250579
39 1 0.550485 0.301333 0.249608
38 1 0.551606 0.324909 0.245353
40 1 0.569975 0.289658 0.238621
48 1 0.611082 0.28901 0.240303
45 1 0.591302 0.300523 0.234351
43 1 0.591333 0.323513 0.244338
52 1 0.651793 0.288305 0.245487
49 1 0.631191 0.300332 0.238024
51 1 0.631178 0.322833 0.246492
58 1 0.68991 0.286363 0.260515
55 1 0.671387 0.300033 0.25366
57 1 0.671657 0.322574 0.240939
298 1 0.530646 0.313202 0.745309
296 1 0.509664 0.324706 0.748408
300 1 0.550874 0.324546 0.753294
301 1 0.57195 0.313242 0.749833
306 1 0.612309 0.314663 0.747786
304 1 0.591859 0.325132 0.753463
309 1 0.652635 0.316023 0.74374
307 1 0.632094 0.326352 0.740516
313 1 0.693406 0.313607 0.755211
311 1 0.673732 0.325014 0.737844
5435 2 0.690913 0.283404 0.850713
8266 2 0.864382 0.221252 0.21387
256 2 0.659123 0.250067 0.323521
254 2 0.737212 0.306178 0.230103
8087 2 0.518545 0.159925 0.140597
8274 2 0.548103 0.226927 0.987386
842 2 0.518997 0.24713 0.314174
8267 2 0.532107 0.0108106 0.969916
2826 2 0.583614 0.308439 0.347722
1336 2 0.659737 0.276976 0.143711
8293 2 0.783489 0.147175 0.0976633
562 2 0.5156 0.332583 0.363759
229 2 0.554186 0.327834 0.136236
8218 2 0.77912 0.0320899 0.937977
8240 2 0.947809 0.154333 0.719708
7871 2 0.737507 0.195406 0.961661
8235 2 0.511821 0.0671691 0.171293
8244 2 0.83641 0.182984 0.800121
619 2 0.578889 0.327999 0.641289
7970 2 0.669361 0.0844326 0.580145
8185 2 0.790719 0.251109 0.687434
8202 2 0.800063 0.32146 0.421063
7740 2 0.51906 0.0685671 0.820028
696 2 0.637679 0.266437 0.724461
2532 2 0.551075 0.268886 0.78587
2598 2 0.592711 0.244694 0.203656
8246 2 0.858613 0.05994 0.201955
7892 2 0.987294 0.202204 0.177853
8254 2 0.943773 0.226278 0.384314
8261 2 0.97839 0.299709 0.783287
8285 2 0.541393 0.145863 0.500723
8289 2 0.738907 0.113201 0.869341
8290 2 0.922804 0.0610453 0.409819
8292 2 0.778848 0.163312 0.292239
35 1 0.531299 0.335765 0.254456
34 1 0.531789 0.359824 0.253107
31 1 0.51088 0.371514 0.25752
118 1 0.510427 0.395031 0.257176
123 1 0.530551 0.407158 0.250031
37 1 0.551393 0.371862 0.258854
128 1 0.55083 0.394947 0.250863
42 1 0.571791 0.336788 0.240315
47 1 0.611742 0.335133 0.244747
54 1 0.651269 0.3338 0.236236
62 2 0.529389 0.556499 0.635908
41 1 0.571537 0.359486 0.254078
133 1 0.571236 0.406138 0.259272
46 1 0.611938 0.358339 0.251354
44 1 0.59172 0.370829 0.248438
138 1 0.591941 0.395145 0.257303
143 1 0.611489 0.406695 0.247911
53 1 0.651793 0.358003 0.243209
50 1 0.631561 0.369946 0.242905
144 1 0.631018 0.39345 0.252123
153 1 0.651705 0.405462 0.24768
59 1 0.691296 0.359266 0.24801
56 1 0.671488 0.370632 0.240636
158 1 0.671674 0.393497 0.248529
161 1 0.691491 0.405917 0.247209
122 1 0.531026 0.430314 0.252829
117 1 0.511707 0.442276 0.254162
115 1 0.511336 0.465971 0.258703
119 1 0.531173 0.477356 0.250231
126 1 0.550722 0.442103 0.246906
125 1 0.550998 0.465718 0.257111
120 1 0.531968 0.500988 0.253383
114 1 0.511248 0.511625 0.244689
116 1 0.510127 0.534976 0.250365
121 1 0.530596 0.545889 0.245627
124 1 0.55196 0.51225 0.248634
127 1 0.551653 0.535385 0.252434
213 1 0.529703 0.569501 0.248772
132 1 0.571582 0.429389 0.248365
129 1 0.571515 0.476944 0.247122
142 1 0.611749 0.429499 0.251406
136 1 0.591974 0.441428 0.255905
134 1 0.592034 0.464889 0.24728
139 1 0.611843 0.476901 0.25265
149 1 0.651891 0.429201 0.25993
147 1 0.631528 0.440952 0.26122
146 1 0.632266 0.464483 0.255158
151 1 0.652743 0.475975 0.255287
162 1 0.692201 0.4287 0.247516
156 1 0.672667 0.441178 0.256991
155 1 0.673216 0.465189 0.249533
159 1 0.692882 0.477564 0.248348
130 1 0.572101 0.500767 0.250528
131 1 0.572091 0.546966 0.243781
140 1 0.612148 0.500191 0.245632
135 1 0.592166 0.512352 0.245327
137 1 0.592478 0.535724 0.247084
141 1 0.612465 0.547452 0.243697
152 1 0.653031 0.500006 0.250481
145 1 0.632435 0.512085 0.253682
148 1 0.632719 0.535232 0.242307
150 1 0.652524 0.547375 0.246778
160 1 0.692678 0.500931 0.248734
154 1 0.672852 0.512933 0.253501
157 1 0.672268 0.535985 0.243924
163 1 0.692621 0.547597 0.249509
222 1 0.570986 0.569674 0.250248
233 1 0.61224 0.570514 0.248839
240 1 0.652659 0.570525 0.239612
248 1 0.692598 0.571192 0.248789
209 1 0.510132 0.581217 0.241839
210 1 0.509553 0.604693 0.245769
214 1 0.530391 0.615982 0.242526
217 1 0.550382 0.581575 0.246186
218 1 0.550411 0.604846 0.24991
215 1 0.529957 0.639545 0.249297
211 1 0.509433 0.650765 0.239352
219 1 0.551211 0.651373 0.249273
223 1 0.571426 0.616732 0.248126
226 1 0.591751 0.581162 0.247333
227 1 0.591894 0.604668 0.255201
231 1 0.612341 0.61677 0.251826
236 1 0.632001 0.582447 0.241029
237 1 0.633296 0.605428 0.249495
241 1 0.653164 0.61775 0.241383
243 1 0.672673 0.582498 0.247936
245 1 0.673383 0.605988 0.23908
249 1 0.693409 0.617373 0.243883
224 1 0.571555 0.640285 0.25494
232 1 0.612263 0.640278 0.259889
225 1 0.592064 0.65209 0.25454
242 1 0.653182 0.640678 0.252225
238 1 0.632741 0.652193 0.25835
250 1 0.693049 0.640793 0.243447
246 1 0.672738 0.652714 0.241602
295 1 0.510528 0.348071 0.745197
297 1 0.530424 0.358792 0.755836
299 1 0.550764 0.348009 0.749045
380 1 0.530315 0.382418 0.753242
375 1 0.509641 0.394493 0.75614
374 1 0.510069 0.418384 0.756077
386 1 0.550508 0.394826 0.762037
385 1 0.550731 0.418302 0.75934
302 1 0.571185 0.36038 0.758034
303 1 0.591334 0.348329 0.746606
305 1 0.612043 0.360429 0.745236
308 1 0.632792 0.348966 0.748629
310 1 0.653308 0.361011 0.744112
312 1 0.67328 0.34872 0.746585
314 1 0.693327 0.360183 0.751425
391 1 0.571107 0.383884 0.753264
398 1 0.611896 0.383806 0.753171
397 1 0.591773 0.3944 0.748252
396 1 0.591765 0.417537 0.752509
413 1 0.653076 0.383915 0.75169
408 1 0.63184 0.395382 0.747883
403 1 0.631577 0.418773 0.752099
424 1 0.692615 0.383606 0.755355
419 1 0.673169 0.395577 0.748501
418 1 0.672392 0.41915 0.755476
379 1 0.530931 0.429194 0.750634
378 1 0.531093 0.452452 0.744336
372 1 0.510979 0.464572 0.744405
370 1 0.510219 0.487964 0.747035
377 1 0.530335 0.500074 0.741423
383 1 0.550583 0.464879 0.752254
382 1 0.550682 0.488559 0.745085
376 1 0.530149 0.523288 0.745531
371 1 0.510721 0.53517 0.736786
373 1 0.510668 0.558837 0.737802
476 1 0.530536 0.570153 0.746377
381 1 0.551024 0.534691 0.740891
384 1 0.550735 0.558164 0.744195
390 1 0.570887 0.428921 0.748043
402 1 0.611191 0.430453 0.745443
412 1 0.652196 0.43049 0.749562
422 1 0.692499 0.430912 0.747409
389 1 0.571212 0.453037 0.751209
387 1 0.570809 0.500573 0.754034
401 1 0.61196 0.453576 0.751702
394 1 0.592147 0.465178 0.746104
392 1 0.591199 0.488424 0.755684
400 1 0.611573 0.500186 0.750203
409 1 0.65225 0.454138 0.749823
407 1 0.631839 0.465503 0.745833
404 1 0.632201 0.488985 0.750714
411 1 0.652303 0.500572 0.744559
423 1 0.691804 0.45447 0.749239
417 1 0.672303 0.466393 0.745297
414 1 0.672046 0.489074 0.748515
421 1 0.691916 0.501455 0.736765
388 1 0.572273 0.523948 0.749296
486 1 0.571027 0.569679 0.755581
399 1 0.612516 0.523294 0.755452
393 1 0.592011 0.535518 0.756224
395 1 0.591335 0.559137 0.749421
496 1 0.611742 0.570569 0.75518
410 1 0.652612 0.524011 0.751624
405 1 0.632068 0.536003 0.747425
406 1 0.632046 0.559162 0.75346
504 1 0.65189 0.570937 0.750615
420 1 0.69242 0.525948 0.742057
415 1 0.671907 0.536709 0.745875
416 1 0.672075 0.559124 0.757585
514 1 0.692642 0.57094 0.754258
477 1 0.531599 0.593529 0.749175
472 1 0.510982 0.60559 0.747232
473 1 0.509905 0.629079 0.752991
478 1 0.530148 0.640187 0.751035
481 1 0.551537 0.605357 0.757184
482 1 0.550327 0.628837 0.747613
479 1 0.530134 0.663093 0.742873
487 1 0.571292 0.593171 0.749006
488 1 0.570752 0.64076 0.751012
497 1 0.611729 0.593945 0.754243
491 1 0.591094 0.605086 0.747496
492 1 0.591152 0.629046 0.753336
494 1 0.611122 0.640841 0.743291
505 1 0.652464 0.594718 0.754474
500 1 0.631724 0.605593 0.748431
501 1 0.631153 0.629004 0.750326
506 1 0.651494 0.641063 0.749373
513 1 0.692552 0.59407 0.747883
508 1 0.672147 0.606277 0.746513
510 1 0.671627 0.628971 0.75225
515 1 0.692525 0.640706 0.7487
489 1 0.571144 0.664131 0.743167
495 1 0.611564 0.664051 0.752045
602 2 0.544403 0.34197 0.860384
263 2 0.571216 0.630013 0.646276
517 2 0.543575 0.612494 0.860615
274 2 0.539134 0.410098 0.658249
166 2 0.617949 0.598954 0.138096
165 2 0.745171 0.593832 0.239305
1233 2 0.628684 0.358939 0.137079
425 2 0.628501 0.470612 0.850162
60 1 0.691313 0.335702 0.249793
61 2 0.567412 0.520048 0.147376
687 2 0.516249 0.41359 0.35529
8066 2 0.539569 0.370315 0.51592
269 2 0.590309 0.453824 0.364666
516 1 0.691557 0.664627 0.750634
666 2 0.613273 0.402063 0.641142
701 2 0.667563 0.537649 0.855073
944 2 0.651286 0.516811 0.143984
727 2 0.601771 0.378312 0.359305
3383 2 0.738222 0.448282 0.225885
3901 2 0.740515 0.520821 0.268933
4084 2 0.746224 0.647846 0.730266
767 2 0.668711 0.335786 0.352621
616 2 0.587391 0.551947 0.85831
898 2 0.502523 0.498492 0.352705
618 2 0.646406 0.509656 0.358426
1009 2 0.655707 0.5992 0.352721
639 2 0.573813 0.475242 0.644832
823 2 0.567201 0.420604 0.149196
649 2 0.577706 0.54073 0.356698
655 2 0.631902 0.621415 0.852998
673 2 0.500739 0.581375 0.35331
2189 2 0.707447 0.661386 0.341951
741 2 0.639388 0.440153 0.153711
785 2 0.601334 0.549369 0.649506
8259 2 0.934744 0.48304 0.740609
7716 2 0.751049 0.440977 0.95358
8043 2 0.831721 0.355942 0.133224
6445 2 0.691916 0.587699 0.143263
793 2 0.742431 0.475133 0.775628
1196 2 0.658967 0.481354 0.643306
1030 2 0.733886 0.374807 0.292217
8247 2 0.837453 0.651832 0.306561
164 2 0.535746 0.59774 0.140775
1189 2 0.678387 0.423197 0.356436
8217 2 0.896021 0.360483 0.380446
3577 2 0.710741 0.416259 0.649106
7806 2 0.821717 0.422952 0.646342
982 2 0.740557 0.567863 0.787549
8136 2 0.84834 0.518662 0.0255464
1065 2 0.582225 0.406462 0.856954
730 2 0.667527 0.403237 0.854392
1224 2 0.50694 0.656718 0.346429
948 2 0.531281 0.488502 0.851175
1603 2 0.57611 0.618535 0.365392
1110 2 0.624776 0.346704 0.857219
7944 2 0.724972 0.498681 0.492726
7963 2 0.769469 0.39934 0.50367
507 1 0.651663 0.664208 0.755528
3916 2 0.676459 0.564786 0.647033
261 2 0.503747 0.459742 0.147035
623 2 0.667717 0.64943 0.645327
1767 2 0.668615 0.335573 0.63261
8171 2 0.945453 0.633132 0.937409
626 2 0.74279 0.351394 0.76664
7819 2 0.771291 0.570364 0.64684
7863 2 0.70546 0.392235 0.144946
7729 2 0.935176 0.456334 0.101687
8172 2 0.979646 0.395105 0.750116
230 2 0.505486 0.388263 0.148519
8161 2 0.728332 0.615632 0.941375
8191 2 0.985248 0.416281 0.443293
1111 2 0.508171 0.557109 0.844024
8263 2 0.985342 0.448349 0.941072
8242 2 0.879364 0.655523 0.156943
8236 2 0.51265 0.6561 0.0139081
8239 2 0.962999 0.560835 0.518716
8296 2 0.784741 0.634873 0.101041
8298 2 0.836422 0.65071 0.679508
212 1 0.509884 0.674243 0.236464
216 1 0.530107 0.685471 0.248106
220 1 0.550752 0.674616 0.255867
221 1 0.570615 0.686498 0.257941
228 1 0.59122 0.675475 0.26202
234 1 0.611344 0.687093 0.254617
235 1 0.631665 0.675502 0.248321
239 1 0.652523 0.686301 0.254808
244 1 0.672748 0.67492 0.257005
247 1 0.691014 0.686874 0.243211
474 1 0.509839 0.675006 0.744233
475 1 0.511115 0.698108 0.755086
480 1 0.530997 0.710284 0.746503
483 1 0.550552 0.675294 0.746526
484 1 0.550466 0.69813 0.737398
485 1 0.570805 0.709421 0.744683
490 1 0.591798 0.675671 0.744511
493 1 0.591351 0.698421 0.751768
498 1 0.610639 0.711547 0.752495
502 1 0.631341 0.67614 0.750768
499 1 0.63094 0.699831 0.755294
503 1 0.651629 0.711375 0.751002
511 1 0.671571 0.675711 0.746545
509 1 0.671975 0.699133 0.751127
512 1 0.690238 0.711153 0.734453
8279 2 0.536808 0.908922 0.615219
4676 2 0.669125 0.735706 0.284615
8196 2 0.948274 0.969499 0.26663
2482 2 0.744579 0.727495 0.745721
8170 2 0.788203 0.687991 0.501683
8226 2 0.743756 0.752553 0.274404
1461 2 0.683066 0.679476 0.861298
8108 2 0.672757 0.882939 0.752089
8258 2 0.563037 0.726418 0.00473227
7652 2 0.586763 0.770416 0.190299
1868 2 0.544218 0.727008 0.323573
1014 2 0.567014 0.669882 0.142167
8120 2 0.772366 0.706549 0.943645
8209 2 0.911017 0.723009 0.611099
3868 2 0.628579 0.672651 0.369975
8280 2 0.745057 0.699899 0.174682
1749 2 0.670454 0.758484 0.701475
8000 2 0.61065 0.760935 0.425249
8288 2 0.872979 0.838075 0.0841185
1241 2 0.594015 0.724294 0.631276
962 2 0.5867 0.758583 0.806058
8256 2 0.974708 0.862897 0.85978
8207 2 0.892081 0.751928 0.116068
1771 2 0.50947 0.726628 0.178854
805 2 0.572549 0.677597 0.85366
518 2 0.504368 0.679138 0.85176
8024 2 0.53934 0.986739 0.57883
8038 2 0.706755 0.731109 0.56853
8079 2 0.611179 0.992467 0.42468
8164 2 0.520467 0.851967 0.358321
8248 2 0.757128 0.869724 0.445995
8250 2 0.779058 0.959081 0.70708
8251 2 0.847529 0.72045 0.834904
8291 2 0.681892 0.91848 0.157465
8295 2 0.925645 0.948013 0.0552972
8300 2 0.562919 0.889095 0.221447
1262 2 0.50033 0.705261 0.645794
1277 2 0.655351 0.667415 0.1479
