ITEM: TIMESTEP
150000
ITEM: NUMBER OF ATOMS
694
ITEM: BOX BOUNDS pp pp pp
-3.0000000000000000e+01 3.0000000000000000e+01
-3.0000000000000000e+01 3.0000000000000000e+01
-1.5000000000000000e+01 1.5000000000000000e+01
ITEM: ATOMS id type xs ys zs
6585 2 0.0800757 0.178156 0.00887055
3524 2 0.326404 0.202668 0.393654
6106 2 0.483997 0.182016 0.313853
6460 2 0.416208 0.172752 0.0212472
6465 2 0.015181 0.0176725 0.112454
2174 2 0.349916 0.211448 0.228527
1329 2 0.421162 0.208284 0.495677
6536 2 0.293584 0.116501 0.0343471
575 2 0.46183 0.246448 0.393265
6355 2 0.173224 0.0401697 0.273624
6547 2 0.205964 0.0508945 0.418372
6549 2 0.180974 0.217228 0.254952
6347 2 0.363255 0.139445 0.488
6573 2 0.235688 0.0996349 0.250095
6368 2 0.270685 0.0769759 0.634244
6398 2 0.207855 0.0930981 0.849514
6322 2 0.0618868 0.134151 0.586796
6222 2 0.301891 0.206293 0.560625
6076 2 0.372654 0.0430386 0.622266
317 2 0.464164 0.236002 0.624549
6520 2 0.355839 0.128905 0.696015
6269 2 0.482564 0.223858 0.907617
6539 2 0.183298 0.175652 0.935164
6577 2 0.0807881 0.0509763 0.538845
6571 2 0.418455 0.0379605 0.89158
6589 2 0.287472 0.136848 0.765207
5 2 0.418724 0.365402 0.432288
145 1 0.368256 0.482628 0.457891
6 2 0.432081 0.395706 0.477861
30 1 0.365831 0.33261 0.380904
34 1 0.371085 0.449983 0.42617
139 1 0.35934 0.493577 0.420148
28 1 0.371921 0.418661 0.388356
31 1 0.364927 0.363716 0.429877
65 1 0.454037 0.337063 0.488092
39 1 0.371213 0.46024 0.464383
71 1 0.476972 0.362873 0.448505
1411 2 0.471955 0.460288 0.405875
36 1 0.37071 0.351352 0.465462
37 1 0.376672 0.396143 0.467461
45 1 0.389395 0.321461 0.478947
1590 2 0.234331 0.470487 0.446414
33 1 0.379102 0.429319 0.425185
432 2 0.416867 0.447567 0.35162
11 2 0.434339 0.43868 0.469125
38 1 0.382733 0.418059 0.463822
29 1 0.368103 0.461422 0.388452
6180 2 0.00650702 0.398724 0.095987
134 1 0.357789 0.480821 0.383283
32 1 0.36913 0.386215 0.429541
12 2 0.41051 0.496865 0.386406
13 2 0.420835 0.469125 0.43451
27 1 0.369934 0.396837 0.390675
26 1 0.360058 0.35399 0.390137
69 1 0.465639 0.355008 0.48451
35 1 0.373668 0.321892 0.414692
714 2 0.345281 0.443911 0.293348
470 2 0.315609 0.384849 0.410811
719 2 0.332995 0.385001 0.140872
600 2 0.261605 0.409438 0.315334
321 2 0.42653 0.322011 0.394779
475 2 0.456573 0.430108 0.246582
482 2 0.424191 0.404353 0.39071
424 2 0.487472 0.314164 0.41144
1510 2 0.389789 0.290225 0.323198
456 2 0.259956 0.485647 0.265365
809 2 0.335447 0.385228 0.309787
785 2 0.338661 0.283385 0.383926
1176 2 0.256491 0.376615 0.485774
3493 2 0.437477 0.324981 0.213633
1466 2 0.392249 0.408494 0.277812
153 1 0.379433 0.493424 0.488948
635 2 0.321664 0.435902 0.383653
649 2 0.486911 0.407596 0.381187
662 2 0.407074 0.36399 0.34248
6438 2 0.406977 0.268069 0.0553712
693 2 0.405673 0.275605 0.438193
703 2 0.330603 0.422415 0.474802
3208 2 0.273178 0.276704 0.456918
848 2 0.467406 0.4137 0.489607
454 2 0.320602 0.329899 0.453527
1183 2 0.30564 0.492502 0.371455
820 2 0.354259 0.281074 0.484717
824 2 0.392025 0.480955 0.2867
5385 2 0.366805 0.490682 0.145767
1263 2 0.361847 0.334977 0.260015
40 1 0.375265 0.330781 0.4542
6081 2 0.199899 0.476636 0.153092
1223 2 0.312166 0.333293 0.352402
189 1 0.497049 0.499637 0.470594
80 1 0.498689 0.368747 0.455729
710 2 0.317363 0.466798 0.456415
1412 2 0.269745 0.329185 0.21986
6447 2 0.0233156 0.335261 0.325695
2260 2 0.481055 0.356114 0.336822
6538 2 0.191266 0.377065 0.37681
6386 2 0.0565004 0.272051 0.0278204
188 1 0.495827 0.478994 0.497728
6407 2 0.121027 0.385832 0.128394
6485 2 0.10625 0.355805 0.274785
169 1 0.436442 0.486176 0.534756
25 2 0.388446 0.407699 0.65928
58 1 0.428766 0.418131 0.583018
155 1 0.39422 0.486914 0.522484
64 1 0.449851 0.382527 0.583523
57 1 0.432544 0.466212 0.562186
48 1 0.394031 0.418642 0.54225
163 1 0.416293 0.498599 0.525428
4 2 0.327475 0.374676 0.50941
6149 2 0.392801 0.473584 0.923472
59 1 0.432396 0.351532 0.547526
51 1 0.409872 0.430222 0.567578
176 1 0.456651 0.489059 0.507943
49 1 0.3944 0.349659 0.528681
128 2 0.363752 0.448206 0.616158
52 1 0.411386 0.453933 0.560556
182 1 0.474464 0.473213 0.51431
62 1 0.449498 0.429916 0.588045
61 1 0.451282 0.363812 0.557007
46 1 0.394824 0.463196 0.532033
73 1 0.489928 0.383852 0.572069
1055 2 0.480077 0.317215 0.577481
53 1 0.408232 0.381877 0.568885
63 1 0.451457 0.451658 0.568515
47 1 0.391602 0.395008 0.544358
54 1 0.410356 0.359719 0.554859
56 1 0.427869 0.393357 0.587065
6232 2 0.482275 0.374487 0.962933
68 1 0.469279 0.417986 0.597269
66 1 0.470607 0.393383 0.59132
50 1 0.398613 0.328739 0.512541
70 1 0.472702 0.458041 0.547905
818 2 0.427798 0.455382 0.674144
2146 2 0.476553 0.295301 0.731726
60 1 0.43678 0.33561 0.517656
4850 2 0.38755 0.402789 0.991669
74 1 0.489805 0.430061 0.591321
498 2 0.345214 0.32371 0.547899
75 1 0.49101 0.451054 0.571149
67 1 0.469172 0.36249 0.526367
3148 2 0.400129 0.254942 0.745596
433 2 0.35837 0.366368 0.60856
1627 2 0.372505 0.356982 0.762881
494 2 0.422011 0.352628 0.665131
828 2 0.27541 0.436192 0.555781
6376 2 0.155603 0.348689 0.584346
473 2 0.283614 0.345727 0.634796
480 2 0.38195 0.458373 0.776476
6493 2 0.0574643 0.357469 0.72606
1285 2 0.443482 0.40378 0.693464
55 1 0.418922 0.323791 0.505388
617 2 0.400147 0.276755 0.547463
1632 2 0.348415 0.258626 0.627891
372 2 0.49797 0.403131 0.690987
903 2 0.435078 0.306754 0.611919
6449 2 0.179918 0.411553 0.704168
767 2 0.338425 0.471417 0.548477
798 2 0.468615 0.490152 0.63476
944 2 0.397119 0.493499 0.631493
72 1 0.488985 0.370327 0.536507
5897 2 0.281131 0.491501 0.797741
41 1 0.379518 0.361494 0.504067
610 2 0.476573 0.348587 0.652652
1790 2 0.314779 0.406965 0.69219
673 2 0.386766 0.31939 0.620693
127 2 0.341344 0.41297 0.561577
42 1 0.380594 0.384777 0.507718
43 1 0.384593 0.429042 0.504375
1816 2 0.461463 0.359568 0.826521
44 1 0.381639 0.450724 0.50251
601 2 0.333447 0.49097 0.686996
852 2 0.464397 0.446075 0.814561
6262 2 0.316432 0.347616 0.882038
6408 2 0.182368 0.488858 0.824416
6567 2 0.103288 0.414176 0.834766
23 2 0.454785 0.283083 0.502571
1619 2 0.498966 0.458171 0.683831
162 1 0.422524 0.515944 0.496128
1074 2 0.315602 0.572921 0.334088
173 1 0.461102 0.573682 0.416697
133 1 0.33893 0.532865 0.406842
161 1 0.420648 0.551614 0.428968
150 1 0.384061 0.576346 0.468835
164 1 0.416774 0.62306 0.439564
187 1 0.497554 0.545421 0.448553
138 1 0.349887 0.513807 0.426577
165 1 0.415819 0.644864 0.460871
174 1 0.460692 0.54814 0.420401
950 2 0.378981 0.568152 0.217312
511 2 0.29777 0.588438 0.45653
254 2 0.371413 0.571244 0.361553
5658 2 0.462887 0.645626 0.0542869
6511 2 0.138292 0.682376 0.385296
149 1 0.383462 0.617018 0.486245
140 1 0.345064 0.555041 0.473993
157 1 0.398182 0.609985 0.449441
6580 2 0.278358 0.652742 0.170462
160 1 0.419302 0.575907 0.423926
168 1 0.440792 0.58773 0.416458
158 1 0.402394 0.587025 0.449802
253 2 0.347262 0.604169 0.410968
181 1 0.479119 0.533264 0.433538
159 1 0.396018 0.65255 0.483761
180 1 0.478205 0.583871 0.441892
171 1 0.436835 0.654655 0.475921
178 1 0.473861 0.604963 0.467201
166 1 0.43926 0.611915 0.430301
1490 2 0.455961 0.733202 0.342639
152 1 0.383405 0.512615 0.472383
177 1 0.458118 0.621188 0.454731
132 1 0.334865 0.551298 0.434544
172 1 0.455951 0.641941 0.48007
186 1 0.493751 0.568972 0.45856
1608 2 0.39909 0.664515 0.241439
690 2 0.341239 0.51497 0.297511
167 1 0.439955 0.537166 0.43149
175 1 0.45782 0.503907 0.469798
792 2 0.445646 0.655503 0.364673
5767 2 0.390218 0.56621 0.061485
327 2 0.283017 0.540284 0.404492
312 2 0.388395 0.528437 0.351875
351 2 0.36125 0.717281 0.311417
391 2 0.407879 0.606966 0.333999
598 2 0.410757 0.691549 0.402653
156 1 0.403951 0.524936 0.478572
1996 2 0.459245 0.602788 0.221905
151 1 0.383548 0.55492 0.465411
5253 2 0.218885 0.713148 0.196477
455 2 0.374799 0.646333 0.382462
509 2 0.34658 0.675014 0.460698
144 1 0.363998 0.544541 0.465008
5805 2 0.229525 0.643809 0.330232
1927 2 0.289304 0.720969 0.426708
946 2 0.483839 0.617767 0.357283
1115 2 0.302366 0.644147 0.368837
183 1 0.47825 0.510031 0.451733
1027 2 0.457676 0.504457 0.347477
1573 2 0.492071 0.67993 0.205295
1288 2 0.387587 0.723557 0.478137
1313 2 0.43633 0.55624 0.320486
252 2 0.327831 0.621641 0.493849
154 1 0.40246 0.543854 0.451837
6548 2 0.12158 0.666819 0.119486
170 1 0.440295 0.518279 0.464938
443 2 0.304981 0.511742 0.482833
146 1 0.365994 0.522801 0.450732
3680 2 0.47398 0.519223 0.0396165
5504 2 0.295341 0.584439 0.187674
1600 2 0.480284 0.683167 0.434508
1708 2 0.444166 0.727932 0.491834
6556 2 0.384706 0.746431 0.0372405
6172 2 0.181002 0.512697 0.325243
2010 2 0.456972 0.518959 0.204295
16 2 0.420424 0.634921 0.575564
130 1 0.358539 0.58629 0.57859
759 2 0.396199 0.637226 0.724461
142 1 0.37592 0.601441 0.519307
184 1 0.478756 0.627662 0.539414
298 2 0.251652 0.647716 0.528963
147 2 0.471984 0.540159 0.54228
262 1 0.43673 0.673659 0.500681
131 1 0.346333 0.574728 0.546902
255 2 0.429317 0.603123 0.537896
135 1 0.366619 0.627821 0.576677
266 1 0.496103 0.650316 0.603036
129 1 0.364633 0.635003 0.618689
136 1 0.368653 0.60564 0.560914
194 1 0.499228 0.597046 0.518714
179 1 0.467932 0.644777 0.520563
2279 2 0.34388 0.670006 0.816116
4817 2 0.455517 0.559519 0.712892
185 1 0.482282 0.609358 0.510584
143 1 0.36935 0.582232 0.501983
6330 2 0.147183 0.583849 0.835641
257 1 0.371091 0.670934 0.60032
5023 2 0.374356 0.573098 0.836586
141 1 0.369856 0.643559 0.542612
256 1 0.367612 0.655363 0.631627
17 2 0.445894 0.567368 0.518966
6238 2 0.289078 0.669186 0.99223
751 2 0.495011 0.514221 0.578002
258 1 0.372416 0.664364 0.559663
6293 2 0.25535 0.740104 0.587206
6299 2 0.0260137 0.659982 0.711132
137 1 0.34887 0.572912 0.503868
315 2 0.333078 0.701415 0.65022
329 2 0.313735 0.613414 0.583061
332 2 0.467646 0.582587 0.601542
1516 2 0.479049 0.620513 0.825265
467 2 0.422524 0.670341 0.628366
260 1 0.398411 0.671999 0.506026
431 2 0.296011 0.556091 0.531718
441 2 0.3785 0.534282 0.572865
654 2 0.376534 0.553823 0.675441
259 1 0.387027 0.676173 0.541278
644 2 0.409759 0.561715 0.560151
263 1 0.450865 0.676491 0.533939
1185 2 0.317888 0.552255 0.633461
584 2 0.437944 0.526799 0.607802
2172 2 0.31527 0.648275 0.666444
265 1 0.477812 0.664733 0.590282
1686 2 0.453279 0.624267 0.644125
1108 2 0.342756 0.598909 0.692179
1011 2 0.345882 0.712069 0.542273
261 1 0.418076 0.681596 0.514594
815 2 0.318998 0.661871 0.56125
1038 2 0.404913 0.599201 0.636998
915 2 0.387282 0.701135 0.692825
933 2 0.340333 0.516971 0.54886
890 2 0.453091 0.714662 0.612786
1284 2 0.400649 0.722778 0.585414
753 2 0.4914 0.711293 0.530351
195 1 0.494771 0.631842 0.573294
2285 2 0.245941 0.588139 0.651343
1724 2 0.423948 0.514044 0.790322
264 1 0.465572 0.661755 0.550576
870 2 0.476224 0.667432 0.707107
5607 2 0.289213 0.743903 0.824041
1517 2 0.497323 0.721003 0.77881
6569 2 0.10146 0.510038 0.715682
648 2 0.265252 0.506395 0.6233
6497 2 0.252335 0.642532 0.815973
3625 2 0.202389 0.540634 0.528239
6529 2 0.166271 0.74034 0.951255
6543 2 0.44004 0.580956 0.954047
6551 2 0.177656 0.695467 0.677291
148 1 0.380686 0.638767 0.502504
6565 2 0.0419088 0.76235 0.121644
6401 2 0.41887 0.88493 0.264997
6523 2 0.0505565 0.769933 0.366799
6317 2 0.484563 0.961125 0.3118
4747 2 0.478066 0.794844 0.414544
6248 2 0.320661 0.801263 0.254476
2246 2 0.419611 0.786316 0.223257
6530 2 0.111594 0.945252 0.0788159
6469 2 0.302142 0.874978 0.371273
6435 2 0.187235 0.956831 0.340388
6136 2 0.343375 0.791427 0.43662
6318 2 0.495475 0.940427 0.143865
6522 2 0.199555 0.897488 0.117554
873 2 0.411151 0.807888 0.487422
6572 2 0.309412 0.960318 0.37527
6578 2 0.286041 0.91321 0.116292
6581 2 0.0544689 0.844734 0.0467917
6457 2 0.0247285 0.999404 0.722314
4676 2 0.436223 0.757715 0.74048
1856 2 0.356343 0.779451 0.643764
5859 2 0.480286 0.786834 0.600641
6310 2 0.429837 0.929539 0.597555
6584 2 0.157363 0.854519 0.884574
6432 2 0.49987 0.873435 0.696589
5953 2 0.675658 0.190138 0.148422
6560 2 0.93926 0.223511 0.386299
6559 2 0.958271 0.0479366 0.339018
6451 2 0.844261 0.123168 0.207493
5323 2 0.577799 0.21199 0.355599
6513 2 0.791661 0.0291455 0.274889
2695 2 0.661215 0.20293 0.402428
6331 2 0.971781 0.154122 0.47697
6277 2 0.628112 0.116965 0.176693
6501 2 0.536844 0.0479428 0.164911
6587 2 0.780043 0.163642 0.295984
6464 2 0.616359 0.0384547 0.889007
6145 2 0.529732 0.18796 0.64527
6506 2 0.836884 0.224151 0.915401
6570 2 0.970828 0.0659998 0.891314
6450 2 0.898344 0.0141575 0.906706
6554 2 0.936109 0.156757 0.717062
6062 2 0.5905 0.191208 0.510127
6341 2 0.699831 0.194754 0.570569
6562 2 0.985817 0.0199046 0.536246
6568 2 0.532385 0.00814502 0.967795
6579 2 0.634109 0.230593 0.802224
6582 2 0.738553 0.112873 0.871537
6588 2 0.63456 0.0659241 0.608737
105 1 0.587994 0.338744 0.433289
7 2 0.546193 0.428908 0.495097
8 2 0.577097 0.45532 0.468796
244 1 0.632787 0.482122 0.398866
85 1 0.517382 0.361751 0.430758
1303 2 0.584291 0.464157 0.371025
122 1 0.643733 0.421735 0.412662
867 2 0.541553 0.309662 0.411485
116 1 0.627936 0.451734 0.442059
100 1 0.574461 0.350738 0.456935
1035 2 0.612489 0.363159 0.345765
125 1 0.655111 0.360196 0.412254
90 1 0.53804 0.359612 0.452836
123 1 0.631903 0.43946 0.405297
120 1 0.648884 0.347245 0.446715
106 1 0.609626 0.336465 0.445705
124 1 0.655392 0.382109 0.416655
118 1 0.645015 0.324049 0.442993
5860 2 0.529905 0.308589 0.0688576
119 1 0.651529 0.391422 0.458142
117 1 0.645603 0.413194 0.454793
928 2 0.680142 0.458172 0.443647
91 1 0.55812 0.359409 0.433601
233 1 0.627434 0.489453 0.469106
1385 2 0.625173 0.462081 0.291381
6191 2 0.837748 0.449769 0.267873
114 1 0.642003 0.379198 0.490126
111 1 0.625957 0.324332 0.422628
239 1 0.628168 0.474549 0.438431
1085 2 0.541952 0.409199 0.41045
841 2 0.575164 0.492973 0.443712
112 1 0.631201 0.443728 0.483952
410 2 0.660486 0.320551 0.332867
2209 2 0.577924 0.479259 0.193153
110 1 0.61681 0.350212 0.481052
96 1 0.579724 0.35877 0.497125
324 2 0.584607 0.412918 0.466108
735 2 0.653652 0.400674 0.308725
3430 2 0.776888 0.410882 0.418817
121 1 0.646217 0.30815 0.475692
5089 2 0.642818 0.426219 0.15614
817 2 0.701072 0.369159 0.353284
504 2 0.530441 0.4653 0.416648
477 2 0.628474 0.25649 0.499474
1001 2 0.601602 0.390825 0.416165
657 2 0.589488 0.284698 0.442746
529 2 0.697078 0.324634 0.425334
555 2 0.505358 0.425357 0.478446
557 2 0.697264 0.4155 0.406576
6525 2 0.863514 0.424765 0.482114
4568 2 0.749395 0.253181 0.341118
2386 2 0.50428 0.379265 0.165316
973 2 0.674406 0.459144 0.346908
3712 2 0.511415 0.273969 0.271774
1364 2 0.544916 0.363604 0.327093
914 2 0.589138 0.305077 0.345742
389 2 0.638847 0.272653 0.387789
89 1 0.541926 0.370855 0.491712
113 1 0.636807 0.422917 0.491985
1718 2 0.693678 0.354335 0.184835
115 1 0.638046 0.357714 0.477845
1566 2 0.687146 0.272368 0.463618
296 2 0.700946 0.371915 0.470869
1480 2 0.585443 0.355268 0.208193
1502 2 0.594877 0.417268 0.337929
1682 2 0.520081 0.445844 0.28237
420 2 0.779608 0.333892 0.414044
6440 2 0.879847 0.41927 0.0567208
1586 2 0.731899 0.417465 0.275247
6576 2 0.814509 0.356547 0.289355
6575 2 0.947847 0.418471 0.46992
6462 2 0.933191 0.381803 0.202337
6010 2 0.631807 0.278382 0.150601
6200 2 0.804166 0.269648 0.159318
4590 2 0.687409 0.488573 0.193702
5816 2 0.520999 0.437372 0.0470048
1726 2 0.755835 0.489501 0.362506
1097 2 0.505606 0.320065 0.499197
108 1 0.62327 0.456178 0.518415
6181 2 0.68416 0.334939 0.906433
101 1 0.60686 0.377809 0.537644
94 1 0.566081 0.382382 0.553946
386 2 0.672753 0.472483 0.527919
1152 2 0.651246 0.479175 0.755395
87 1 0.550224 0.412328 0.598577
104 1 0.61194 0.422235 0.55642
83 1 0.527342 0.389366 0.551678
203 1 0.552702 0.477068 0.552776
9 2 0.68952 0.422613 0.510168
93 1 0.572613 0.423716 0.592294
109 1 0.627022 0.3883 0.52318
86 1 0.55263 0.460175 0.584764
99 1 0.58874 0.388547 0.561956
196 1 0.535285 0.482924 0.525014
6311 2 0.618714 0.253647 0.952706
208 1 0.571022 0.490816 0.558869
1023 2 0.528652 0.279205 0.650478
98 1 0.592312 0.411192 0.576108
1842 2 0.54403 0.399683 0.803957
2 2 0.6616 0.437771 0.593689
88 1 0.548233 0.392131 0.572815
107 1 0.627899 0.410889 0.5278
103 1 0.612293 0.446032 0.553009
97 1 0.594293 0.458705 0.572672
92 1 0.573359 0.447528 0.587617
1316 2 0.636564 0.327583 0.72431
868 2 0.578301 0.381496 0.672107
222 1 0.607611 0.493702 0.532377
215 1 0.592455 0.482067 0.560778
525 2 0.527154 0.338777 0.582142
5590 2 0.599565 0.260968 0.647861
1549 2 0.575311 0.48667 0.828007
411 2 0.641529 0.481481 0.613626
4151 2 0.627161 0.496607 0.952509
642 2 0.527334 0.366434 0.65906
398 2 0.683364 0.338134 0.529948
1048 2 0.580674 0.33781 0.60467
614 2 0.613004 0.437889 0.667909
228 1 0.620673 0.480384 0.508466
191 1 0.514768 0.472621 0.526474
77 1 0.50879 0.417304 0.586
1620 2 0.706343 0.42683 0.709138
561 2 0.632494 0.387196 0.636047
102 1 0.601072 0.360386 0.509284
582 2 0.717623 0.34957 0.667213
24 2 0.598449 0.307114 0.532958
811 2 0.637657 0.338038 0.581775
78 1 0.508534 0.395165 0.575848
1039 2 0.571104 0.487669 0.670689
5849 2 0.74416 0.252246 0.694945
737 2 0.748061 0.436551 0.587077
82 1 0.529403 0.425971 0.600941
968 2 0.674979 0.387028 0.574856
1015 2 0.555353 0.437973 0.696934
6496 2 0.977835 0.399805 0.698123
81 1 0.530747 0.450352 0.591282
6434 2 0.935733 0.328395 0.797402
1167 2 0.66317 0.283246 0.583795
5810 2 0.817483 0.437421 0.654284
76 1 0.511482 0.460779 0.567848
597 2 0.549931 0.306308 0.798366
1248 2 0.626775 0.409439 0.801914
79 1 0.503746 0.373294 0.500377
5829 2 0.754288 0.297964 0.546642
95 1 0.561905 0.369784 0.516389
84 1 0.524417 0.378233 0.511276
6463 2 0.974154 0.256249 0.886235
749 2 0.551034 0.313682 0.513726
6487 2 0.773976 0.309791 0.822613
6484 2 0.74973 0.466906 0.906604
6563 2 0.936941 0.479862 0.74462
6566 2 0.982088 0.449612 0.938635
777 2 0.514967 0.250807 0.51623
18 2 0.543889 0.5643 0.404356
395 2 0.656547 0.667945 0.415441
1078 2 0.77637 0.686174 0.445839
704 2 0.55066 0.737592 0.465969
5628 2 0.590168 0.546512 0.10228
247 1 0.630732 0.556979 0.364976
220 1 0.590109 0.623999 0.487442
14 2 0.526705 0.605855 0.4168
240 1 0.620812 0.542604 0.397179
219 1 0.569729 0.612758 0.489669
4211 2 0.587442 0.648746 0.204694
278 2 0.605134 0.670093 0.431416
190 1 0.517658 0.51144 0.477271
6280 2 0.709172 0.62801 0.136427
251 2 0.565752 0.530329 0.43064
238 1 0.625229 0.519639 0.411208
6471 2 0.860335 0.522635 0.0310746
230 1 0.607154 0.615467 0.460585
218 1 0.571179 0.590406 0.483136
242 1 0.644641 0.612939 0.4316
1695 2 0.530134 0.530156 0.223076
245 1 0.626603 0.501238 0.382928
248 1 0.665743 0.617371 0.446307
453 2 0.512971 0.64169 0.455618
234 1 0.624062 0.512198 0.453856
487 2 0.679758 0.735768 0.404745
1073 2 0.580464 0.521041 0.342365
241 1 0.636643 0.591152 0.408286
246 1 0.636085 0.580009 0.367262
232 1 0.613569 0.556875 0.430657
226 1 0.603987 0.593414 0.449405
235 1 0.618075 0.580537 0.425801
236 1 0.629235 0.623364 0.460133
227 1 0.614748 0.525886 0.482162
6074 2 0.715615 0.691577 0.286932
250 2 0.677071 0.50561 0.443538
720 2 0.515924 0.510322 0.36353
886 2 0.625825 0.522993 0.277704
193 1 0.501967 0.578051 0.497294
192 1 0.51467 0.534275 0.47233
394 2 0.61333 0.631556 0.349327
5503 2 0.775724 0.591919 0.378569
1262 2 0.708779 0.586449 0.481212
573 2 0.689228 0.579558 0.383917
619 2 0.567701 0.625639 0.384968
387 2 0.667362 0.625021 0.33026
15 2 0.665884 0.551333 0.453227
249 1 0.67075 0.627313 0.487982
670 2 0.673276 0.523977 0.355218
682 2 0.579497 0.578096 0.353923
766 2 0.71305 0.63977 0.415137
6402 2 0.970369 0.664371 0.379255
1518 2 0.519407 0.674974 0.343977
776 2 0.668256 0.566657 0.274306
1810 2 0.610792 0.586825 0.263977
995 2 0.535917 0.609104 0.259703
229 1 0.611323 0.547758 0.473755
225 1 0.589295 0.579812 0.471518
1264 2 0.558103 0.667079 0.460538
224 1 0.596486 0.559502 0.494609
333 2 0.61339 0.703869 0.29627
6441 2 0.892944 0.636756 0.498313
6424 2 0.814241 0.652715 0.164331
6512 2 0.642251 0.649928 0.0174667
6524 2 0.786418 0.500319 0.211791
237 1 0.633697 0.636142 0.497979
987 2 0.50179 0.564498 0.344267
790 2 0.693004 0.677182 0.499631
210 1 0.561214 0.556138 0.529385
6518 2 0.866544 0.695112 0.623745
274 2 0.621054 0.593908 0.558753
217 1 0.583236 0.548068 0.527992
271 2 0.586423 0.59339 0.590694
202 1 0.546951 0.518913 0.533828
216 1 0.58717 0.525923 0.535906
205 1 0.53831 0.582332 0.518237
4276 2 0.761497 0.576127 0.637088
6197 2 0.739156 0.590117 0.801746
688 2 0.686006 0.594878 0.572635
270 1 0.580617 0.64601 0.595506
223 1 0.605706 0.515586 0.520182
204 1 0.542837 0.541093 0.530133
6553 2 0.968221 0.548865 0.526731
19 2 0.549834 0.590611 0.626446
1092 2 0.593599 0.694704 0.634736
784 2 0.644361 0.688879 0.509343
728 2 0.595116 0.693077 0.529737
275 1 0.638861 0.646002 0.580054
1095 2 0.731987 0.515802 0.503881
268 1 0.538232 0.643202 0.61575
209 1 0.568521 0.512614 0.548193
5193 2 0.557929 0.656293 0.971618
277 1 0.670729 0.648282 0.586769
1180 2 0.692991 0.527932 0.650441
211 1 0.557643 0.575692 0.506045
1717 2 0.63782 0.657337 0.691975
197 1 0.534252 0.503622 0.507529
276 1 0.655861 0.63912 0.558349
284 2 0.506672 0.516269 0.763735
243 1 0.655297 0.635127 0.514366
882 2 0.549539 0.690067 0.567132
1738 2 0.633716 0.555584 0.749475
126 2 0.659531 0.518035 0.540801
801 2 0.649936 0.578222 0.512724
736 2 0.607568 0.518099 0.639042
1250 2 0.538717 0.635734 0.732037
484 2 0.631238 0.550146 0.584208
206 1 0.53605 0.604333 0.522506
272 1 0.603512 0.644889 0.60354
269 1 0.56242 0.645844 0.627773
1882 2 0.719588 0.63443 0.542365
212 1 0.553896 0.61876 0.517746
267 1 0.517412 0.653445 0.626587
214 1 0.575794 0.642387 0.553044
780 2 0.505576 0.604777 0.668769
201 1 0.515614 0.624009 0.56616
434 2 0.526121 0.502914 0.63085
1306 2 0.561309 0.542736 0.637156
308 2 0.51591 0.672273 0.512302
1156 2 0.644951 0.697221 0.607084
1789 2 0.703941 0.690133 0.615774
221 1 0.593344 0.638242 0.521305
198 1 0.524781 0.547256 0.504441
1591 2 0.559468 0.559026 0.766897
1987 2 0.70761 0.629884 0.663692
5092 2 0.612911 0.623897 0.819872
1320 2 0.644825 0.602971 0.643228
200 1 0.516508 0.606439 0.542565
3476 2 0.584211 0.706865 0.797887
231 1 0.615375 0.643571 0.527242
931 2 0.546961 0.690214 0.684201
273 1 0.618159 0.648942 0.570475
355 2 0.59259 0.61048 0.688688
5924 2 0.6954 0.694508 0.795442
947 2 0.511039 0.562349 0.608735
304 2 0.507302 0.705985 0.628591
207 1 0.536222 0.635249 0.575701
6495 2 0.952954 0.612346 0.919374
199 1 0.52133 0.568479 0.503777
213 1 0.554497 0.634758 0.547932
6561 2 0.79316 0.523371 0.76985
6574 2 0.541538 0.785304 0.0614529
6274 2 0.50998 0.893829 0.410009
5329 2 0.580087 0.805228 0.489273
6327 2 0.685228 0.854603 0.364401
5321 2 0.757577 0.787941 0.272009
6364 2 0.586934 0.878658 0.265767
6007 2 0.547318 0.752723 0.304789
6494 2 0.639879 0.815477 0.153028
6470 2 0.850639 0.755961 0.351751
6519 2 0.989599 0.846177 0.499089
6557 2 0.756403 0.878687 0.449815
6555 2 0.930037 0.766104 0.158593
6583 2 0.775573 0.756955 0.106608
6586 2 0.678979 0.918701 0.158347
6590 2 0.922997 0.948212 0.0583452
6343 2 0.765229 0.830854 0.828362
6452 2 0.613595 0.819107 0.793249
6189 2 0.701287 0.815336 0.574672
6467 2 0.519949 0.841247 0.948599
1326 2 0.559085 0.759214 0.656739
6454 2 0.693273 0.791964 0.73898
2051 2 0.641431 0.76041 0.525018
6492 2 0.969569 0.86681 0.84864
6504 2 0.821716 0.891396 0.675957
6550 2 0.898238 0.913068 0.572616
