ITEM: TIMESTEP
0
ITEM: NUMBER OF ATOMS
518
ITEM: BOX BOUNDS pp pp pp
-3.0000000000000000e+01 3.0000000000000000e+01
-3.0000000000000000e+01 3.0000000000000000e+01
-1.5000000000000000e+01 1.5000000000000000e+01
ITEM: ATOMS id type xs ys zs
6 1 0.326624 0.287753 0.25
3 1 0.306285 0.299326 0.25
1 1 0.306192 0.322744 0.25
12 1 0.367159 0.287959 0.25
9 1 0.34683 0.299592 0.25
7 1 0.346761 0.323071 0.25
18 1 0.407928 0.287982 0.25
15 1 0.387515 0.299611 0.25
14 1 0.387501 0.323088 0.25
21 1 0.428373 0.29959 0.25
20 1 0.428372 0.323089 0.25
24 1 0.448835 0.287986 0.25
28 1 0.489767 0.287987 0.25
27 1 0.4693 0.299589 0.25
26 1 0.4693 0.323091 0.25
278 1 0.326624 0.311386 0.75
276 1 0.306285 0.322959 0.75
282 1 0.367159 0.311592 0.75
280 1 0.34683 0.323225 0.75
286 1 0.407928 0.311615 0.75
284 1 0.387515 0.323245 0.75
288 1 0.428373 0.323223 0.75
290 1 0.448835 0.31162 0.75
293 1 0.489767 0.31162 0.75
292 1 0.4693 0.323222 0.75
255 2 0.05 0 0.3
4 1 0.326372 0.334735 0.25
10 1 0.367112 0.334826 0.25
17 1 0.40792 0.3348 0.25
5 1 0.326427 0.358239 0.25
2 1 0.306262 0.370143 0.25
64 1 0.306283 0.393555 0.25
69 1 0.32646 0.405503 0.25
11 1 0.367116 0.358318 0.25
8 1 0.346761 0.370067 0.25
74 1 0.346776 0.393654 0.25
79 1 0.367118 0.40549 0.25
16 1 0.407919 0.35833 0.25
13 1 0.387496 0.370087 0.25
88 1 0.387496 0.393665 0.25
89 1 0.407918 0.405474 0.25
19 1 0.428369 0.370067 0.25
96 1 0.428369 0.393679 0.25
22 1 0.448833 0.334789 0.25
29 1 0.489767 0.334788 0.25
23 1 0.448833 0.358337 0.25
99 1 0.448833 0.405465 0.25
30 1 0.489767 0.358338 0.25
25 1 0.4693 0.370063 0.25
104 1 0.4693 0.393683 0.25
109 1 0.489767 0.405464 0.25
73 1 0.32646 0.429065 0.25
66 1 0.306285 0.441023 0.25
68 1 0.306285 0.464445 0.25
71 1 0.32646 0.476405 0.25
80 1 0.367119 0.429075 0.25
76 1 0.34678 0.440935 0.25
77 1 0.346781 0.464532 0.25
83 1 0.367119 0.476395 0.25
90 1 0.407918 0.429093 0.25
85 1 0.387495 0.440938 0.25
86 1 0.387495 0.46453 0.25
93 1 0.407918 0.476377 0.25
95 1 0.428369 0.440921 0.25
97 1 0.428369 0.464547 0.25
70 1 0.32646 0.499962 0.25
67 1 0.306285 0.511922 0.25
65 1 0.306285 0.535344 0.25
72 1 0.32646 0.547302 0.25
82 1 0.367119 0.499972 0.25
78 1 0.346781 0.511834 0.25
75 1 0.34678 0.535432 0.25
81 1 0.367119 0.547291 0.25
92 1 0.407918 0.499989 0.25
87 1 0.387495 0.511836 0.25
84 1 0.387495 0.535429 0.25
91 1 0.407918 0.547273 0.25
98 1 0.428369 0.51182 0.25
94 1 0.428369 0.535445 0.25
175 1 0.32646 0.570864 0.25
183 1 0.367118 0.570877 0.25
189 1 0.407918 0.570893 0.25
100 1 0.448833 0.429103 0.25
103 1 0.448833 0.476368 0.25
110 1 0.489767 0.429104 0.25
106 1 0.4693 0.440918 0.25
107 1 0.4693 0.46455 0.25
112 1 0.489767 0.476367 0.25
102 1 0.448833 0.499999 0.25
101 1 0.448833 0.547264 0.25
113 1 0.489767 0.5 0.25
108 1 0.4693 0.511816 0.25
105 1 0.4693 0.535449 0.25
111 1 0.489767 0.547263 0.25
198 1 0.448833 0.570902 0.25
208 1 0.489767 0.570903 0.25
171 1 0.306283 0.582812 0.25
170 1 0.306262 0.606223 0.25
174 1 0.326427 0.618128 0.25
179 1 0.346776 0.582713 0.25
178 1 0.346761 0.6063 0.25
182 1 0.367116 0.618049 0.25
186 1 0.387496 0.582702 0.25
185 1 0.387496 0.606279 0.25
190 1 0.407919 0.618037 0.25
194 1 0.428369 0.582687 0.25
193 1 0.428369 0.6063 0.25
173 1 0.326372 0.641631 0.25
169 1 0.306192 0.653623 0.25
181 1 0.367112 0.641541 0.25
177 1 0.346761 0.653296 0.25
191 1 0.40792 0.641567 0.25
187 1 0.387501 0.653279 0.25
195 1 0.428372 0.653278 0.25
199 1 0.448833 0.61803 0.25
203 1 0.4693 0.582684 0.25
201 1 0.4693 0.606303 0.25
207 1 0.489767 0.618029 0.25
197 1 0.448833 0.641578 0.25
206 1 0.489767 0.641578 0.25
202 1 0.4693 0.653276 0.25
275 1 0.306192 0.346377 0.75
277 1 0.326372 0.358369 0.75
279 1 0.346761 0.346704 0.75
281 1 0.367112 0.358459 0.75
283 1 0.387501 0.346721 0.75
285 1 0.40792 0.358433 0.75
287 1 0.428372 0.346722 0.75
321 1 0.326427 0.381872 0.75
315 1 0.306262 0.393777 0.75
316 1 0.306283 0.417188 0.75
332 1 0.367116 0.381951 0.75
326 1 0.346761 0.3937 0.75
327 1 0.346776 0.417287 0.75
347 1 0.407919 0.381963 0.75
341 1 0.387496 0.393721 0.75
342 1 0.387496 0.417298 0.75
348 1 0.428369 0.3937 0.75
351 1 0.428369 0.417313 0.75
289 1 0.448833 0.358422 0.75
291 1 0.4693 0.346724 0.75
294 1 0.489767 0.358422 0.75
358 1 0.448833 0.38197 0.75
365 1 0.489767 0.381971 0.75
359 1 0.4693 0.393697 0.75
360 1 0.4693 0.417316 0.75
322 1 0.32646 0.429136 0.75
333 1 0.367118 0.429123 0.75
343 1 0.407918 0.429107 0.75
325 1 0.32646 0.452698 0.75
318 1 0.306285 0.464656 0.75
320 1 0.306285 0.488078 0.75
323 1 0.32646 0.500038 0.75
334 1 0.367119 0.452709 0.75
329 1 0.34678 0.464568 0.75
331 1 0.346781 0.488166 0.75
335 1 0.367119 0.500028 0.75
344 1 0.407918 0.452727 0.75
337 1 0.387495 0.464571 0.75
340 1 0.387495 0.488164 0.75
345 1 0.407918 0.500011 0.75
349 1 0.428369 0.464555 0.75
353 1 0.428369 0.48818 0.75
324 1 0.32646 0.523595 0.75
319 1 0.306285 0.535555 0.75
317 1 0.306285 0.558977 0.75
434 1 0.32646 0.570935 0.75
336 1 0.367119 0.523605 0.75
330 1 0.346781 0.535468 0.75
328 1 0.34678 0.559065 0.75
443 1 0.367119 0.570925 0.75
346 1 0.407918 0.523623 0.75
339 1 0.387495 0.53547 0.75
338 1 0.387495 0.559062 0.75
450 1 0.407918 0.570907 0.75
352 1 0.428369 0.535453 0.75
350 1 0.428369 0.559079 0.75
354 1 0.448833 0.429098 0.75
366 1 0.489767 0.429097 0.75
355 1 0.448833 0.452736 0.75
356 1 0.448833 0.500001 0.75
367 1 0.489767 0.452737 0.75
362 1 0.4693 0.464551 0.75
364 1 0.4693 0.488184 0.75
369 1 0.489767 0.5 0.75
357 1 0.448833 0.523632 0.75
460 1 0.448833 0.570897 0.75
368 1 0.489767 0.523633 0.75
363 1 0.4693 0.53545 0.75
361 1 0.4693 0.559082 0.75
471 1 0.489767 0.570896 0.75
433 1 0.32646 0.594497 0.75
429 1 0.306283 0.606445 0.75
428 1 0.306262 0.629857 0.75
432 1 0.326427 0.641761 0.75
442 1 0.367118 0.59451 0.75
438 1 0.346776 0.606346 0.75
437 1 0.346761 0.629933 0.75
441 1 0.367116 0.641682 0.75
449 1 0.407918 0.594526 0.75
446 1 0.387496 0.606335 0.75
445 1 0.387496 0.629913 0.75
451 1 0.407919 0.64167 0.75
455 1 0.428369 0.606321 0.75
454 1 0.428369 0.629933 0.75
431 1 0.326372 0.665265 0.75
440 1 0.367112 0.665174 0.75
452 1 0.40792 0.6652 0.75
459 1 0.448833 0.594535 0.75
461 1 0.448833 0.641663 0.75
470 1 0.489767 0.594536 0.75
465 1 0.4693 0.606317 0.75
463 1 0.4693 0.629937 0.75
469 1 0.489767 0.641662 0.75
458 1 0.448833 0.665211 0.75
468 1 0.489767 0.665212 0.75
61 2 0 0.45 0
166 2 0.05 0.65 0
63 2 0.3 0.55 0.1
62 2 0 0.5 0.2
165 2 0.05 0.6 0.2
426 2 0.1 0.65 0.9
266 2 0.1 0.65 0.5
172 1 0.306285 0.677041 0.25
176 1 0.326624 0.688614 0.25
180 1 0.34683 0.676775 0.25
184 1 0.367159 0.688408 0.25
188 1 0.387515 0.676755 0.25
192 1 0.407928 0.688385 0.25
196 1 0.428373 0.676777 0.25
200 1 0.448835 0.68838 0.25
204 1 0.4693 0.676778 0.25
205 1 0.489767 0.68838 0.25
427 1 0.306192 0.677256 0.75
430 1 0.306285 0.700674 0.75
435 1 0.326624 0.712247 0.75
436 1 0.346761 0.676929 0.75
439 1 0.34683 0.700408 0.75
444 1 0.367159 0.712041 0.75
447 1 0.387501 0.676912 0.75
448 1 0.387515 0.700389 0.75
453 1 0.407928 0.712018 0.75
456 1 0.428372 0.676911 0.75
457 1 0.428373 0.70041 0.75
462 1 0.448835 0.712014 0.75
464 1 0.4693 0.676909 0.75
466 1 0.4693 0.700411 0.75
467 1 0.489767 0.712013 0.75
168 2 0.2 0.7 0.1
167 2 0.05 0.7 0.2
267 2 0.3 0.75 0.3
272 2 0.25 0.9 0.6
518 2 0.4 0.8 0.8
36 1 0.5307 0.287987 0.25
33 1 0.510233 0.299588 0.25
32 1 0.510233 0.323091 0.25
39 1 0.551167 0.299588 0.25
38 1 0.551167 0.323091 0.25
40 1 0.57163 0.287985 0.25
48 1 0.61251 0.287978 0.25
45 1 0.592085 0.299592 0.25
43 1 0.59208 0.323084 0.25
52 1 0.653192 0.287936 0.25
49 1 0.63288 0.299624 0.25
51 1 0.632887 0.323081 0.25
58 1 0.693499 0.287305 0.25
55 1 0.673546 0.299491 0.25
57 1 0.67359 0.32297 0.25
298 1 0.5307 0.31162 0.75
296 1 0.510233 0.323222 0.75
300 1 0.551167 0.323222 0.75
301 1 0.57163 0.311618 0.75
306 1 0.61251 0.311611 0.75
304 1 0.592085 0.323225 0.75
309 1 0.653192 0.311569 0.75
307 1 0.63288 0.323257 0.75
313 1 0.693499 0.310939 0.75
311 1 0.673546 0.323125 0.75
257 2 0.65 0 0.3
258 2 0.65 0.1 0.4
259 2 0.75 0.1 0.4
260 2 0.6 0.2 0.4
261 2 0.65 0.2 0.4
262 2 0.65 0.25 0.4
256 2 0.6 0.15 0.5
263 2 0.8 0.25 0.6
273 2 0.6 0.1 0.7
274 2 0.9 0.15 0.7
35 1 0.5307 0.334788 0.25
34 1 0.5307 0.358338 0.25
31 1 0.510233 0.370063 0.25
118 1 0.510233 0.393683 0.25
123 1 0.5307 0.405464 0.25
37 1 0.551167 0.370064 0.25
128 1 0.551167 0.393682 0.25
42 1 0.571632 0.33479 0.25
47 1 0.612504 0.33481 0.25
54 1 0.653252 0.334787 0.25
60 1 0.693796 0.334787 0.25
41 1 0.571631 0.358334 0.25
133 1 0.571631 0.405467 0.25
46 1 0.612503 0.358322 0.25
44 1 0.592083 0.370073 0.25
138 1 0.592082 0.393672 0.25
143 1 0.612505 0.405484 0.25
53 1 0.653228 0.358307 0.25
50 1 0.632883 0.37009 0.25
144 1 0.632881 0.393655 0.25
153 1 0.653219 0.405482 0.25
59 1 0.693745 0.358176 0.25
56 1 0.673553 0.370091 0.25
158 1 0.673543 0.393633 0.25
161 1 0.693715 0.405574 0.25
122 1 0.5307 0.429104 0.25
117 1 0.510233 0.440918 0.25
115 1 0.510233 0.46455 0.25
119 1 0.5307 0.476367 0.25
126 1 0.551167 0.440919 0.25
125 1 0.551167 0.464549 0.25
120 1 0.5307 0.5 0.25
114 1 0.510233 0.511816 0.25
116 1 0.510233 0.535449 0.25
121 1 0.5307 0.547263 0.25
124 1 0.551167 0.511817 0.25
127 1 0.551167 0.535448 0.25
213 1 0.5307 0.570903 0.25
132 1 0.571631 0.4291 0.25
129 1 0.571631 0.476371 0.25
142 1 0.612505 0.429083 0.25
136 1 0.592082 0.440928 0.25
134 1 0.592082 0.46454 0.25
139 1 0.612505 0.476387 0.25
149 1 0.653219 0.429086 0.25
147 1 0.632881 0.440946 0.25
146 1 0.632881 0.464522 0.25
151 1 0.653219 0.476385 0.25
162 1 0.693715 0.428996 0.25
156 1 0.67354 0.440955 0.25
155 1 0.67354 0.464513 0.25
159 1 0.693715 0.476472 0.25
130 1 0.571631 0.499996 0.25
131 1 0.571631 0.547267 0.25
140 1 0.612505 0.49998 0.25
135 1 0.592082 0.511827 0.25
137 1 0.592082 0.535439 0.25
141 1 0.612505 0.547283 0.25
152 1 0.653219 0.499982 0.25
145 1 0.632881 0.511845 0.25
148 1 0.632881 0.535421 0.25
150 1 0.653219 0.547281 0.25
160 1 0.693715 0.499894 0.25
154 1 0.67354 0.511854 0.25
157 1 0.67354 0.535412 0.25
163 1 0.693715 0.54737 0.25
222 1 0.571631 0.570899 0.25
233 1 0.612505 0.570883 0.25
240 1 0.653219 0.570884 0.25
248 1 0.693715 0.570793 0.25
209 1 0.510233 0.582684 0.25
210 1 0.510233 0.606303 0.25
214 1 0.5307 0.618029 0.25
217 1 0.551167 0.582685 0.25
218 1 0.551167 0.606303 0.25
215 1 0.5307 0.641578 0.25
211 1 0.510233 0.653275 0.25
219 1 0.551167 0.653276 0.25
223 1 0.571631 0.618032 0.25
226 1 0.592082 0.582694 0.25
227 1 0.592083 0.606294 0.25
231 1 0.612503 0.618045 0.25
236 1 0.632881 0.582712 0.25
237 1 0.632883 0.606277 0.25
241 1 0.653228 0.61806 0.25
243 1 0.673543 0.582734 0.25
245 1 0.673553 0.606276 0.25
249 1 0.693745 0.618191 0.25
224 1 0.571632 0.641576 0.25
232 1 0.612504 0.641556 0.25
225 1 0.59208 0.653283 0.25
242 1 0.653252 0.641579 0.25
238 1 0.632887 0.653286 0.25
250 1 0.693796 0.641579 0.25
246 1 0.67359 0.653397 0.25
295 1 0.510233 0.346725 0.75
297 1 0.5307 0.358422 0.75
299 1 0.551167 0.346724 0.75
380 1 0.5307 0.381971 0.75
375 1 0.510233 0.393696 0.75
374 1 0.510233 0.417316 0.75
386 1 0.551167 0.393697 0.75
385 1 0.551167 0.417315 0.75
302 1 0.571632 0.358424 0.75
303 1 0.59208 0.346717 0.75
305 1 0.612504 0.358444 0.75
308 1 0.632887 0.346714 0.75
310 1 0.653252 0.358421 0.75
312 1 0.67359 0.346603 0.75
314 1 0.693796 0.358421 0.75
391 1 0.571631 0.381968 0.75
398 1 0.612503 0.381955 0.75
397 1 0.592083 0.393706 0.75
396 1 0.592082 0.417306 0.75
413 1 0.653228 0.38194 0.75
408 1 0.632883 0.393723 0.75
403 1 0.632881 0.417288 0.75
424 1 0.693745 0.381809 0.75
419 1 0.673553 0.393724 0.75
418 1 0.673543 0.417266 0.75
379 1 0.5307 0.429097 0.75
378 1 0.5307 0.452737 0.75
372 1 0.510233 0.464551 0.75
370 1 0.510233 0.488184 0.75
377 1 0.5307 0.5 0.75
383 1 0.551167 0.464552 0.75
382 1 0.551167 0.488183 0.75
376 1 0.5307 0.523633 0.75
371 1 0.510233 0.53545 0.75
373 1 0.510233 0.559082 0.75
476 1 0.5307 0.570896 0.75
381 1 0.551167 0.535451 0.75
384 1 0.551167 0.559081 0.75
390 1 0.571631 0.429101 0.75
402 1 0.612505 0.429117 0.75
412 1 0.653219 0.429116 0.75
422 1 0.693715 0.429207 0.75
389 1 0.571631 0.452733 0.75
387 1 0.571631 0.500004 0.75
401 1 0.612505 0.452717 0.75
394 1 0.592082 0.464561 0.75
392 1 0.592082 0.488173 0.75
400 1 0.612505 0.50002 0.75
409 1 0.653219 0.452719 0.75
407 1 0.632881 0.464579 0.75
404 1 0.632881 0.488155 0.75
411 1 0.653219 0.500018 0.75
423 1 0.693715 0.45263 0.75
417 1 0.67354 0.464588 0.75
414 1 0.67354 0.488146 0.75
421 1 0.693715 0.500106 0.75
388 1 0.571631 0.523629 0.75
486 1 0.571631 0.5709 0.75
399 1 0.612505 0.523613 0.75
393 1 0.592082 0.53546 0.75
395 1 0.592082 0.559072 0.75
496 1 0.612505 0.570916 0.75
410 1 0.653219 0.523615 0.75
405 1 0.632881 0.535478 0.75
406 1 0.632881 0.559054 0.75
504 1 0.653219 0.570914 0.75
420 1 0.693715 0.523528 0.75
415 1 0.67354 0.535487 0.75
416 1 0.67354 0.559045 0.75
514 1 0.693715 0.571004 0.75
477 1 0.5307 0.594536 0.75
472 1 0.510233 0.606317 0.75
473 1 0.510233 0.629937 0.75
478 1 0.5307 0.641662 0.75
481 1 0.551167 0.606318 0.75
482 1 0.551167 0.629936 0.75
479 1 0.5307 0.665212 0.75
487 1 0.571631 0.594533 0.75
488 1 0.571631 0.641666 0.75
497 1 0.612505 0.594516 0.75
491 1 0.592082 0.606328 0.75
492 1 0.592083 0.629927 0.75
494 1 0.612503 0.641678 0.75
505 1 0.653219 0.594518 0.75
500 1 0.632881 0.606345 0.75
501 1 0.632883 0.62991 0.75
506 1 0.653228 0.641693 0.75
513 1 0.693715 0.594426 0.75
508 1 0.673543 0.606367 0.75
510 1 0.673553 0.629909 0.75
515 1 0.693745 0.641824 0.75
489 1 0.571632 0.66521 0.75
495 1 0.612504 0.66519 0.75
507 1 0.653252 0.665213 0.75
516 1 0.693796 0.665213 0.75
164 2 0.8 0.4 0.1
229 2 0.6 0.65 0.1
265 2 0.7 0.55 0.5
264 2 0.55 0.55 0.6
268 2 0.55 0.6 0.6
425 2 0.9 0.55 0.7
517 2 0.8 0.6 0.9
212 1 0.510233 0.676778 0.25
216 1 0.5307 0.68838 0.25
220 1 0.551167 0.676778 0.25
221 1 0.57163 0.688382 0.25
228 1 0.592085 0.676775 0.25
234 1 0.61251 0.688389 0.25
235 1 0.63288 0.676743 0.25
239 1 0.653192 0.688431 0.25
244 1 0.673546 0.676875 0.25
247 1 0.693499 0.689061 0.25
474 1 0.510233 0.676909 0.75
475 1 0.510233 0.700411 0.75
480 1 0.5307 0.712013 0.75
483 1 0.551167 0.676909 0.75
484 1 0.551167 0.700412 0.75
485 1 0.57163 0.712015 0.75
490 1 0.59208 0.676916 0.75
493 1 0.592085 0.700408 0.75
498 1 0.61251 0.712022 0.75
502 1 0.632887 0.676919 0.75
499 1 0.63288 0.700376 0.75
503 1 0.653192 0.712064 0.75
511 1 0.67359 0.67703 0.75
509 1 0.673546 0.700509 0.75
512 1 0.693499 0.712695 0.75
230 2 0.6 0.7 0.1
254 2 0.8 0.8 0.1
252 2 0.55 0.95 0.1
253 2 0.65 0.95 0.1
251 2 0.85 0.7 0.2
271 2 0.95 0.7 0.4
269 2 0.75 0.75 0.3
270 2 0.8 0.75 0.3
ITEM: TIMESTEP
1000
ITEM: NUMBER OF ATOMS
518
ITEM: BOX BOUNDS pp pp pp
-3.0000000000000000e+01 3.0000000000000000e+01
-3.0000000000000000e+01 3.0000000000000000e+01
-1.5000000000000000e+01 1.5000000000000000e+01
ITEM: ATOMS id type xs ys zs
6 1 0.328322 0.28876 0.251793
3 1 0.308692 0.300963 0.254915
1 1 0.30779 0.324197 0.246243
12 1 0.36898 0.289247 0.248887
9 1 0.348172 0.300892 0.247773
7 1 0.348397 0.324492 0.250859
18 1 0.408854 0.289859 0.250315
15 1 0.38893 0.301456 0.246065
14 1 0.388825 0.324582 0.243805
21 1 0.429082 0.301456 0.257151
20 1 0.429098 0.325192 0.250286
24 1 0.449779 0.289836 0.254446
28 1 0.490448 0.290457 0.250826
27 1 0.470282 0.301547 0.258629
26 1 0.469665 0.325064 0.252469
278 1 0.328145 0.312127 0.747549
276 1 0.308236 0.324168 0.744234
282 1 0.368227 0.312822 0.749749
280 1 0.347827 0.324194 0.754533
286 1 0.409082 0.31329 0.752205
284 1 0.388373 0.324788 0.753961
288 1 0.429317 0.324969 0.754307
290 1 0.449621 0.313237 0.748132
293 1 0.490429 0.313817 0.749749
292 1 0.469907 0.325213 0.742697
4 1 0.328134 0.335923 0.242695
10 1 0.369045 0.335769 0.252989
17 1 0.408732 0.336301 0.249769
5 1 0.328206 0.359101 0.240236
2 1 0.308383 0.371258 0.245889
64 1 0.308404 0.394148 0.256964
69 1 0.328676 0.406039 0.260635
11 1 0.36845 0.358754 0.247478
8 1 0.348359 0.370328 0.252246
74 1 0.348122 0.394178 0.249175
79 1 0.368713 0.405495 0.254649
16 1 0.408285 0.359133 0.24282
13 1 0.388537 0.370731 0.250622
88 1 0.388889 0.394196 0.247901
89 1 0.40925 0.405125 0.255119
19 1 0.42868 0.370748 0.24615
96 1 0.429188 0.393969 0.246153
22 1 0.449723 0.336674 0.25709
29 1 0.490199 0.336595 0.24941
23 1 0.449421 0.359778 0.246488
99 1 0.449217 0.405573 0.254329
30 1 0.490038 0.359818 0.244104
25 1 0.469951 0.371459 0.246546
104 1 0.469742 0.39449 0.245184
109 1 0.490114 0.405907 0.247482
73 1 0.328412 0.429852 0.255826
66 1 0.308224 0.44176 0.251752
68 1 0.308519 0.464806 0.248504
71 1 0.328485 0.476638 0.248525
80 1 0.368728 0.429101 0.252761
76 1 0.348787 0.440664 0.246458
77 1 0.348839 0.464396 0.244606
83 1 0.369145 0.476443 0.24422
90 1 0.40905 0.428918 0.254713
85 1 0.38898 0.440988 0.249316
86 1 0.388923 0.464768 0.250249
93 1 0.408847 0.476452 0.242458
95 1 0.428948 0.441241 0.256133
97 1 0.429132 0.46482 0.248691
70 1 0.328375 0.500165 0.248693
67 1 0.308252 0.512188 0.252359
65 1 0.307791 0.535546 0.249385
72 1 0.328727 0.547028 0.246372
82 1 0.36888 0.49954 0.255144
78 1 0.348641 0.511673 0.253564
75 1 0.348843 0.535131 0.252239
81 1 0.368976 0.546463 0.247314
92 1 0.409004 0.499321 0.255058
87 1 0.388884 0.511333 0.250336
84 1 0.388621 0.534519 0.25786
91 1 0.408969 0.546122 0.249348
98 1 0.429207 0.511325 0.25023
94 1 0.429817 0.534978 0.253093
175 1 0.328299 0.570539 0.251022
183 1 0.368329 0.570247 0.254615
189 1 0.408323 0.570114 0.247456
100 1 0.449114 0.429242 0.253275
103 1 0.449417 0.476452 0.248828
110 1 0.489956 0.429595 0.248574
106 1 0.469536 0.441339 0.25723
107 1 0.469781 0.465199 0.253779
112 1 0.490187 0.476484 0.247462
102 1 0.449409 0.499862 0.253525
101 1 0.449615 0.54687 0.243831
113 1 0.489807 0.499953 0.247466
108 1 0.469439 0.511767 0.250589
105 1 0.46997 0.535356 0.245517
111 1 0.489918 0.547234 0.246109
198 1 0.449363 0.570195 0.242513
208 1 0.489858 0.57028 0.252856
171 1 0.307906 0.582377 0.248913
170 1 0.307597 0.605731 0.246707
174 1 0.327886 0.61751 0.246801
179 1 0.348434 0.582266 0.247779
178 1 0.348114 0.605594 0.253944
182 1 0.368652 0.617038 0.252493
186 1 0.388535 0.582238 0.255236
185 1 0.388771 0.605627 0.248807
190 1 0.408625 0.617371 0.253787
194 1 0.429076 0.581763 0.249209
193 1 0.428703 0.605577 0.244214
173 1 0.327712 0.640578 0.253794
169 1 0.307936 0.65309 0.25179
181 1 0.36845 0.64009 0.248789
177 1 0.348192 0.652094 0.248892
191 1 0.408309 0.640151 0.242562
187 1 0.388703 0.651445 0.251665
195 1 0.428711 0.651575 0.238954
199 1 0.44942 0.61707 0.245927
203 1 0.47 0.582173 0.244261
201 1 0.46967 0.605396 0.255231
207 1 0.490583 0.617175 0.250056
197 1 0.448772 0.640391 0.250274
206 1 0.490088 0.640705 0.256117
202 1 0.469476 0.651635 0.250081
275 1 0.307183 0.347028 0.749631
277 1 0.327371 0.359303 0.752303
279 1 0.347708 0.34753 0.746867
281 1 0.368026 0.35966 0.752789
283 1 0.388376 0.347889 0.745419
285 1 0.408411 0.359969 0.754138
287 1 0.428941 0.348388 0.74613
321 1 0.327997 0.382506 0.745499
315 1 0.308222 0.394409 0.75459
316 1 0.308298 0.418073 0.755738
332 1 0.368098 0.382484 0.741926
326 1 0.348201 0.394343 0.741991
327 1 0.348452 0.417425 0.748364
347 1 0.408395 0.383181 0.747271
341 1 0.38767 0.394263 0.752602
342 1 0.388132 0.417838 0.755113
348 1 0.428578 0.394353 0.755774
351 1 0.428307 0.417796 0.757268
289 1 0.449581 0.359924 0.749627
291 1 0.46971 0.34885 0.738606
294 1 0.48964 0.359587 0.750404
358 1 0.448813 0.383327 0.746499
365 1 0.489243 0.382843 0.74318
359 1 0.469461 0.39466 0.754073
360 1 0.469159 0.418205 0.747822
322 1 0.328065 0.429659 0.746933
333 1 0.368356 0.429295 0.746057
343 1 0.40801 0.429194 0.752524
325 1 0.328552 0.452805 0.750367
318 1 0.308471 0.465071 0.752831
320 1 0.308131 0.488131 0.749794
323 1 0.328089 0.500319 0.745451
334 1 0.368044 0.452888 0.745552
329 1 0.348206 0.464854 0.740598
331 1 0.34808 0.488319 0.743566
335 1 0.367838 0.499738 0.75448
344 1 0.408578 0.452828 0.755306
337 1 0.38849 0.464618 0.746577
340 1 0.387954 0.488255 0.750232
345 1 0.408599 0.499913 0.750554
349 1 0.429067 0.464758 0.748587
353 1 0.428751 0.48803 0.754564
324 1 0.328352 0.523589 0.753465
319 1 0.308659 0.536107 0.756231
317 1 0.308478 0.559045 0.748509
434 1 0.328142 0.570814 0.738981
336 1 0.368004 0.523393 0.757671
330 1 0.348453 0.535508 0.749114
328 1 0.348519 0.559106 0.743946
443 1 0.368221 0.571094 0.751952
346 1 0.408882 0.523041 0.755513
339 1 0.388324 0.534999 0.759567
338 1 0.388331 0.558574 0.751269
450 1 0.408393 0.570767 0.753814
352 1 0.428875 0.534866 0.746801
350 1 0.428574 0.558659 0.746896
354 1 0.448995 0.429606 0.755449
366 1 0.48978 0.429842 0.749336
355 1 0.449278 0.453312 0.75263
356 1 0.449126 0.500094 0.74563
367 1 0.490005 0.453043 0.743112
362 1 0.46942 0.464818 0.742859
364 1 0.469096 0.487846 0.752371
369 1 0.489532 0.499852 0.746473
357 1 0.449295 0.523532 0.755143
460 1 0.449295 0.570686 0.746932
368 1 0.48999 0.523489 0.754631
363 1 0.469777 0.53504 0.747401
361 1 0.469447 0.558685 0.752828
471 1 0.489482 0.570705 0.745643
433 1 0.328049 0.594623 0.739801
429 1 0.308197 0.606916 0.746208
428 1 0.307392 0.630038 0.752696
432 1 0.327396 0.6412 0.758387
442 1 0.368198 0.594423 0.743369
438 1 0.34796 0.605775 0.752456
437 1 0.347792 0.62944 0.751069
441 1 0.368436 0.640343 0.753511
449 1 0.408645 0.594346 0.747415
446 1 0.388319 0.605777 0.754626
445 1 0.388482 0.628956 0.744577
451 1 0.408941 0.640762 0.745294
455 1 0.42856 0.606311 0.751993
454 1 0.429185 0.629444 0.746411
431 1 0.327342 0.664764 0.756766
440 1 0.368679 0.663929 0.755553
452 1 0.408521 0.663278 0.752077
459 1 0.449062 0.594186 0.753933
461 1 0.449253 0.640532 0.747164
470 1 0.489672 0.594148 0.754171
465 1 0.469189 0.60575 0.747459
463 1 0.469464 0.629122 0.753383
469 1 0.489584 0.64072 0.745677
458 1 0.449007 0.663461 0.755147
468 1 0.489819 0.663904 0.754538
266 2 0.102349 0.65079 0.499631
166 2 0.0447527 0.649964 0.0130856
63 2 0.300167 0.551356 0.0972421
62 2 0.000700839 0.500521 0.200823
165 2 0.0507 0.599496 0.20418
426 2 0.105326 0.649982 0.883394
172 1 0.308427 0.676121 0.246179
176 1 0.328594 0.687186 0.249708
180 1 0.348531 0.675342 0.25329
184 1 0.369269 0.686709 0.251266
188 1 0.389081 0.674368 0.250531
192 1 0.408954 0.686154 0.246023
196 1 0.428742 0.674921 0.240847
200 1 0.448914 0.685991 0.250708
204 1 0.469136 0.674885 0.258259
205 1 0.489461 0.686671 0.251822
427 1 0.307196 0.676923 0.74972
430 1 0.308325 0.700271 0.743484
435 1 0.328707 0.711624 0.746544
436 1 0.347784 0.67534 0.749634
439 1 0.348111 0.69913 0.754014
444 1 0.368366 0.710611 0.751968
447 1 0.388903 0.675124 0.748748
448 1 0.388768 0.698614 0.753894
453 1 0.408626 0.709601 0.742374
456 1 0.428672 0.674626 0.750832
457 1 0.428557 0.697743 0.743551
462 1 0.448711 0.709343 0.742669
464 1 0.469047 0.674967 0.749876
466 1 0.468593 0.698509 0.753827
467 1 0.489516 0.709808 0.751568
168 2 0.198096 0.698433 0.101116
167 2 0.0512777 0.699891 0.19719
267 2 0.297237 0.749434 0.294633
272 2 0.252481 0.899328 0.597444
518 2 0.400238 0.799018 0.80201
255 2 0.0502684 0.997752 0.300025
36 1 0.530223 0.290321 0.247602
33 1 0.510275 0.301821 0.242658
32 1 0.510255 0.325175 0.242557
39 1 0.550392 0.301898 0.249238
38 1 0.55032 0.324979 0.256914
40 1 0.570761 0.290045 0.252159
48 1 0.611968 0.289891 0.241947
45 1 0.591362 0.301556 0.246792
43 1 0.591736 0.324728 0.255342
52 1 0.651929 0.290165 0.250944
49 1 0.63228 0.301961 0.243538
51 1 0.631699 0.324768 0.251603
58 1 0.691104 0.289947 0.244912
55 1 0.671948 0.300678 0.260396
57 1 0.671689 0.323597 0.259574
298 1 0.530673 0.313828 0.746618
296 1 0.510817 0.325203 0.755254
300 1 0.550991 0.325731 0.746368
301 1 0.571259 0.314226 0.749944
306 1 0.61218 0.313725 0.750913
304 1 0.591832 0.325254 0.752313
309 1 0.651334 0.313505 0.745293
307 1 0.631629 0.325391 0.744095
313 1 0.69194 0.313628 0.757296
311 1 0.672075 0.324993 0.746146
257 2 0.650814 0.000934559 0.301005
258 2 0.649182 0.0979701 0.397505
259 2 0.747277 0.0997641 0.402775
260 2 0.569729 0.206847 0.385526
261 2 0.678037 0.174038 0.393978
262 2 0.65222 0.281057 0.399087
256 2 0.598766 0.145746 0.511594
263 2 0.798228 0.248852 0.598226
273 2 0.599035 0.101503 0.696894
274 2 0.89935 0.149445 0.696929
35 1 0.530717 0.336545 0.249049
34 1 0.530158 0.359822 0.254054
31 1 0.510335 0.371174 0.244882
118 1 0.510626 0.394415 0.242582
123 1 0.530795 0.406066 0.24679
37 1 0.550613 0.3713 0.254032
128 1 0.551126 0.394317 0.246523
42 1 0.571116 0.336274 0.256407
47 1 0.611516 0.335827 0.245082
54 1 0.652133 0.335707 0.254672
60 1 0.6904 0.334922 0.246542
41 1 0.570671 0.359671 0.25468
133 1 0.571061 0.406122 0.254504
46 1 0.611296 0.358856 0.24916
44 1 0.590891 0.370716 0.247293
138 1 0.591142 0.394128 0.245921
143 1 0.611234 0.405621 0.253867
53 1 0.651786 0.358941 0.247919
50 1 0.631526 0.370569 0.244991
144 1 0.63182 0.393672 0.253205
153 1 0.651847 0.405878 0.248071
59 1 0.691548 0.358378 0.246278
56 1 0.67185 0.370426 0.252808
158 1 0.671767 0.394015 0.255569
161 1 0.692107 0.405622 0.253549
122 1 0.530679 0.429359 0.254154
117 1 0.510697 0.441766 0.250048
115 1 0.51045 0.465451 0.252721
119 1 0.530788 0.476475 0.245832
126 1 0.55137 0.44096 0.255739
125 1 0.550443 0.464751 0.256591
120 1 0.530698 0.49993 0.253161
114 1 0.510546 0.511472 0.243552
116 1 0.509793 0.535098 0.252148
121 1 0.530401 0.547047 0.25086
124 1 0.55126 0.511728 0.248549
127 1 0.551212 0.535355 0.255576
213 1 0.530383 0.57067 0.258759
132 1 0.571524 0.429603 0.248963
129 1 0.571031 0.47601 0.248602
142 1 0.611094 0.429247 0.248352
136 1 0.591438 0.441513 0.253185
134 1 0.591405 0.464463 0.244501
139 1 0.61168 0.476574 0.249185
149 1 0.651513 0.429536 0.25248
147 1 0.631427 0.440905 0.247393
146 1 0.631374 0.464564 0.254354
151 1 0.651712 0.476427 0.253015
162 1 0.691932 0.428991 0.247661
156 1 0.671612 0.441255 0.244055
155 1 0.671802 0.464616 0.253809
159 1 0.691991 0.476278 0.244381
130 1 0.571083 0.499419 0.251616
131 1 0.571191 0.546921 0.244557
140 1 0.612107 0.499863 0.245563
135 1 0.591611 0.511264 0.245816
137 1 0.591925 0.535098 0.24403
141 1 0.612039 0.546846 0.243604
152 1 0.651627 0.499775 0.256989
145 1 0.632024 0.51179 0.249594
148 1 0.631419 0.535327 0.251658
150 1 0.651332 0.546808 0.258131
160 1 0.690764 0.499772 0.244227
154 1 0.671228 0.512018 0.252061
157 1 0.671494 0.53549 0.250545
163 1 0.691464 0.547016 0.242123
222 1 0.571307 0.56996 0.252721
233 1 0.611815 0.569709 0.252955
240 1 0.651693 0.570218 0.258611
248 1 0.691472 0.570413 0.244297
209 1 0.510242 0.582415 0.25044
210 1 0.510338 0.605648 0.259833
214 1 0.530661 0.616937 0.248852
217 1 0.55097 0.582258 0.2493
218 1 0.550837 0.60566 0.257915
215 1 0.529822 0.640434 0.253438
211 1 0.509804 0.651267 0.243312
219 1 0.550525 0.651632 0.248683
223 1 0.570915 0.616712 0.246137
226 1 0.591562 0.581469 0.243254
227 1 0.591307 0.605172 0.252463
231 1 0.611904 0.616788 0.247782
236 1 0.631955 0.58156 0.250387
237 1 0.632251 0.605082 0.252328
241 1 0.651923 0.617611 0.248737
243 1 0.671509 0.581964 0.252723
245 1 0.67173 0.605216 0.243483
249 1 0.691184 0.618219 0.239571
224 1 0.571043 0.639879 0.255985
232 1 0.611625 0.639943 0.255506
225 1 0.591491 0.651389 0.249272
242 1 0.65204 0.641186 0.252271
238 1 0.631516 0.65187 0.25795
250 1 0.692094 0.641273 0.247422
246 1 0.672285 0.652375 0.257421
295 1 0.510429 0.348365 0.749572
297 1 0.530366 0.360307 0.756376
299 1 0.550867 0.34904 0.752513
380 1 0.530332 0.382813 0.747097
375 1 0.510048 0.39403 0.753032
374 1 0.510046 0.417864 0.745815
386 1 0.550627 0.394451 0.752724
385 1 0.550906 0.417909 0.748002
302 1 0.571232 0.36049 0.750542
303 1 0.591219 0.348436 0.746955
305 1 0.611376 0.359916 0.744592
308 1 0.631302 0.347979 0.749957
310 1 0.651329 0.3594 0.755075
312 1 0.671595 0.347941 0.752312
314 1 0.69113 0.359954 0.744013
391 1 0.570629 0.38302 0.74418
398 1 0.611241 0.382726 0.749025
397 1 0.590834 0.394084 0.743145
396 1 0.591578 0.417532 0.743418
413 1 0.651514 0.382455 0.759399
408 1 0.631196 0.394029 0.753537
403 1 0.63134 0.417691 0.754727
424 1 0.691566 0.383083 0.746734
419 1 0.671641 0.39413 0.756799
418 1 0.671761 0.417977 0.756208
379 1 0.530399 0.429363 0.758326
378 1 0.530523 0.45299 0.757039
372 1 0.510219 0.464793 0.749148
370 1 0.509964 0.488027 0.753763
377 1 0.530597 0.500151 0.753573
383 1 0.550869 0.464905 0.758063
382 1 0.551103 0.488255 0.750513
376 1 0.530407 0.523454 0.743368
371 1 0.510028 0.535571 0.745505
373 1 0.509979 0.558997 0.752097
476 1 0.53041 0.57086 0.744665
381 1 0.550913 0.535088 0.740051
384 1 0.55065 0.558093 0.749264
390 1 0.571511 0.429238 0.750643
402 1 0.611891 0.429544 0.744028
412 1 0.651493 0.429636 0.749834
422 1 0.692201 0.429859 0.751794
389 1 0.570782 0.452955 0.74919
387 1 0.571313 0.50009 0.749347
401 1 0.611207 0.45295 0.750773
394 1 0.59134 0.464871 0.746459
392 1 0.591628 0.488478 0.751895
400 1 0.611669 0.499908 0.75026
409 1 0.65146 0.453239 0.753041
407 1 0.631392 0.46512 0.746965
404 1 0.631257 0.488047 0.760276
411 1 0.651728 0.500325 0.757664
423 1 0.69228 0.453108 0.74415
417 1 0.671717 0.464887 0.745666
414 1 0.671997 0.488196 0.752843
421 1 0.691268 0.500302 0.74475
388 1 0.571218 0.523493 0.742344
486 1 0.570991 0.570253 0.747359
399 1 0.611151 0.52311 0.75531
393 1 0.59125 0.535466 0.747319
395 1 0.590785 0.558598 0.754689
496 1 0.611646 0.570498 0.755651
410 1 0.651626 0.523706 0.752417
405 1 0.631448 0.535085 0.756964
406 1 0.631722 0.558351 0.749746
504 1 0.651568 0.570668 0.752306
420 1 0.691649 0.523668 0.744986
415 1 0.671573 0.535494 0.752563
416 1 0.671802 0.558874 0.746398
514 1 0.692108 0.5708 0.753249
477 1 0.530486 0.593847 0.756885
472 1 0.510259 0.605731 0.748053
473 1 0.510005 0.629345 0.752746
478 1 0.530887 0.640816 0.753864
481 1 0.551213 0.605747 0.758037
482 1 0.551088 0.62901 0.748782
479 1 0.530863 0.66345 0.747213
487 1 0.571622 0.593383 0.756542
488 1 0.57129 0.640726 0.751852
497 1 0.612095 0.594507 0.754715
491 1 0.591864 0.605645 0.748733
492 1 0.591344 0.629246 0.751464
494 1 0.611745 0.640586 0.746379
505 1 0.651584 0.594566 0.75086
500 1 0.631683 0.606159 0.744299
501 1 0.63158 0.629375 0.75266