ITEM: TIMESTEP
0
ITEM: NUMBER OF ATOMS
8
ITEM: BOX BOUNDS pp pp pp
-1.2500000000000000e+01 1.2500000000000000e+01
-1.2500000000000000e+01 1.2500000000000000e+01
-1.5000000000000000e+01 1.5000000000000000e+01
ITEM: ATOMS id type xs ys zs
1 2 0.26 0.26 0.4
2 2 0.86 0.26 0.5
6 2 0.62 0.98 0.5
8 2 0.74 0.98 0.6
4 2 0.14 0.98 0.9
5 2 0.62 0.74 0.9
7 2 0.62 0.98 0.8
3 2 0.98 0.62 0.8
ITEM: TIMESTEP
100
ITEM: NUMBER OF ATOMS
8
ITEM: BOX BOUNDS pp pp pp
-1.2500000000000000e+01 1.2500000000000000e+01
-1.2500000000000000e+01 1.2500000000000000e+01
-1.5000000000000000e+01 1.5000000000000000e+01
ITEM: ATOMS id type xs ys zs
1 2 0.257022 0.261975 0.396853
2 2 0.857549 0.261361 0.501498
6 2 0.618858 0.981957 0.500883
8 2 0.738596 0.979597 0.601216
4 2 0.140856 0.977569 0.898861
5 2 0.621881 0.739897 0.899898
7 2 0.621429 0.981987 0.800566
3 2 0.983809 0.615656 0.800226
ITEM: TIMESTEP
200
ITEM: NUMBER OF ATOMS
8
ITEM: BOX BOUNDS pp pp pp
-1.2500000000000000e+01 1.2500000000000000e+01
-1.2500000000000000e+01 1.2500000000000000e+01
-1.5000000000000000e+01 1.5000000000000000e+01
ITEM: ATOMS id type xs ys zs
1 2 0.254101 0.263912 0.393766
2 2 0.855141 0.262687 0.50297
6 2 0.61698 0.983895 0.501115
8 2 0.737977 0.979193 0.603054
4 2 0.141695 0.975184 0.897742
5 2 0.623728 0.739808 0.899792
7 2 0.622836 0.983924 0.801112
3 2 0.987543 0.611397 0.800447
ITEM: TIMESTEP
300
ITEM: NUMBER OF ATOMS
8
ITEM: BOX BOUNDS pp pp pp
-1.2500000000000000e+01 1.2500000000000000e+01
-1.2500000000000000e+01 1.2500000000000000e+01
-1.5000000000000000e+01 1.5000000000000000e+01
ITEM: ATOMS id type xs ys zs
1 2 0.251256 0.265797 0.390762
2 2 0.852793 0.263969 0.504405
6 2 0.614471 0.985811 0.500771
8 2 0.738053 0.97878 0.605427
4 2 0.142511 0.972859 0.896653
5 2 0.625528 0.739734 0.899683
7 2 0.624212 0.985797 0.801636
3 2 0.991176 0.607254 0.800664
ITEM: TIMESTEP
400
ITEM: NUMBER OF ATOMS
8
ITEM: BOX BOUNDS pp pp pp
-1.2500000000000000e+01 1.2500000000000000e+01
-1.2500000000000000e+01 1.2500000000000000e+01
-1.5000000000000000e+01 1.5000000000000000e+01
ITEM: ATOMS id type xs ys zs
1 2 0.248538 0.267597 0.387894
2 2 0.850547 0.265184 0.505778
6 2 0.611531 0.987674 0.499982
8 2 0.738671 0.978359 0.608164
4 2 0.14329 0.970638 0.895612
5 2 0.627248 0.739676 0.899572
7 2 0.625531 0.987572 0.802128
3 2 0.994644 0.6033 0.800871
ITEM: TIMESTEP
500
ITEM: NUMBER OF ATOMS
8
ITEM: BOX BOUNDS pp pp pp
-1.2500000000000000e+01 1.2500000000000000e+01
-1.2500000000000000e+01 1.2500000000000000e+01
-1.5000000000000000e+01 1.5000000000000000e+01
ITEM: ATOMS id type xs ys zs
1 2 0.24584 0.269382 0.385048
2 2 0.848315 0.26638 0.507142
6 2 0.608203 0.989556 0.498853
8 2 0.739692 0.977918 0.611238
4 2 0.144062 0.968432 0.894578
5 2 0.628958 0.739631 0.899455
7 2 0.626846 0.989321 0.802609
3 2 0.998085 0.599378 0.801077
ITEM: TIMESTEP
600
ITEM: NUMBER OF ATOMS
8
ITEM: BOX BOUNDS pp pp pp
-1.2500000000000000e+01 1.2500000000000000e+01
-1.2500000000000000e+01 1.2500000000000000e+01
-1.5000000000000000e+01 1.5000000000000000e+01
ITEM: ATOMS id type xs ys zs
1 2 0.243261 0.271088 0.38233
2 2 0.846178 0.267514 0.508448
6 2 0.604748 0.991382 0.49754
8 2 0.740945 0.977478 0.614419
4 2 0.144799 0.966322 0.89359
5 2 0.630593 0.739601 0.899338
7 2 0.628106 0.99098 0.803062
3 2 1.00137 0.595634 0.801275
ITEM: TIMESTEP
700
ITEM: NUMBER OF ATOMS
8
ITEM: BOX BOUNDS pp pp pp
-1.2500000000000000e+01 1.2500000000000000e+01
-1.2500000000000000e+01 1.2500000000000000e+01
-1.5000000000000000e+01 1.5000000000000000e+01
ITEM: ATOMS id type xs ys zs
1 2 0.240725 0.272764 0.379658
2 2 0.844075 0.26862 0.509733
6 2 0.601163 0.993199 0.496088
8 2 0.742365 0.977031 0.617715
4 2 0.145523 0.964247 0.892617
5 2 0.632202 0.739585 0.899216
7 2 0.629349 0.992597 0.803503
3 2 1.0046 0.591956 0.801469
ITEM: TIMESTEP
800
ITEM: NUMBER OF ATOMS
8
ITEM: BOX BOUNDS pp pp pp
-1.2500000000000000e+01 1.2500000000000000e+01
-1.2500000000000000e+01 1.2500000000000000e+01
-1.5000000000000000e+01 1.5000000000000000e+01
ITEM: ATOMS id type xs ys zs
1 2 0.238226 0.274415 0.377028
2 2 0.842 0.2697 0.511001
6 2 0.597517 0.995006 0.494561
8 2 0.743881 0.976583 0.621067
4 2 0.146235 0.962201 0.891659
5 2 0.633788 0.739581 0.89909
7 2 0.630577 0.994177 0.803933
3 2 0.00777604 0.588336 0.801661
ITEM: TIMESTEP
900
ITEM: NUMBER OF ATOMS
8
ITEM: BOX BOUNDS pp pp pp
-1.2500000000000000e+01 1.2500000000000000e+01
-1.2500000000000000e+01 1.2500000000000000e+01
-1.5000000000000000e+01 1.5000000000000000e+01
ITEM: ATOMS id type xs ys zs
1 2 0.235741 0.276056 0.374413
2 2 0.839933 0.270766 0.512264
6 2 0.593821 0.996814 0.492982
8 2 0.74546 0.976134 0.624466
4 2 0.146943 0.960166 0.890705
5 2 0.635367 0.739591 0.898958
7 2 0.6318 0.995735 0.804358
3 2 0.0109348 0.584738 0.801852
ITEM: TIMESTEP
1000
ITEM: NUMBER OF ATOMS
8
ITEM: BOX BOUNDS pp pp pp
-1.2500000000000000e+01 1.2500000000000000e+01
-1.2500000000000000e+01 1.2500000000000000e+01
-1.5000000000000000e+01 1.5000000000000000e+01
ITEM: ATOMS id type xs ys zs
1 2 0.233263 0.277692 0.371806
2 2 0.837869 0.27182 0.513526
6 2 0.590096 0.998626 0.491375
8 2 0.747078 0.975684 0.627893
4 2 0.147648 0.958134 0.889754
5 2 0.636942 0.739615 0.898821
7 2 0.63302 0.997276 0.804783
3 2 0.0140832 0.581153 0.802043
ITEM: TIMESTEP
1100
ITEM: NUMBER OF ATOMS
8
ITEM: BOX BOUNDS pp pp pp
-1.2500000000000000e+01 1.2500000000000000e+01
-1.2500000000000000e+01 1.2500000000000000e+01
-1.5000000000000000e+01 1.5000000000000000e+01
ITEM: ATOMS id type xs ys zs
1 2 0.230868 0.279272 0.369288
2 2 0.835873 0.27283 0.514747
6 2 0.586481 1.00038 0.489808
8 2 0.748662 0.975252 0.631218
4 2 0.148329 0.956169 0.888834
5 2 0.638466 0.73965 0.898682
7 2 0.634199 0.998753 0.805195
3 2 0.0171236 0.577692 0.802228
ITEM: TIMESTEP
1200
ITEM: NUMBER OF ATOMS
8
ITEM: BOX BOUNDS pp pp pp
-1.2500000000000000e+01 1.2500000000000000e+01
-1.2500000000000000e+01 1.2500000000000000e+01
-1.5000000000000000e+01 1.5000000000000000e+01
ITEM: ATOMS id type xs ys zs
1 2 0.228373 0.280916 0.366667
2 2 0.833791 0.273874 0.51602
6 2 0.582712 0.00221428 0.488173
8 2 0.750323 0.974804 0.634682
4 2 0.149036 0.954122 0.887876
5 2 0.640053 0.7397 0.898531
7 2 0.635423 1.00028 0.80563
3 2 0.0202875 0.574092 0.802421
ITEM: TIMESTEP
1300
ITEM: NUMBER OF ATOMS
8
ITEM: BOX BOUNDS pp pp pp
-1.2500000000000000e+01 1.2500000000000000e+01
-1.2500000000000000e+01 1.2500000000000000e+01
-1.5000000000000000e+01 1.5000000000000000e+01
ITEM: ATOMS id type xs ys zs
1 2 0.225905 0.282542 0.364075
2 2 0.831729 0.274899 0.517281
6 2 0.578987 0.00402987 0.48656
8 2 0.751971 0.974364 0.638101
4 2 0.149736 0.952096 0.886927
5 2 0.641625 0.739763 0.898376
7 2 0.63663 1.00178 0.806068
3 2 0.0234167 0.570531 0.802612
ITEM: TIMESTEP
1400
ITEM: NUMBER OF ATOMS
8
ITEM: BOX BOUNDS pp pp pp
-1.2500000000000000e+01 1.2500000000000000e+01
-1.2500000000000000e+01 1.2500000000000000e+01
-1.5000000000000000e+01 1.5000000000000000e+01
ITEM: ATOMS id type xs ys zs
1 2 0.223444 0.284163 0.361491
2 2 0.82967 0.275912 0.518541
6 2 0.575281 0.00584192 0.484958
8 2 0.753616 0.973928 0.641494
4 2 0.150432 0.950073 0.88598
5 2 0.643194 0.739839 0.898215
7 2 0.637827 1.00326 0.806517
3 2 0.0265355 0.566984 0.802802
ITEM: TIMESTEP
1500
ITEM: NUMBER OF ATOMS
8
ITEM: BOX BOUNDS pp pp pp
-1.2500000000000000e+01 1.2500000000000000e+01
-1.2500000000000000e+01 1.2500000000000000e+01
-1.5000000000000000e+01 1.5000000000000000e+01
ITEM: ATOMS id type xs ys zs
1 2 0.220976 0.285787 0.358903
2 2 0.827604 0.27692 0.519805
6 2 0.571578 0.00765906 0.483363
8 2 0.755268 0.973494 0.644872
4 2 0.15113 0.948045 0.885031
5 2 0.644767 0.739928 0.898048
7 2 0.639016 1.00473 0.806984
3 2 0.0296597 0.563431 0.802993
ITEM: TIMESTEP
1600
ITEM: NUMBER OF ATOMS
8
ITEM: BOX BOUNDS pp pp pp
-1.2500000000000000e+01 1.2500000000000000e+01
-1.2500000000000000e+01 1.2500000000000000e+01
-1.5000000000000000e+01 1.5000000000000000e+01
ITEM: ATOMS id type xs ys zs
1 2 0.218502 0.287415 0.356308
2 2 0.825531 0.277924 0.521075
6 2 0.567877 0.009482 0.481774
7 2 0.640195 0.00620594 0.807472
8 2 0.75693 0.973061 0.648233
4 2 0.151828 0.94601 0.884078
5 2 0.646346 0.740031 0.897875
3 2 0.032791 0.559871 0.803185
ITEM: TIMESTEP
1700
ITEM: NUMBER OF ATOMS
8
ITEM: BOX BOUNDS pp pp pp
-1.2500000000000000e+01 1.2500000000000000e+01
-1.2500000000000000e+01 1.2500000000000000e+01
-1.5000000000000000e+01 1.5000000000000000e+01
ITEM: ATOMS id type xs ys zs
1 2 0.216046 0.289031 0.353733
2 2 0.82347 0.278913 0.522337
6 2 0.564214 0.0112928 0.480207
7 2 0.641348 0.00765987 0.807982
8 2 0.758588 0.97263 0.651537
4 2 0.152521 0.943988 0.883132
5 2 0.647914 0.740147 0.897696
3 2 0.0358988 0.556339 0.803376
ITEM: TIMESTEP
1800
ITEM: NUMBER OF ATOMS
8
ITEM: BOX BOUNDS pp pp pp
-1.2500000000000000e+01 1.2500000000000000e+01
-1.2500000000000000e+01 1.2500000000000000e+01
-1.5000000000000000e+01 1.5000000000000000e+01
ITEM: ATOMS id type xs ys zs
1 2 0.21357 0.290658 0.351139
2 2 0.821391 0.279902 0.52361
6 2 0.560535 0.013118 0.478638
7 2 0.642489 0.00911935 0.808526
8 2 0.760272 0.972195 0.65483
4 2 0.153218 0.941949 0.882178
5 2 0.649496 0.740277 0.897511
3 2 0.039029 0.552782 0.803568
ITEM: TIMESTEP
1900
ITEM: NUMBER OF ATOMS
8
ITEM: BOX BOUNDS pp pp pp
-1.2500000000000000e+01 1.2500000000000000e+01
-1.2500000000000000e+01 1.2500000000000000e+01
-1.5000000000000000e+01 1.5000000000000000e+01
ITEM: ATOMS id type xs ys zs
1 2 0.211125 0.292264 0.348578
2 2 0.819336 0.280872 0.52487
6 2 0.556913 0.0149213 0.477099
7 2 0.643589 0.010557 0.809099
8 2 0.761954 0.971761 0.65804
4 2 0.153905 0.939934 0.881235
5 2 0.651059 0.740418 0.897322
3 2 0.0421192 0.549272 0.803758
ITEM: TIMESTEP
2000
ITEM: NUMBER OF ATOMS
8
ITEM: BOX BOUNDS pp pp pp
-1.2500000000000000e+01 1.2500000000000000e+01
-1.2500000000000000e+01 1.2500000000000000e+01
-1.5000000000000000e+01 1.5000000000000000e+01
ITEM: ATOMS id type xs ys zs
1 2 0.208582 0.293935 0.345916
2 2 0.817196 0.281874 0.526181
6 2 0.553156 0.0167977 0.475506
7 2 0.644701 0.0120507 0.809738
8 2 0.763727 0.971303 0.661331
4 2 0.154619 0.937837 0.880254
5 2 0.652686 0.740579 0.897118
3 2 0.0453322 0.545624 0.803956
ITEM: TIMESTEP
2100
ITEM: NUMBER OF ATOMS
8
ITEM: BOX BOUNDS pp pp pp
-1.2500000000000000e+01 1.2500000000000000e+01
-1.2500000000000000e+01 1.2500000000000000e+01
-1.5000000000000000e+01 1.5000000000000000e+01
ITEM: ATOMS id type xs ys zs
1 2 0.206088 0.295571 0.343306
2 2 0.815097 0.282849 0.527469
6 2 0.549482 0.0186381 0.473953
7 2 0.645756 0.0135156 0.810411
8 2 0.765495 0.970846 0.664506
4 2 0.155318 0.93578 0.879291
5 2 0.654282 0.740751 0.896913
3 2 0.0484807 0.542049 0.80415
ITEM: TIMESTEP
2200
ITEM: NUMBER OF ATOMS
8
ITEM: BOX BOUNDS pp pp pp
-1.2500000000000000e+01 1.2500000000000000e+01
-1.2500000000000000e+01 1.2500000000000000e+01
-1.5000000000000000e+01 1.5000000000000000e+01
ITEM: ATOMS id type xs ys zs
1 2 0.203615 0.297194 0.340719
2 2 0.813013 0.28381 0.528748
6 2 0.545847 0.0204645 0.47242
7 2 0.64676 0.0149719 0.811131
8 2 0.767285 0.970381 0.6676
4 2 0.156011 0.933738 0.878336
5 2 0.655866 0.740935 0.896704
3 2 0.0516026 0.538506 0.804342
ITEM: TIMESTEP
2300
ITEM: NUMBER OF ATOMS
8
ITEM: BOX BOUNDS pp pp pp
-1.2500000000000000e+01 1.2500000000000000e+01
-1.2500000000000000e+01 1.2500000000000000e+01
-1.5000000000000000e+01 1.5000000000000000e+01
ITEM: ATOMS id type xs ys zs
1 2 0.201066 0.298866 0.338053
2 2 0.810864 0.284794 0.530067
6 2 0.542107 0.0223483 0.470846
7 2 0.647749 0.016479 0.811932
8 2 0.769171 0.969887 0.670729
4 2 0.156723 0.931632 0.87735
5 2 0.657501 0.741138 0.896482
3 2 0.0548196 0.534855 0.80454
ITEM: TIMESTEP
2400
ITEM: NUMBER OF ATOMS
8
ITEM: BOX BOUNDS pp pp pp
-1.2500000000000000e+01 1.2500000000000000e+01
-1.2500000000000000e+01 1.2500000000000000e+01
-1.5000000000000000e+01 1.5000000000000000e+01
ITEM: ATOMS id type xs ys zs
1 2 0.198557 0.300512 0.335429
2 2 0.808746 0.285757 0.531368
6 2 0.538433 0.0242037 0.469303
7 2 0.64867 0.0179708 0.812782
8 2 0.771075 0.969384 0.673745
4 2 0.157424 0.929557 0.87638
5 2 0.65911 0.741352 0.896258
3 2 0.0579851 0.531264 0.804736
ITEM: TIMESTEP
2500
ITEM: NUMBER OF ATOMS
8
ITEM: BOX BOUNDS pp pp pp
-1.2500000000000000e+01 1.2500000000000000e+01
-1.2500000000000000e+01 1.2500000000000000e+01
-1.5000000000000000e+01 1.5000000000000000e+01
ITEM: ATOMS id type xs ys zs
1 2 0.196032 0.302167 0.332791
2 2 0.806614 0.28672 0.532678
6 2 0.534743 0.0260717 0.467755
7 2 0.649541 0.0194826 0.813702
4 2 0.158127 0.927469 0.875403
5 2 0.660731 0.74158 0.896026
3 2 0.0611689 0.527653 0.804932
8 2 0.773043 0.968857 0.676713
ITEM: TIMESTEP
2600
ITEM: NUMBER OF ATOMS
8
ITEM: BOX BOUNDS pp pp pp
-1.2500000000000000e+01 1.2500000000000000e+01
-1.2500000000000000e+01 1.2500000000000000e+01
-1.5000000000000000e+01 1.5000000000000000e+01
ITEM: ATOMS id type xs ys zs
1 2 0.193486 0.303835 0.33013
2 2 0.804462 0.287685 0.534001
6 2 0.531026 0.0279572 0.466198
7 2 0.65036 0.021021 0.8147
4 2 0.158836 0.925361 0.874416
5 2 0.662368 0.741825 0.895786
3 2 0.0643794 0.524013 0.80513
8 2 0.775084 0.968303 0.679638
ITEM: TIMESTEP
2700
ITEM: NUMBER OF ATOMS
8
ITEM: BOX BOUNDS pp pp pp
-1.2500000000000000e+01 1.2500000000000000e+01
-1.2500000000000000e+01 1.2500000000000000e+01
-1.5000000000000000e+01 1.5000000000000000e+01
ITEM: ATOMS id type xs ys zs
1 2 0.190947 0.305498 0.327478
2 2 0.802315 0.288641 0.535322
6 2 0.527327 0.0298384 0.464651
7 2 0.651113 0.0225701 0.815763
4 2 0.159541 0.923258 0.873433
5 2 0.664 0.742083 0.895541
3 2 0.0675791 0.520386 0.805328
8 2 0.777178 0.967726 0.682484
ITEM: TIMESTEP
2800
ITEM: NUMBER OF ATOMS
8
ITEM: BOX BOUNDS pp pp pp
-1.2500000000000000e+01 1.2500000000000000e+01
-1.2500000000000000e+01 1.2500000000000000e+01
-1.5000000000000000e+01 1.5000000000000000e+01
ITEM: ATOMS id type xs ys zs
1 2 0.188399 0.307166 0.324817
2 2 0.800158 0.289595 0.536649
6 2 0.523618 0.031728 0.463101
7 2 0.651805 0.0241422 0.816902
4 2 0.160248 0.921147 0.872444
5 2 0.66564 0.742356 0.895289
3 2 0.0707895 0.516747 0.805526
8 2 0.779342 0.967119 0.685271
ITEM: TIMESTEP
2900
ITEM: NUMBER OF ATOMS
8
ITEM: BOX BOUNDS pp pp pp
-1.2500000000000000e+01 1.2500000000000000e+01
-1.2500000000000000e+01 1.2500000000000000e+01
-1.5000000000000000e+01 1.5000000000000000e+01
ITEM: ATOMS id type xs ys zs
1 2 0.185835 0.308845 0.32214
6 2 0.519889 0.0336313 0.461545
2 2 0.797987 0.29055 0.537986
7 2 0.652435 0.0257431 0.818118
4 2 0.160958 0.91902 0.871449
5 2 0.667292 0.742644 0.89503
3 2 0.0740198 0.513087 0.805725
8 2 0.781584 0.966479 0.688007
ITEM: TIMESTEP
3000
ITEM: NUMBER OF ATOMS
8
ITEM: BOX BOUNDS pp pp pp
-1.2500000000000000e+01 1.2500000000000000e+01
-1.2500000000000000e+01 1.2500000000000000e+01
-1.5000000000000000e+01 1.5000000000000000e+01
ITEM: ATOMS id type xs ys zs
1 2 0.183335 0.31048 0.319531
6 2 0.516259 0.0354882 0.46003
2 2 0.795869 0.291476 0.539291
7 2 0.652984 0.027323 0.819372
4 2 0.161649 0.916946 0.870478
5 2 0.668904 0.74294 0.89477
3 2 0.0771679 0.509521 0.805919
8 2 0.783833 0.965826 0.690608
ITEM: TIMESTEP
3100
ITEM: NUMBER OF ATOMS
8
ITEM: BOX BOUNDS pp pp pp
-1.2500000000000000e+01 1.2500000000000000e+01
-1.2500000000000000e+01 1.2500000000000000e+01
-1.5000000000000000e+01 1.5000000000000000e+01
ITEM: ATOMS id type xs ys zs
1 2 0.180815 0.312129 0.316902
6 2 0.512602 0.0373619 0.458506
2 2 0.793732 0.292404 0.540608
7 2 0.653473 0.0289354 0.820701
4 2 0.162344 0.914853 0.869499
5 2 0.67053 0.743253 0.894503
3 2 0.080341 0.505928 0.806115
8 2 0.786162 0.965136 0.693167
ITEM: TIMESTEP
3200
ITEM: NUMBER OF ATOMS
8
ITEM: BOX BOUNDS pp pp pp
-1.2500000000000000e+01 1.2500000000000000e+01
-1.2500000000000000e+01 1.2500000000000000e+01
-1.5000000000000000e+01 1.5000000000000000e+01
ITEM: ATOMS id type xs ys zs
1 2 0.178301 0.313773 0.314278
6 2 0.508956 0.0392334 0.456988
2 2 0.791599 0.293326 0.541923
7 2 0.653901 0.030563 0.822087
4 2 0.163037 0.912764 0.868521
5 2 0.672155 0.743579 0.89423
3 2 0.0835067 0.502343 0.806311
8 2 0.788545 0.964419 0.695663
ITEM: TIMESTEP
3300
ITEM: NUMBER OF ATOMS
8
ITEM: BOX BOUNDS pp pp pp
-1.2500000000000000e+01 1.2500000000000000e+01
-1.2500000000000000e+01 1.2500000000000000e+01
-1.5000000000000000e+01 1.5000000000000000e+01
ITEM: ATOMS id type xs ys zs
1 2 0.175785 0.315418 0.311653
6 2 0.50531 0.0411078 0.45547
2 2 0.789463 0.294243 0.543241
7 2 0.654271 0.0322103 0.823532
3 2 0.0866738 0.498758 0.806506
4 2 0.163728 0.910672 0.867541
5 2 0.673782 0.74392 0.893951
8 2 0.790987 0.963671 0.698106
ITEM: TIMESTEP
3400
ITEM: NUMBER OF ATOMS
8
ITEM: BOX BOUNDS pp pp pp
-1.2500000000000000e+01 1.2500000000000000e+01
-1.2500000000000000e+01 1.2500000000000000e+01
-1.5000000000000000e+01 1.5000000000000000e+01
ITEM: ATOMS id type xs ys zs
1 2 0.173238 0.317083 0.308997
6 2 0.501623 0.0430064 0.453936
2 2 0.7873 0.295167 0.544576
7 2 0.654591 0.0338941 0.825045
3 2 0.0898785 0.495131 0.806704
4 2 0.164427 0.908554 0.866549
5 2 0.675431 0.74428 0.893662
8 2 0.793511 0.962886 0.700531
ITEM: TIMESTEP
3500
ITEM: NUMBER OF ATOMS
8
ITEM: BOX BOUNDS pp pp pp
-1.2500000000000000e+01 1.2500000000000000e+01
-1.2500000000000000e+01 1.2500000000000000e+01
-1.5000000000000000e+01 1.5000000000000000e+01
ITEM: ATOMS id type xs ys zs
1 2 0.170796 0.318678 0.306451
6 2 0.49809 0.0448288 0.452467
2 2 0.785225 0.296048 0.545858
7 2 0.65485 0.0355235 0.826542
3 2 0.092951 0.491654 0.806893
4 2 0.165095 0.906521 0.865597
5 2 0.677015 0.74464 0.893378
8 2 0.795979 0.962106 0.702814
ITEM: TIMESTEP
3600
ITEM: NUMBER OF ATOMS
8
ITEM: BOX BOUNDS pp pp pp
-1.2500000000000000e+01 1.2500000000000000e+01
-1.2500000000000000e+01 1.2500000000000000e+01
-1.5000000000000000e+01 1.5000000000000000e+01
ITEM: ATOMS id type xs ys zs
1 2 0.168268 0.320329 0.303816
6 2 0.494434 0.046717 0.450948
2 2 0.783076 0.296956 0.547186
7 2 0.655074 0.0372232 0.828131
3 2 0.096131 0.488057 0.80709
4 2 0.165785 0.904416 0.86461
5 2 0.678655 0.745027 0.893079
8 2 0.798576 0.961274 0.70514
ITEM: TIMESTEP
3700
ITEM: NUMBER OF ATOMS
8
ITEM: BOX BOUNDS pp pp pp
-1.2500000000000000e+01 1.2500000000000000e+01
-1.2500000000000000e+01 1.2500000000000000e+01
-1.5000000000000000e+01 1.5000000000000000e+01
ITEM: ATOMS id type xs ys zs
1 2 0.165751 0.321974 0.301191
6 2 0.490795 0.0485996 0.449436
2 2 0.780934 0.297856 0.548511
7 2 0.65526 0.0389268 0.82975
3 2 0.0992982 0.484474 0.807285
4 2 0.166471 0.902318 0.863627
5 2 0.680292 0.745428 0.892774
8 2 0.8012 0.960423 0.707427
ITEM: TIMESTEP
3800
ITEM: NUMBER OF ATOMS
8
ITEM: BOX BOUNDS pp pp pp
-1.2500000000000000e+01 1.2500000000000000e+01
-1.2500000000000000e+01 1.2500000000000000e+01
-1.5000000000000000e+01 1.5000000000000000e+01
ITEM: ATOMS id type xs ys zs
1 2 0.163248 0.323608 0.298583
6 2 0.48718 0.0504724 0.447934
2 2 0.778804 0.298747 0.549828
7 2 0.655411 0.0406282 0.831388
3 2 0.102446 0.480915 0.807479
4 2 0.16715 0.900232 0.862648
5 2 0.681921 0.745842 0.892465
8 2 0.80384 0.959556 0.709674
ITEM: TIMESTEP
3900
ITEM: NUMBER OF ATOMS
8
ITEM: BOX BOUNDS pp pp pp
-1.2500000000000000e+01 1.2500000000000000e+01
-1.2500000000000000e+01 1.2500000000000000e+01
-1.5000000000000000e+01 1.5000000000000000e+01
ITEM: ATOMS id type xs ys zs
1 2 0.160787 0.325214 0.296018
6 2 0.483625 0.0523162 0.446458
2 2 0.776708 0.299619 0.551126
7 2 0.655532 0.0423075 0.833024
3 2 0.105541 0.477415 0.80767
4 2 0.167817 0.898179 0.861685
5 2 0.683525 0.746264 0.892154
8 2 0.806465 0.958685 0.711865
ITEM: TIMESTEP
4000
ITEM: NUMBER OF ATOMS
8
ITEM: BOX BOUNDS pp pp pp
-1.2500000000000000e+01 1.2500000000000000e+01
-1.2500000000000000e+01 1.2500000000000000e+01
-1.5000000000000000e+01 1.5000000000000000e+01
ITEM: ATOMS id type xs ys zs
1 2 0.158262 0.326862 0.293388
6 2 0.479981 0.054209 0.444945
2 2 0.774558 0.30051 0.552458
7 2 0.655633 0.0440332 0.834723
3 2 0.108715 0.473826 0.807866
4 2 0.168499 0.896073 0.860696
5 2 0.685173 0.746712 0.89183
8 2 0.809178 0.957776 0.714096
ITEM: TIMESTEP
4100
ITEM: NUMBER OF ATOMS
8
ITEM: BOX BOUNDS pp pp pp
-1.2500000000000000e+01 1.2500000000000000e+01
-1.2500000000000000e+01 1.2500000000000000e+01
-1.5000000000000000e+01 1.5000000000000000e+01
ITEM: ATOMS id type xs ys zs
1 2 0.155754 0.328498 0.290775
6 2 0.476361 0.0560916 0.443443
2 2 0.77242 0.301391 0.553782
7 2 0.655715 0.0457493 0.836427
3 2 0.111869 0.470261 0.80806
4 2 0.169175 0.893978 0.859712
5 2 0.686813 0.747173 0.8915
8 2 0.811892 0.956858 0.716301
ITEM: TIMESTEP
4200
ITEM: NUMBER OF ATOMS
8
ITEM: BOX BOUNDS pp pp pp
-1.2500000000000000e+01 1.2500000000000000e+01
-1.2500000000000000e+01 1.2500000000000000e+01
-1.5000000000000000e+01 1.5000000000000000e+01
ITEM: ATOMS id type xs ys zs
1 2 0.153226 0.330147 0.288141
6 2 0.472714 0.0579905 0.44193
2 2 0.770264 0.302276 0.555119
7 2 0.655784 0.0474776 0.838157
3 2 0.115048 0.466669 0.808256
4 2 0.169854 0.891867 0.858719
5 2 0.688469 0.747653 0.891162
8 2 0.814641 0.95592 0.718517
ITEM: TIMESTEP
4300
ITEM: NUMBER OF ATOMS
8
ITEM: BOX BOUNDS pp pp pp
-1.2500000000000000e+01 1.2500000000000000e+01
-1.2500000000000000e+01 1.2500000000000000e+01
-1.5000000000000000e+01 1.5000000000000000e+01
ITEM: ATOMS id type xs ys zs
1 2 0.150705 0.331791 0.285515
6 2 0.469079 0.0598857 0.440422
2 2 0.768114 0.303154 0.556453
7 2 0.655843 0.0491979 0.839891
3 2 0.118216 0.463089 0.808451
4 2 0.170529 0.889761 0.857729
5 2 0.690123 0.748148 0.890818
8 2 0.817391 0.954974 0.720722
ITEM: TIMESTEP
4400
ITEM: NUMBER OF ATOMS
8
ITEM: BOX BOUNDS pp pp pp
-1.2500000000000000e+01 1.2500000000000000e+01
-1.2500000000000000e+01 1.2500000000000000e+01
-1.5000000000000000e+01 1.5000000000000000e+01
ITEM: ATOMS id type xs ys zs
1 2 0.14823 0.333405 0.282937
6 2 0.46551 0.0617483 0.438942
2 2 0.766002 0.304014 0.557764
7 2 0.655894 0.0508824 0.8416
3 2 0.121328 0.459574 0.808643
4 2 0.171189 0.887691 0.856755
5 2 0.69175 0.748649 0.890473
8 2 0.820098 0.954036 0.722886
ITEM: TIMESTEP
4500
ITEM: NUMBER OF ATOMS
8
ITEM: BOX BOUNDS pp pp pp
-1.2500000000000000e+01 1.2500000000000000e+01
-1.2500000000000000e+01 1.2500000000000000e+01
-1.5000000000000000e+01 1.5000000000000000e+01
ITEM: ATOMS id type xs ys zs
1 2 0.145677 0.335069 0.280279
6 2 0.461831 0.0636707 0.437416
2 2 0.763823 0.304897 0.559117
7 2 0.655944 0.0526128 0.843367
3 2 0.124536 0.45595 0.808841
4 2 0.171868 0.885557 0.85575
5 2 0.693431 0.749183 0.890111
8 2 0.822892 0.953062 0.72512
ITEM: TIMESTEP
4600
ITEM: NUMBER OF ATOMS
8
ITEM: BOX BOUNDS pp pp pp
-1.2500000000000000e+01 1.2500000000000000e+01
-1.2500000000000000e+01 1.2500000000000000e+01
-1.5000000000000000e+01 1.5000000000000000e+01
ITEM: ATOMS id type xs ys zs
1 2 0.143177 0.336698 0.277675
6 2 0.458228 0.0655552 0.435922
2 2 0.761687 0.305759 0.560443
7 2 0.655991 0.0542998 0.845099
3 2 0.127678 0.452401 0.809035
4 2 0.172529 0.883465 0.854764
5 2 0.695081 0.749721 0.88975
8 2 0.825628 0.952101 0.727312
ITEM: TIMESTEP
4700
ITEM: NUMBER OF ATOMS
8
ITEM: BOX BOUNDS pp pp pp
-1.2500000000000000e+01 1.2500000000000000e+01
-1.2500000000000000e+01 1.2500000000000000e+01
-1.5000000000000000e+01 1.5000000000000000e+01
ITEM: ATOMS id type xs ys zs
1 2 0.140636 0.338354 0.275029
6 2 0.454566 0.0674724 0.434404
2 2 0.759516 0.306632 0.561793
7 2 0.656042 0.0560052 0.846861
3 2 0.130871 0.448794 0.809232
4 2 0.173199 0.881339 0.853761
5 2 0.696762 0.750285 0.889376
8 2 0.828408 0.951119 0.729545
ITEM: TIMESTEP
4800
ITEM: NUMBER OF ATOMS
8
ITEM: BOX BOUNDS pp pp pp
-1.2500000000000000e+01 1.2500000000000000e+01
-1.2500000000000000e+01 1.2500000000000000e+01
-1.5000000000000000e+01 1.5000000000000000e+01
ITEM: ATOMS id type xs ys zs
1 2 0.138167 0.339963 0.272457
6 2 0.451009 0.0693369 0.43293
2 2 0.757406 0.307478 0.563105
7 2 0.656094 0.0576524 0.848571
3 2 0.133974 0.44529 0.809423
4 2 0.173848 0.879272 0.852785
5 2 0.698399 0.750849 0.889006
8 2 0.831104 0.95016 0.731723
ITEM: TIMESTEP
4900
ITEM: NUMBER OF ATOMS
8
ITEM: BOX BOUNDS pp pp pp
-1.2500000000000000e+01 1.2500000000000000e+01
-1.2500000000000000e+01 1.2500000000000000e+01
-1.5000000000000000e+01 1.5000000000000000e+01
ITEM: ATOMS id type xs ys zs
1 2 0.135633 0.341613 0.269818
6 2 0.447358 0.0712522 0.431417
2 2 0.755238 0.308343 0.564454
7 2 0.656154 0.0593315 0.850324
3 2 0.137158 0.441694 0.80962
4 2 0.17451 0.87715 0.851782
5 2 0.700083 0.751444 0.888618
8 2 0.833866 0.949173 0.733967
ITEM: TIMESTEP
5000
ITEM: NUMBER OF ATOMS
8
ITEM: BOX BOUNDS pp pp pp
-1.2500000000000000e+01 1.2500000000000000e+01
-1.2500000000000000e+01 1.2500000000000000e+01
-1.5000000000000000e+01 1.5000000000000000e+01
ITEM: ATOMS id type xs ys zs
1 2 0.133146 0.343233 0.267228
6 2 0.443776 0.0731334 0.429932
2 2 0.753111 0.30919 0.565778
7 2 0.656219 0.0609674 0.852042
3 2 0.140283 0.438165 0.809813
4 2 0.175157 0.875066 0.850797
5 2 0.70174 0.752045 0.888231
8 2 0.836569 0.9482 0.73618
ITEM: TIMESTEP
5100
ITEM: NUMBER OF ATOMS
8
ITEM: BOX BOUNDS pp pp pp
-1.2500000000000000e+01 1.2500000000000000e+01
-1.2500000000000000e+01 1.2500000000000000e+01
-1.5000000000000000e+01 1.5000000000000000e+01
ITEM: ATOMS id type xs ys zs
1 2 0.13068 0.344839 0.264659
6 2 0.440223 0.0750006 0.42846
2 2 0.751 0.310027 0.567093
7 2 0.656292 0.0625776 0.853741
3 2 0.143382 0.434666 0.810005
4 2 0.175795 0.873 0.849818
5 2 0.703388 0.752657 0.88784
8 2 0.839241 0.947233 0.738385
ITEM: TIMESTEP
5200
ITEM: NUMBER OF ATOMS
8
ITEM: BOX BOUNDS pp pp pp
-1.2500000000000000e+01 1.2500000000000000e+01
-1.2500000000000000e+01 1.2500000000000000e+01
-1.5000000000000000e+01 1.5000000000000000e+01
ITEM: ATOMS id type xs ys zs
1 2 0.128177 0.346468 0.262052
6 2 0.436618 0.076897 0.426966
2 2 0.748857 0.310874 0.568428
7 2 0.656374 0.0641984 0.855461
3 2 0.146526 0.431116 0.810199
4 2 0.176439 0.870903 0.848824
5 2 0.705065 0.753295 0.887436
8 2 0.841943 0.946249 0.740633
ITEM: TIMESTEP
5300
ITEM: NUMBER OF ATOMS
8
ITEM: BOX BOUNDS pp pp pp
-1.2500000000000000e+01 1.2500000000000000e+01
-1.2500000000000000e+01 1.2500000000000000e+01
-1.5000000000000000e+01 1.5000000000000000e+01
ITEM: ATOMS id type xs ys zs
1 2 0.125727 0.348064 0.2595
6 2 0.433088 0.0787556 0.425504
2 2 0.746758 0.311701 0.569737
7 2 0.656465 0.0657723 0.85714
3 2 0.149606 0.427639 0.81039
4 2 0.177066 0.868848 0.847849
5 2 0.706712 0.753937 0.887033
8 2 0.844578 0.945283 0.742848
ITEM: TIMESTEP
5400
ITEM: NUMBER OF ATOMS
8
ITEM: BOX BOUNDS pp pp pp
-1.2500000000000000e+01 1.2500000000000000e+01
-1.2500000000000000e+01 1.2500000000000000e+01
-1.5000000000000000e+01 1.5000000000000000e+01
ITEM: ATOMS id type xs ys zs
1 2 0.123177 0.349724 0.256844
6 2 0.429415 0.0806909 0.423982
2 2 0.744573 0.31256 0.5711
7 2 0.65657 0.0673958 0.858881
3 2 0.15281 0.424022 0.810589
4 2 0.177714 0.866711 0.846833
5 2 0.708431 0.754622 0.886606
8 2 0.847309 0.944275 0.745164
ITEM: TIMESTEP
5500
ITEM: NUMBER OF ATOMS
8
ITEM: BOX BOUNDS pp pp pp
-1.2500000000000000e+01 1.2500000000000000e+01
-1.2500000000000000e+01 1.2500000000000000e+01
-1.5000000000000000e+01 1.5000000000000000e+01
ITEM: ATOMS id type xs ys zs
1 2 0.120649 0.351368 0.254211
6 2 0.425775 0.0826108 0.422474
2 2 0.742406 0.313408 0.572452
7 2 0.656686 0.0689908 0.860602
3 2 0.155986 0.420437 0.810786
4 2 0.178352 0.864592 0.845824
5 2 0.710141 0.755319 0.886176
8 2 0.850005 0.943275 0.747474
ITEM: TIMESTEP
5600
ITEM: NUMBER OF ATOMS
8
ITEM: BOX BOUNDS pp pp pp
-1.2500000000000000e+01 1.2500000000000000e+01
-1.2500000000000000e+01 1.2500000000000000e+01
-1.5000000000000000e+01 1.5000000000000000e+01
ITEM: ATOMS id type xs ys zs
1 2 0.118163 0.352986 0.251621
6 2 0.422194 0.0845006 0.420991
2 2 0.740275 0.314241 0.573784
7 2 0.65681 0.0705457 0.862289
3 2 0.159109 0.416911 0.81098
4 2 0.178976 0.862507 0.844831
5 2 0.711828 0.756021 0.885746
8 2 0.852644 0.942288 0.749758
ITEM: TIMESTEP
5700
ITEM: NUMBER OF ATOMS
8
ITEM: BOX BOUNDS pp pp pp
-1.2500000000000000e+01 1.2500000000000000e+01
-1.2500000000000000e+01 1.2500000000000000e+01
-1.5000000000000000e+01 1.5000000000000000e+01
ITEM: ATOMS id type xs ys zs
1 2 0.115687 0.354597 0.24904
6 2 0.418626 0.0863851 0.419514
2 2 0.73815 0.315069 0.575111
7 2 0.656946 0.0720811 0.863964
3 2 0.162222 0.413397 0.811173
4 2 0.179592 0.86043 0.84384
5 2 0.713515 0.756737 0.88531
8 2 0.855262 0.941303 0.752048
ITEM: TIMESTEP
5800
ITEM: NUMBER OF ATOMS
8
ITEM: BOX BOUNDS pp pp pp
-1.2500000000000000e+01 1.2500000000000000e+01
-1.2500000000000000e+01 1.2500000000000000e+01
-1.5000000000000000e+01 1.5000000000000000e+01
ITEM: ATOMS id type xs ys zs
1 2 0.113142 0.356253 0.246389
6 2 0.41496 0.0883227 0.417995
2 2 0.735966 0.315918 0.576476
7 2 0.657097 0.0736443 0.865679
3 2 0.165419 0.409788 0.811372
4 2 0.180221 0.858297 0.84282
5 2 0.715255 0.757491 0.884855
8 2 0.85794 0.940287 0.754414
ITEM: TIMESTEP
5900
ITEM: NUMBER OF ATOMS
8
ITEM: BOX BOUNDS pp pp pp
-1.2500000000000000e+01 1.2500000000000000e+01
-1.2500000000000000e+01 1.2500000000000000e+01
-1.5000000000000000e+01 1.5000000000000000e+01
ITEM: ATOMS id type xs ys zs
1 2 0.110616 0.357896 0.243757
6 2 0.411321 0.0902476 0.416488
2 2 0.733797 0.316758 0.577832
7 2 0.657258 0.0751818 0.867375
3 2 0.168594 0.406204 0.81157
4 2 0.18084 0.856179 0.841806
5 2 0.716988 0.758256 0.884396
8 2 0.860587 0.939277 0.756776
ITEM: TIMESTEP
6000
ITEM: NUMBER OF ATOMS
8
ITEM: BOX BOUNDS pp pp pp
-1.2500000000000000e+01 1.2500000000000000e+01
-1.2500000000000000e+01 1.2500000000000000e+01
-1.5000000000000000e+01 1.5000000000000000e+01
ITEM: ATOMS id type xs ys zs
1 2 0.10814 0.359506 0.241176
6 2 0.407753 0.092136 0.415011
2 2 0.73167 0.31758 0.579163
7 2 0.657428 0.0766752 0.869032
3 2 0.171706 0.402692 0.811764
4 2 0.181441 0.854103 0.840811
5 2 0.718693 0.759024 0.883939
8 2 0.863169 0.938284 0.759104
ITEM: TIMESTEP
6100
ITEM: NUMBER OF ATOMS
8
ITEM: BOX BOUNDS pp pp pp
-1.2500000000000000e+01 1.2500000000000000e+01
-1.2500000000000000e+01 1.2500000000000000e+01
-1.5000000000000000e+01 1.5000000000000000e+01
ITEM: ATOMS id type xs ys zs
1 2 0.105649 0.361126 0.23858
6 2 0.404163 0.094037 0.413524
2 2 0.72953 0.318406 0.580503
7 2 0.65761 0.0781638 0.870694
3 2 0.174836 0.399158 0.811959