LAMMPS (27 Jun 2024)

# --- log file ---
variable name string absorption_pot
log ./logs/log.${name}
log ./logs/log.absorption_pot
