
     Program PWSCF v.7.3.1 starts on  5Aug2024 at 16:23:44 

     This program is part of the open-source Quantum ESPRESSO suite
     for quantum simulation of materials; please cite
         "P. Giannozzi et al., J. Phys.:Condens. Matter 21 395502 (2009);
         "P. Giannozzi et al., J. Phys.:Condens. Matter 29 465901 (2017);
         "P. Giannozzi et al., J. Chem. Phys. 152 154105 (2020);
          URL http://www.quantum-espresso.org", 
     in publications or presentations arising from this work. More details at
     http://www.quantum-espresso.org/quote

     Parallel version (MPI & OpenMP), running on       4 processor cores
     Number of MPI processes:                 2
     Threads/MPI process:                     2

     MPI processes distributed on     1 nodes
     2851 MiB available memory on the printing compute node when the environment starts

     Reading input from hydrogen.in

     Current dimensions of program PWSCF are:
     Max number of different atomic species (ntypx) = 10
     Max number of k-points (npk) =  40000
     Max angular momentum in pseudopotentials (lmaxx) =  4

     R & G space division:  proc/nbgrp/npool/nimage =       2
     Subspace diagonalization in iterative solution of the eigenvalue problem:
     a serial algorithm will be used


     Parallelization info
     --------------------
     sticks:   dense  smooth     PW     G-vecs:    dense   smooth      PW
     Min        2548    2548    640               136712   136712   17132
     Max        2549    2549    641               136713   136713   17133
     Sum        5097    5097   1281               273425   273425   34265

     Using Slab Decomposition



     bravais-lattice index     =            1
     lattice parameter (alat)  =      20.0000  a.u.
     unit-cell volume          =    8000.0000 (a.u.)^3
     number of atoms/cell      =            2
     number of atomic types    =            1
     number of electrons       =         2.00
     number of Kohn-Sham states=            1
     kinetic-energy cutoff     =      40.0000  Ry
     charge density cutoff     =     160.0000  Ry
     scf convergence threshold =      1.0E-08
     mixing beta               =       0.7000
     number of iterations used =            8  plain     mixing
     energy convergence thresh.=      1.0E-04
     force convergence thresh. =      1.0E-03
     Exchange-correlation= LDA
                           (   1   1   0   0   0   0   0)
     nstep                     =           50


     celldm(1)=  20.000000  celldm(2)=   0.000000  celldm(3)=   0.000000
     celldm(4)=   0.000000  celldm(5)=   0.000000  celldm(6)=   0.000000

     crystal axes: (cart. coord. in units of alat)
               a(1) = (   1.000000   0.000000   0.000000 )  
               a(2) = (   0.000000   1.000000   0.000000 )  
               a(3) = (   0.000000   0.000000   1.000000 )  

     reciprocal axes: (cart. coord. in units 2 pi/alat)
               b(1) = (  1.000000  0.000000  0.000000 )  
               b(2) = (  0.000000  1.000000  0.000000 )  
               b(3) = (  0.000000  0.000000  1.000000 )  


     PseudoPot. # 1 for H  read from file:
     /home/edoardocabiati/.burai/.pseudopot/H.pz-rrkjus_psl.0.1.UPF
     MD5 check sum: 1467ebfaa2880178e80d097b970df8c7
     Pseudo is Ultrasoft, Zval =  1.0
     Generated using "atomic" code by A. Dal Corso  v.5.0.2 svn rev. 9415
     Using radial grid of  929 points,  2 beta functions with: 
                l(1) =   0
                l(2) =   0
     Q(r) pseudized with 0 coefficients 


     atomic species   valence    mass     pseudopotential
     H                 1.00     1.00784     H ( 1.00)

      8 Sym. Ops. (no inversion) found



   Cartesian axes

     site n.     atom                  positions (alat units)
         1        H      tau(   1) = (   0.0000000   0.0000000   0.0000000  )
         2        H      tau(   2) = (   0.0944863   0.0000000   0.0000000  )

     number of k points=     1
                       cart. coord. in units 2pi/alat
        k(    1) = (   0.0000000   0.0000000   0.0000000), wk =   2.0000000

     Dense  grid:   273425 G-vectors     FFT dimensions: (  81,  81,  81)

     Estimated max dynamical RAM per process >      98.55 MB

     Estimated total dynamical RAM >     197.11 MB

     Initial potential from superposition of free atoms

     starting charge       2.0000, renormalised to       2.0000

     negative rho (up, down):  1.861E-03 0.000E+00
     Starting wfcs are    2 randomized atomic wfcs

     total cpu time spent up to now is        0.5 secs

     Self-consistent Calculation

     iteration #  1     ecut=    40.00 Ry     beta= 0.70
     Davidson diagonalization with overlap
     ethr =  1.00E-02,  avg # of iterations =  2.0

     negative rho (up, down):  2.634E-03 0.000E+00

     total cpu time spent up to now is        0.8 secs

     total energy              =      -2.22935964 Ry
     estimated scf accuracy    <       0.05964211 Ry

     iteration #  2     ecut=    40.00 Ry     beta= 0.70
     Davidson diagonalization with overlap
     ethr =  2.98E-03,  avg # of iterations =  1.0

     negative rho (up, down):  2.911E-03 0.000E+00

     total cpu time spent up to now is        1.0 secs

     total energy              =      -2.23313874 Ry
     estimated scf accuracy    <       0.00079172 Ry

     iteration #  3     ecut=    40.00 Ry     beta= 0.70
     Davidson diagonalization with overlap
     ethr =  3.96E-05,  avg # of iterations =  2.0

     negative rho (up, down):  2.888E-03 0.000E+00

     total cpu time spent up to now is        1.3 secs

     total energy              =      -2.23333917 Ry
     estimated scf accuracy    <       0.00001453 Ry

     iteration #  4     ecut=    40.00 Ry     beta= 0.70
     Davidson diagonalization with overlap
     ethr =  7.27E-07,  avg # of iterations =  1.0

     negative rho (up, down):  2.885E-03 0.000E+00

     total cpu time spent up to now is        1.8 secs

     total energy              =      -2.23333968 Ry
     estimated scf accuracy    <       0.00000025 Ry

     iteration #  5     ecut=    40.00 Ry     beta= 0.70
     Davidson diagonalization with overlap
     ethr =  1.25E-08,  avg # of iterations =  2.0

     negative rho (up, down):  2.884E-03 0.000E+00

     total cpu time spent up to now is        2.2 secs

     total energy              =      -2.23333971 Ry
     estimated scf accuracy    <       0.00000001 Ry

     iteration #  6     ecut=    40.00 Ry     beta= 0.70
     Davidson diagonalization with overlap
     ethr =  5.61E-10,  avg # of iterations =  2.0

     negative rho (up, down):  2.883E-03 0.000E+00

     total cpu time spent up to now is        2.5 secs

     End of self-consistent calculation

          k = 0.0000 0.0000 0.0000 ( 34265 PWs)   bands (ev):

    -9.2000

     highest occupied level (ev):    -9.2000

!    total energy              =      -2.23333971 Ry
     estimated scf accuracy    <          1.3E-09 Ry

     The total energy is the sum of the following terms:
     one-electron contribution =      -3.28168147 Ry
     hartree contribution      =       1.73208622 Ry
     xc contribution           =      -1.17653398 Ry
     ewald contribution        =       0.49278952 Ry

     convergence has been achieved in   6 iterations

     Forces acting on atoms (cartesian axes, Ry/au):

     atom    1 type  1   force =     0.15229681    0.00000000    0.00000000
     atom    2 type  1   force =    -0.15229681    0.00000000    0.00000000

     Total force =     0.215380     Total SCF correction =     0.000011

     BFGS Geometry Optimization
     Energy error            =      0.0E+00 Ry
     Gradient error          =      1.5E-01 Ry/Bohr

     number of scf cycles    =   1
     number of bfgs steps    =   0

     energy             new  =      -2.2333397093 Ry

     new trust radius        =       0.1522968085 bohr
     new conv_thr            =       0.0000000100 Ry


ATOMIC_POSITIONS (angstrom)
H                0.0805920004        0.0000000000        0.0000000000
H                0.9194079996        0.0000000000        0.0000000000



     Writing config-only to output data dir ../results/h2/h2.save/ :
     XML data file
     NEW-OLD atomic charge density approx. for the potential

     negative rho (up, down):  2.836E-03 0.000E+00

     total cpu time spent up to now is        3.1 secs

     Self-consistent Calculation

     iteration #  1     ecut=    40.00 Ry     beta= 0.70
     Davidson diagonalization with overlap
     ethr =  1.00E-06,  avg # of iterations =  5.0

     negative rho (up, down):  3.479E-03 0.000E+00

     total cpu time spent up to now is        3.7 secs

     total energy              =      -2.26941701 Ry
     estimated scf accuracy    <       0.00431162 Ry

     iteration #  2     ecut=    40.00 Ry     beta= 0.70
     Davidson diagonalization with overlap
     ethr =  2.16E-04,  avg # of iterations =  1.0

     negative rho (up, down):  3.631E-03 0.000E+00

     total cpu time spent up to now is        3.9 secs

     total energy              =      -2.26978881 Ry
     estimated scf accuracy    <       0.00004301 Ry

     iteration #  3     ecut=    40.00 Ry     beta= 0.70
     Davidson diagonalization with overlap
     ethr =  2.15E-06,  avg # of iterations =  2.0

     negative rho (up, down):  3.645E-03 0.000E+00

     total cpu time spent up to now is        4.2 secs

     total energy              =      -2.26979964 Ry
     estimated scf accuracy    <       0.00000200 Ry

     iteration #  4     ecut=    40.00 Ry     beta= 0.70
     Davidson diagonalization with overlap
     ethr =  9.98E-08,  avg # of iterations =  1.0

     negative rho (up, down):  3.643E-03 0.000E+00

     total cpu time spent up to now is        4.5 secs

     End of self-consistent calculation

          k = 0.0000 0.0000 0.0000 ( 34265 PWs)   bands (ev):

    -9.8012

     highest occupied level (ev):    -9.8012

!    total energy              =      -2.26979972 Ry
     estimated scf accuracy    <          4.8E-09 Ry

     The total energy is the sum of the following terms:
     one-electron contribution =      -3.62064129 Ry
     hartree contribution      =       1.90663509 Ry
     xc contribution           =      -1.25138607 Ry
     ewald contribution        =       0.69559254 Ry

     convergence has been achieved in   4 iterations

     Forces acting on atoms (cartesian axes, Ry/au):

     atom    1 type  1   force =     0.07275490    0.00000000    0.00000000
     atom    2 type  1   force =    -0.07275490    0.00000000    0.00000000

     Total force =     0.102891     Total SCF correction =     0.000011
     Energy error            =      3.6E-02 Ry
     Gradient error          =      7.3E-02 Ry/Bohr

     number of scf cycles    =   2
     number of bfgs steps    =   1

     energy             old  =      -2.2333397093 Ry
     energy             new  =      -2.2697997220 Ry

     CASE: energy            _new < energy            _old

     new trust radius        =       0.1393018968 bohr
     new conv_thr            =       0.0000000073 Ry


ATOMIC_POSITIONS (angstrom)
H                0.1543073896        0.0000000000        0.0000000000
H                0.8456926104        0.0000000000        0.0000000000



     Writing config-only to output data dir ../results/h2/h2.save/ :
     XML data file
     NEW-OLD atomic charge density approx. for the potential

     negative rho (up, down):  3.234E-03 0.000E+00

     total cpu time spent up to now is        4.8 secs

     Self-consistent Calculation

     iteration #  1     ecut=    40.00 Ry     beta= 0.70
     Davidson diagonalization with overlap
     ethr =  1.00E-06,  avg # of iterations =  5.0

     negative rho (up, down):  4.136E-03 0.000E+00

     total cpu time spent up to now is        5.2 secs

     total energy              =      -2.26653563 Ry
     estimated scf accuracy    <       0.00648342 Ry

     iteration #  2     ecut=    40.00 Ry     beta= 0.70
     Davidson diagonalization with overlap
     ethr =  3.24E-04,  avg # of iterations =  1.0

     negative rho (up, down):  4.371E-03 0.000E+00

     total cpu time spent up to now is        5.5 secs

     total energy              =      -2.26713630 Ry
     estimated scf accuracy    <       0.00005097 Ry

     iteration #  3     ecut=    40.00 Ry     beta= 0.70
     Davidson diagonalization with overlap
     ethr =  2.55E-06,  avg # of iterations =  2.0

     negative rho (up, down):  4.411E-03 0.000E+00

     total cpu time spent up to now is        5.8 secs

     total energy              =      -2.26714931 Ry
     estimated scf accuracy    <       0.00000256 Ry

     iteration #  4     ecut=    40.00 Ry     beta= 0.70
     Davidson diagonalization with overlap
     ethr =  1.28E-07,  avg # of iterations =  1.0

     negative rho (up, down):  4.408E-03 0.000E+00

     total cpu time spent up to now is        6.1 secs

     total energy              =      -2.26714939 Ry
     estimated scf accuracy    <          8.0E-09 Ry

     iteration #  5     ecut=    40.00 Ry     beta= 0.70
     Davidson diagonalization with overlap
     ethr =  3.99E-10,  avg # of iterations =  2.0

     negative rho (up, down):  4.407E-03 0.000E+00

     total cpu time spent up to now is        6.3 secs

     End of self-consistent calculation

          k = 0.0000 0.0000 0.0000 ( 34265 PWs)   bands (ev):

   -10.4843

     highest occupied level (ev):   -10.4843

!    total energy              =      -2.26714939 Ry
     estimated scf accuracy    <          2.4E-10 Ry

     The total energy is the sum of the following terms:
     one-electron contribution =      -3.99442934 Ry
     hartree contribution      =       2.09857753 Ry
     xc contribution           =      -1.33551138 Ry
     ewald contribution        =       0.96421379 Ry

     convergence has been achieved in   5 iterations

     Forces acting on atoms (cartesian axes, Ry/au):

     atom    1 type  1   force =    -0.12067558    0.00000000    0.00000000
     atom    2 type  1   force =     0.12067558    0.00000000    0.00000000

     Total force =     0.170661     Total SCF correction =     0.000002
     Energy error            =      2.7E-03 Ry
     Gradient error          =      1.2E-01 Ry/Bohr

     number of scf cycles    =   3
     number of bfgs steps    =   2

     energy             old  =      -2.2697997220 Ry
     energy             new  =      -2.2671493939 Ry

     CASE: energy            _new > energy            _old

     new trust radius        =       0.0615969820 bohr
     new conv_thr            =       0.0000000073 Ry


ATOMIC_POSITIONS (angstrom)
H                0.1131877195        0.0000000000        0.0000000000
H                0.8868122805        0.0000000000        0.0000000000



     Writing config-only to output data dir ../results/h2/h2.save/ :
     XML data file
     NEW-OLD atomic charge density approx. for the potential

     negative rho (up, down):  4.120E-03 0.000E+00

     total cpu time spent up to now is        6.6 secs

     Self-consistent Calculation

     iteration #  1     ecut=    40.00 Ry     beta= 0.70
     Davidson diagonalization with overlap
     ethr =  1.00E-06,  avg # of iterations =  4.0

     negative rho (up, down):  3.823E-03 0.000E+00

     total cpu time spent up to now is        6.9 secs

     total energy              =      -2.27482892 Ry
     estimated scf accuracy    <       0.00223877 Ry

     iteration #  2     ecut=    40.00 Ry     beta= 0.70
     Davidson diagonalization with overlap
     ethr =  1.12E-04,  avg # of iterations =  1.0

     negative rho (up, down):  3.821E-03 0.000E+00

     total cpu time spent up to now is        7.2 secs

     total energy              =      -2.27504294 Ry
     estimated scf accuracy    <       0.00002204 Ry

     iteration #  3     ecut=    40.00 Ry     beta= 0.70
     Davidson diagonalization with overlap
     ethr =  1.10E-06,  avg # of iterations =  2.0

     negative rho (up, down):  3.851E-03 0.000E+00

     total cpu time spent up to now is        7.5 secs

     total energy              =      -2.27504772 Ry
     estimated scf accuracy    <       0.00000140 Ry

     iteration #  4     ecut=    40.00 Ry     beta= 0.70
     Davidson diagonalization with overlap
     ethr =  6.99E-08,  avg # of iterations =  1.0

     negative rho (up, down):  3.849E-03 0.000E+00

     total cpu time spent up to now is        7.7 secs

     End of self-consistent calculation

          k = 0.0000 0.0000 0.0000 ( 34265 PWs)   bands (ev):

   -10.0850

     highest occupied level (ev):   -10.0850

!    total energy              =      -2.27504775 Ry
     estimated scf accuracy    <          2.4E-09 Ry

     The total energy is the sum of the following terms:
     one-electron contribution =      -3.77745302 Ry
     hartree contribution      =       1.98718697 Ry
     xc contribution           =      -1.28649670 Ry
     ewald contribution        =       0.80171499 Ry

     convergence has been achieved in   4 iterations

     Forces acting on atoms (cartesian axes, Ry/au):

     atom    1 type  1   force =     0.00817705    0.00000000    0.00000000
     atom    2 type  1   force =    -0.00817705    0.00000000    0.00000000

     Total force =     0.011564     Total SCF correction =     0.000002
     Energy error            =      5.2E-03 Ry
     Gradient error          =      8.2E-03 Ry/Bohr

     number of scf cycles    =   4
     number of bfgs steps    =   2

     energy             old  =      -2.2697997220 Ry
     energy             new  =      -2.2750477539 Ry

     CASE: energy            _new < energy            _old

     new trust radius        =       0.0077995990 bohr
     new conv_thr            =       0.0000000008 Ry


ATOMIC_POSITIONS (angstrom)
H                0.1173150896        0.0000000000        0.0000000000
H                0.8826849104        0.0000000000        0.0000000000



     Writing config-only to output data dir ../results/h2/h2.save/ :
     XML data file
     NEW-OLD atomic charge density approx. for the potential

     negative rho (up, down):  3.843E-03 0.000E+00

     total cpu time spent up to now is        8.2 secs

     Self-consistent Calculation

     iteration #  1     ecut=    40.00 Ry     beta= 0.70
     Davidson diagonalization with overlap
     ethr =  1.00E-06,  avg # of iterations =  3.0

     negative rho (up, down):  3.876E-03 0.000E+00

     total cpu time spent up to now is        8.5 secs

     total energy              =      -2.27509416 Ry
     estimated scf accuracy    <       0.00001947 Ry

     iteration #  2     ecut=    40.00 Ry     beta= 0.70
     Davidson diagonalization with overlap
     ethr =  9.74E-07,  avg # of iterations =  1.0

     negative rho (up, down):  3.882E-03 0.000E+00

     total cpu time spent up to now is        8.8 secs

     total energy              =      -2.27509582 Ry
     estimated scf accuracy    <       0.00000020 Ry

     iteration #  3     ecut=    40.00 Ry     beta= 0.70
     Davidson diagonalization with overlap
     ethr =  9.89E-09,  avg # of iterations =  2.0

     negative rho (up, down):  3.881E-03 0.000E+00

     total cpu time spent up to now is        9.1 secs

     total energy              =      -2.27509586 Ry
     estimated scf accuracy    <       0.00000001 Ry

     iteration #  4     ecut=    40.00 Ry     beta= 0.70
     Davidson diagonalization with overlap
     ethr =  5.09E-10,  avg # of iterations =  1.0

     negative rho (up, down):  3.881E-03 0.000E+00

     total cpu time spent up to now is        9.4 secs

     End of self-consistent calculation

          k = 0.0000 0.0000 0.0000 ( 34265 PWs)   bands (ev):

   -10.1232

     highest occupied level (ev):   -10.1232

!    total energy              =      -2.27509586 Ry
     estimated scf accuracy    <          7.6E-11 Ry

     The total energy is the sum of the following terms:
     one-electron contribution =      -3.79824309 Ry
     hartree contribution      =       1.99788203 Ry
     xc contribution           =      -1.29118046 Ry
     ewald contribution        =       0.81644565 Ry

     convergence has been achieved in   4 iterations

     Forces acting on atoms (cartesian axes, Ry/au):

     atom    1 type  1   force =    -0.00198901    0.00000000    0.00000000
     atom    2 type  1   force =     0.00198901    0.00000000    0.00000000

     Total force =     0.002813     Total SCF correction =     0.000001
     Energy error            =      4.8E-05 Ry
     Gradient error          =      2.0E-03 Ry/Bohr

     number of scf cycles    =   5
     number of bfgs steps    =   3

     energy             old  =      -2.2750477539 Ry
     energy             new  =      -2.2750958627 Ry

     CASE: energy            _new < energy            _old

     new trust radius        =       0.0015260105 bohr
     new conv_thr            =            1.0E-10 Ry


ATOMIC_POSITIONS (angstrom)
H                0.1165075596        0.0000000000        0.0000000000
H                0.8834924404        0.0000000000        0.0000000000



     Writing config-only to output data dir ../results/h2/h2.save/ :
     XML data file
     NEW-OLD atomic charge density approx. for the potential

     negative rho (up, down):  3.882E-03 0.000E+00

     total cpu time spent up to now is        9.7 secs

     Self-consistent Calculation

     iteration #  1     ecut=    40.00 Ry     beta= 0.70
     Davidson diagonalization with overlap
     ethr =  1.00E-06,  avg # of iterations =  2.0

     Threshold (ethr) on eigenvalues was too large:
     Diagonalizing with lowered threshold

     Davidson diagonalization with overlap
     ethr =  3.53E-08,  avg # of iterations =  1.0

     negative rho (up, down):  3.876E-03 0.000E+00

     total cpu time spent up to now is       10.1 secs

     total energy              =      -2.27509969 Ry
     estimated scf accuracy    <       0.00000075 Ry

     iteration #  2     ecut=    40.00 Ry     beta= 0.70
     Davidson diagonalization with overlap
     ethr =  3.77E-08,  avg # of iterations =  1.0

     negative rho (up, down):  3.875E-03 0.000E+00

     total cpu time spent up to now is       10.4 secs

     total energy              =      -2.27509975 Ry
     estimated scf accuracy    <          7.6E-09 Ry

     iteration #  3     ecut=    40.00 Ry     beta= 0.70
     Davidson diagonalization with overlap
     ethr =  3.82E-10,  avg # of iterations =  2.0

     negative rho (up, down):  3.875E-03 0.000E+00

     total cpu time spent up to now is       10.8 secs

     total energy              =      -2.27509975 Ry
     estimated scf accuracy    <          4.0E-10 Ry

     iteration #  4     ecut=    40.00 Ry     beta= 0.70
     Davidson diagonalization with overlap
     ethr =  2.01E-11,  avg # of iterations =  1.0

     negative rho (up, down):  3.875E-03 0.000E+00

     total cpu time spent up to now is       11.0 secs

     End of self-consistent calculation

          k = 0.0000 0.0000 0.0000 ( 34265 PWs)   bands (ev):

   -10.1156

     highest occupied level (ev):   -10.1156

!    total energy              =      -2.27509975 Ry
     estimated scf accuracy    <          3.0E-12 Ry

     The total energy is the sum of the following terms:
     one-electron contribution =      -3.79415975 Ry
     hartree contribution      =       1.99578302 Ry
     xc contribution           =      -1.29026157 Ry
     ewald contribution        =       0.81353855 Ry

     convergence has been achieved in   4 iterations

     Forces acting on atoms (cartesian axes, Ry/au):

     atom    1 type  1   force =     0.00004266    0.00000000    0.00000000
     atom    2 type  1   force =    -0.00004266    0.00000000    0.00000000

     Total force =     0.000060     Total SCF correction =     0.000000
     Energy error            =      3.9E-06 Ry
     Gradient error          =      4.3E-05 Ry/Bohr

     bfgs converged in   6 scf cycles and   4 bfgs steps
     (criteria: energy <  1.0E-04 Ry, force <  1.0E-03 Ry/Bohr)

     End of BFGS Geometry Optimization

     Final energy             =      -2.2750997519 Ry

     File ../results/h2/h2.bfgs deleted, as requested
Begin final coordinates

ATOMIC_POSITIONS (angstrom)
H                0.1165075596        0.0000000000        0.0000000000
H                0.8834924404        0.0000000000        0.0000000000
End final coordinates



     Writing all to output data dir ../results/h2/h2.save/ :
     XML data file, charge density, pseudopotentials, collected wavefunctions

     init_run     :      0.48s CPU      0.43s WALL (       1 calls)
     electrons    :     12.05s CPU      8.65s WALL (       6 calls)
     update_pot   :      0.89s CPU      0.71s WALL (       5 calls)
     forces       :      1.18s CPU      0.84s WALL (       6 calls)

     Called by init_run:
     wfcinit      :      0.09s CPU      0.06s WALL (       1 calls)
     potinit      :      0.13s CPU      0.11s WALL (       1 calls)
     hinit0       :      0.09s CPU      0.09s WALL (       1 calls)

     Called by electrons:
     c_bands      :      3.59s CPU      2.29s WALL (      28 calls)
     sum_band     :      3.28s CPU      2.43s WALL (      28 calls)
     v_of_rho     :      2.44s CPU      1.60s WALL (      33 calls)
     newd         :      1.77s CPU      1.31s WALL (      33 calls)
     mix_rho      :      1.41s CPU      1.27s WALL (      28 calls)

     Called by c_bands:
     init_us_2    :      0.14s CPU      0.12s WALL (      57 calls)
     cegterg      :      3.48s CPU      2.19s WALL (      28 calls)

     Called by *egterg:
     cdiaghg      :      0.00s CPU      0.00s WALL (      74 calls)
     h_psi        :      3.27s CPU      2.03s WALL (      81 calls)
     s_psi        :      0.04s CPU      0.02s WALL (      81 calls)
     g_psi        :      0.03s CPU      0.02s WALL (      52 calls)

     Called by h_psi:
     h_psi:calbec :      0.08s CPU      0.05s WALL (      81 calls)
     vloc_psi     :      3.14s CPU      1.94s WALL (      81 calls)
     add_vuspsi   :      0.04s CPU      0.02s WALL (      81 calls)

     General routines
     calbec       :      0.12s CPU      0.08s WALL (     133 calls)
     fft          :      4.42s CPU      3.09s WALL (     150 calls)
     ffts         :      0.81s CPU      0.50s WALL (      28 calls)
     fftw         :      3.04s CPU      1.86s WALL (     192 calls)

     Parallel routines

     PWSCF        :     15.18s CPU     11.18s WALL


   This run was terminated on:  16:23:55   5Aug2024            

=------------------------------------------------------------------------------=
   JOB DONE.
=------------------------------------------------------------------------------=
