ITEM: TIMESTEP
0
ITEM: NUMBER OF ATOMS
480
ITEM: BOX BOUNDS pp pp pp
-3.0000000000000000e+01 3.0000000000000000e+01
-3.0000000000000000e+01 3.0000000000000000e+01
-3.0000000000000000e+01 3.0000000000000000e+01
ITEM: ATOMS id type xs ys zs
4 1 0.32603 0.2873 0.25
1 1 0.305563 0.299117 0.25
2 1 0.305563 0.32275 0.25
5 1 0.32603 0.334567 0.25
10 1 0.366964 0.2873 0.25
7 1 0.346497 0.299117 0.25
8 1 0.346497 0.32275 0.25
11 1 0.366964 0.334567 0.25
16 1 0.407898 0.2873 0.25
13 1 0.387431 0.299117 0.25
14 1 0.387431 0.32275 0.25
17 1 0.407898 0.334567 0.25
19 1 0.428365 0.299117 0.25
20 1 0.428365 0.32275 0.25
6 1 0.32603 0.3582 0.25
3 1 0.305563 0.370017 0.25
61 1 0.305563 0.39365 0.25
64 1 0.32603 0.405467 0.25
12 1 0.366964 0.3582 0.25
9 1 0.346497 0.370017 0.25
68 1 0.346497 0.39365 0.25
71 1 0.366964 0.405467 0.25
18 1 0.407898 0.3582 0.25
15 1 0.387431 0.370017 0.25
75 1 0.387431 0.39365 0.25
78 1 0.407898 0.405467 0.25
21 1 0.428365 0.370017 0.25
82 1 0.428365 0.39365 0.25
22 1 0.448832 0.2873 0.25
23 1 0.448832 0.334567 0.25
28 1 0.489766 0.2873 0.25
25 1 0.469299 0.299117 0.25
26 1 0.469299 0.32275 0.25
29 1 0.489766 0.334567 0.25
34 1 0.530701 0.2873 0.25
31 1 0.510234 0.299117 0.25
32 1 0.510234 0.32275 0.25
35 1 0.530701 0.334567 0.25
37 1 0.551168 0.299117 0.25
38 1 0.551168 0.32275 0.25
24 1 0.448832 0.3582 0.25
85 1 0.448832 0.405467 0.25
30 1 0.489766 0.3582 0.25
27 1 0.469299 0.370017 0.25
89 1 0.469299 0.39365 0.25
92 1 0.489766 0.405467 0.25
36 1 0.530701 0.3582 0.25
33 1 0.510234 0.370017 0.25
96 1 0.510234 0.39365 0.25
99 1 0.530701 0.405467 0.25
39 1 0.551168 0.370017 0.25
103 1 0.551168 0.39365 0.25
40 1 0.571635 0.2873 0.25
41 1 0.571635 0.334567 0.25
46 1 0.612569 0.2873 0.25
43 1 0.592102 0.299117 0.25
44 1 0.592102 0.32275 0.25
47 1 0.612569 0.334567 0.25
52 1 0.653503 0.2873 0.25
49 1 0.633036 0.299117 0.25
50 1 0.633036 0.32275 0.25
53 1 0.653503 0.334567 0.25
58 1 0.694437 0.2873 0.25
55 1 0.67397 0.299117 0.25
56 1 0.67397 0.32275 0.25
59 1 0.694437 0.334567 0.25
42 1 0.571635 0.3582 0.25
106 1 0.571635 0.405467 0.25
48 1 0.612569 0.3582 0.25
45 1 0.592102 0.370017 0.25
110 1 0.592102 0.39365 0.25
113 1 0.612569 0.405467 0.25
54 1 0.653503 0.3582 0.25
51 1 0.633036 0.370017 0.25
117 1 0.633036 0.39365 0.25
120 1 0.653503 0.405467 0.25
60 1 0.694437 0.3582 0.25
57 1 0.67397 0.370017 0.25
124 1 0.67397 0.39365 0.25
127 1 0.694437 0.405467 0.25
65 1 0.32603 0.4291 0.25
62 1 0.305563 0.440917 0.25
63 1 0.305563 0.46455 0.25
66 1 0.32603 0.476367 0.25
72 1 0.366964 0.4291 0.25
69 1 0.346497 0.440917 0.25
70 1 0.346497 0.46455 0.25
73 1 0.366964 0.476367 0.25
79 1 0.407898 0.4291 0.25
76 1 0.387431 0.440917 0.25
77 1 0.387431 0.46455 0.25
80 1 0.407898 0.476367 0.25
83 1 0.428365 0.440917 0.25
84 1 0.428365 0.46455 0.25
67 1 0.32603 0.5 0.25
131 1 0.305563 0.511817 0.25
132 1 0.305563 0.53545 0.25
135 1 0.32603 0.547267 0.25
74 1 0.366964 0.5 0.25
137 1 0.346497 0.511817 0.25
138 1 0.346497 0.53545 0.25
141 1 0.366964 0.547267 0.25
81 1 0.407898 0.5 0.25
143 1 0.387431 0.511817 0.25
144 1 0.387431 0.53545 0.25
147 1 0.407898 0.547267 0.25
149 1 0.428365 0.511817 0.25
150 1 0.428365 0.53545 0.25
136 1 0.32603 0.5709 0.25
142 1 0.366964 0.5709 0.25
148 1 0.407898 0.5709 0.25
86 1 0.448832 0.4291 0.25
87 1 0.448832 0.476367 0.25
93 1 0.489766 0.4291 0.25
90 1 0.469299 0.440917 0.25
91 1 0.469299 0.46455 0.25
94 1 0.489766 0.476367 0.25
100 1 0.530701 0.4291 0.25
97 1 0.510234 0.440917 0.25
98 1 0.510234 0.46455 0.25
101 1 0.530701 0.476367 0.25
104 1 0.551168 0.440917 0.25
105 1 0.551168 0.46455 0.25
88 1 0.448832 0.5 0.25
153 1 0.448832 0.547267 0.25
95 1 0.489766 0.5 0.25
155 1 0.469299 0.511817 0.25
156 1 0.469299 0.53545 0.25
159 1 0.489766 0.547267 0.25
102 1 0.530701 0.5 0.25
161 1 0.510234 0.511817 0.25
162 1 0.510234 0.53545 0.25
165 1 0.530701 0.547267 0.25
167 1 0.551168 0.511817 0.25
168 1 0.551168 0.53545 0.25
154 1 0.448832 0.5709 0.25
160 1 0.489766 0.5709 0.25
166 1 0.530701 0.5709 0.25
107 1 0.571635 0.4291 0.25
108 1 0.571635 0.476367 0.25
114 1 0.612569 0.4291 0.25
111 1 0.592102 0.440917 0.25
112 1 0.592102 0.46455 0.25
115 1 0.612569 0.476367 0.25
121 1 0.653503 0.4291 0.25
118 1 0.633036 0.440917 0.25
119 1 0.633036 0.46455 0.25
122 1 0.653503 0.476367 0.25
128 1 0.694437 0.4291 0.25
125 1 0.67397 0.440917 0.25
126 1 0.67397 0.46455 0.25
129 1 0.694437 0.476367 0.25
109 1 0.571635 0.5 0.25
171 1 0.571635 0.547267 0.25
116 1 0.612569 0.5 0.25
173 1 0.592102 0.511817 0.25
174 1 0.592102 0.53545 0.25
177 1 0.612569 0.547267 0.25
123 1 0.653503 0.5 0.25
179 1 0.633036 0.511817 0.25
180 1 0.633036 0.53545 0.25
183 1 0.653503 0.547267 0.25
130 1 0.694437 0.5 0.25
185 1 0.67397 0.511817 0.25
186 1 0.67397 0.53545 0.25
189 1 0.694437 0.547267 0.25
172 1 0.571635 0.5709 0.25
178 1 0.612569 0.5709 0.25
184 1 0.653503 0.5709 0.25
190 1 0.694437 0.5709 0.25
133 1 0.305563 0.582717 0.25
134 1 0.305563 0.60635 0.25
193 1 0.32603 0.618167 0.25
139 1 0.346497 0.582717 0.25
140 1 0.346497 0.60635 0.25
198 1 0.366964 0.618167 0.25
145 1 0.387431 0.582717 0.25
146 1 0.387431 0.60635 0.25
203 1 0.407898 0.618167 0.25
151 1 0.428365 0.582717 0.25
152 1 0.428365 0.60635 0.25
194 1 0.32603 0.6418 0.25
191 1 0.305563 0.653617 0.25
192 1 0.305563 0.67725 0.25
195 1 0.32603 0.689067 0.25
199 1 0.366964 0.6418 0.25
196 1 0.346497 0.653617 0.25
197 1 0.346497 0.67725 0.25
200 1 0.366964 0.689067 0.25
204 1 0.407898 0.6418 0.25
201 1 0.387431 0.653617 0.25
202 1 0.387431 0.67725 0.25
205 1 0.407898 0.689067 0.25
206 1 0.428365 0.653617 0.25
207 1 0.428365 0.67725 0.25
208 1 0.448832 0.618167 0.25
157 1 0.469299 0.582717 0.25
158 1 0.469299 0.60635 0.25
213 1 0.489766 0.618167 0.25
163 1 0.510234 0.582717 0.25
164 1 0.510234 0.60635 0.25
218 1 0.530701 0.618167 0.25
169 1 0.551168 0.582717 0.25
170 1 0.551168 0.60635 0.25
209 1 0.448832 0.6418 0.25
210 1 0.448832 0.689067 0.25
214 1 0.489766 0.6418 0.25
211 1 0.469299 0.653617 0.25
212 1 0.469299 0.67725 0.25
215 1 0.489766 0.689067 0.25
219 1 0.530701 0.6418 0.25
216 1 0.510234 0.653617 0.25
217 1 0.510234 0.67725 0.25
220 1 0.530701 0.689067 0.25
221 1 0.551168 0.653617 0.25
222 1 0.551168 0.67725 0.25
223 1 0.571635 0.618167 0.25
175 1 0.592102 0.582717 0.25
176 1 0.592102 0.60635 0.25
228 1 0.612569 0.618167 0.25
181 1 0.633036 0.582717 0.25
182 1 0.633036 0.60635 0.25
233 1 0.653503 0.618167 0.25
187 1 0.67397 0.582717 0.25
188 1 0.67397 0.60635 0.25
238 1 0.694437 0.618167 0.25
224 1 0.571635 0.6418 0.25
225 1 0.571635 0.689067 0.25
229 1 0.612569 0.6418 0.25
226 1 0.592102 0.653617 0.25
227 1 0.592102 0.67725 0.25
230 1 0.612569 0.689067 0.25
234 1 0.653503 0.6418 0.25
231 1 0.633036 0.653617 0.25
232 1 0.633036 0.67725 0.25
235 1 0.653503 0.689067 0.25
239 1 0.694437 0.6418 0.25
236 1 0.67397 0.653617 0.25
237 1 0.67397 0.67725 0.25
240 1 0.694437 0.689067 0.25
243 1 0.32603 0.310933 0.75
241 1 0.305563 0.32275 0.75
242 1 0.305563 0.346383 0.75
244 1 0.32603 0.3582 0.75
248 1 0.366964 0.310933 0.75
246 1 0.346497 0.32275 0.75
247 1 0.346497 0.346383 0.75
249 1 0.366964 0.3582 0.75
253 1 0.407898 0.310933 0.75
251 1 0.387431 0.32275 0.75
252 1 0.387431 0.346383 0.75
254 1 0.407898 0.3582 0.75
256 1 0.428365 0.32275 0.75
257 1 0.428365 0.346383 0.75
245 1 0.32603 0.381833 0.75
291 1 0.305563 0.39365 0.75
292 1 0.305563 0.417283 0.75
250 1 0.366964 0.381833 0.75
298 1 0.346497 0.39365 0.75
299 1 0.346497 0.417283 0.75
255 1 0.407898 0.381833 0.75
305 1 0.387431 0.39365 0.75
306 1 0.387431 0.417283 0.75
312 1 0.428365 0.39365 0.75
313 1 0.428365 0.417283 0.75
258 1 0.448832 0.310933 0.75
259 1 0.448832 0.3582 0.75
263 1 0.489766 0.310933 0.75
261 1 0.469299 0.32275 0.75
262 1 0.469299 0.346383 0.75
264 1 0.489766 0.3582 0.75
268 1 0.530701 0.310933 0.75
266 1 0.510234 0.32275 0.75
267 1 0.510234 0.346383 0.75
269 1 0.530701 0.3582 0.75
271 1 0.551168 0.32275 0.75
272 1 0.551168 0.346383 0.75
260 1 0.448832 0.381833 0.75
265 1 0.489766 0.381833 0.75
319 1 0.469299 0.39365 0.75
320 1 0.469299 0.417283 0.75
270 1 0.530701 0.381833 0.75
326 1 0.510234 0.39365 0.75
327 1 0.510234 0.417283 0.75
333 1 0.551168 0.39365 0.75
334 1 0.551168 0.417283 0.75
273 1 0.571635 0.310933 0.75
274 1 0.571635 0.3582 0.75
278 1 0.612569 0.310933 0.75
276 1 0.592102 0.32275 0.75
277 1 0.592102 0.346383 0.75
279 1 0.612569 0.3582 0.75
283 1 0.653503 0.310933 0.75
281 1 0.633036 0.32275 0.75
282 1 0.633036 0.346383 0.75
284 1 0.653503 0.3582 0.75
288 1 0.694437 0.310933 0.75
286 1 0.67397 0.32275 0.75
287 1 0.67397 0.346383 0.75
289 1 0.694437 0.3582 0.75
275 1 0.571635 0.381833 0.75
280 1 0.612569 0.381833 0.75
340 1 0.592102 0.39365 0.75
341 1 0.592102 0.417283 0.75
285 1 0.653503 0.381833 0.75
347 1 0.633036 0.39365 0.75
348 1 0.633036 0.417283 0.75
290 1 0.694437 0.381833 0.75
354 1 0.67397 0.39365 0.75
355 1 0.67397 0.417283 0.75
295 1 0.32603 0.4291 0.75
302 1 0.366964 0.4291 0.75
309 1 0.407898 0.4291 0.75
296 1 0.32603 0.452733 0.75
293 1 0.305563 0.46455 0.75
294 1 0.305563 0.488183 0.75
297 1 0.32603 0.5 0.75
303 1 0.366964 0.452733 0.75
300 1 0.346497 0.46455 0.75
301 1 0.346497 0.488183 0.75
304 1 0.366964 0.5 0.75
310 1 0.407898 0.452733 0.75
307 1 0.387431 0.46455 0.75
308 1 0.387431 0.488183 0.75
311 1 0.407898 0.5 0.75
314 1 0.428365 0.46455 0.75
315 1 0.428365 0.488183 0.75
364 1 0.32603 0.523633 0.75
361 1 0.305563 0.53545 0.75
362 1 0.305563 0.559083 0.75
365 1 0.32603 0.5709 0.75
370 1 0.366964 0.523633 0.75
367 1 0.346497 0.53545 0.75
368 1 0.346497 0.559083 0.75
371 1 0.366964 0.5709 0.75
376 1 0.407898 0.523633 0.75
373 1 0.387431 0.53545 0.75
374 1 0.387431 0.559083 0.75
377 1 0.407898 0.5709 0.75
379 1 0.428365 0.53545 0.75
380 1 0.428365 0.559083 0.75
316 1 0.448832 0.4291 0.75
323 1 0.489766 0.4291 0.75
330 1 0.530701 0.4291 0.75
317 1 0.448832 0.452733 0.75
318 1 0.448832 0.5 0.75
324 1 0.489766 0.452733 0.75
321 1 0.469299 0.46455 0.75
322 1 0.469299 0.488183 0.75
325 1 0.489766 0.5 0.75
331 1 0.530701 0.452733 0.75
328 1 0.510234 0.46455 0.75
329 1 0.510234 0.488183 0.75
332 1 0.530701 0.5 0.75
335 1 0.551168 0.46455 0.75
336 1 0.551168 0.488183 0.75
382 1 0.448832 0.523633 0.75
383 1 0.448832 0.5709 0.75
388 1 0.489766 0.523633 0.75
385 1 0.469299 0.53545 0.75
386 1 0.469299 0.559083 0.75
389 1 0.489766 0.5709 0.75
394 1 0.530701 0.523633 0.75
391 1 0.510234 0.53545 0.75
392 1 0.510234 0.559083 0.75
395 1 0.530701 0.5709 0.75
397 1 0.551168 0.53545 0.75
398 1 0.551168 0.559083 0.75
337 1 0.571635 0.4291 0.75
344 1 0.612569 0.4291 0.75
351 1 0.653503 0.4291 0.75
358 1 0.694437 0.4291 0.75
338 1 0.571635 0.452733 0.75
339 1 0.571635 0.5 0.75
345 1 0.612569 0.452733 0.75
342 1 0.592102 0.46455 0.75
343 1 0.592102 0.488183 0.75
346 1 0.612569 0.5 0.75
352 1 0.653503 0.452733 0.75
349 1 0.633036 0.46455 0.75
350 1 0.633036 0.488183 0.75
353 1 0.653503 0.5 0.75
359 1 0.694437 0.452733 0.75
356 1 0.67397 0.46455 0.75
357 1 0.67397 0.488183 0.75
360 1 0.694437 0.5 0.75
400 1 0.571635 0.523633 0.75
401 1 0.571635 0.5709 0.75
406 1 0.612569 0.523633 0.75
403 1 0.592102 0.53545 0.75
404 1 0.592102 0.559083 0.75
407 1 0.612569 0.5709 0.75
412 1 0.653503 0.523633 0.75
409 1 0.633036 0.53545 0.75
410 1 0.633036 0.559083 0.75
413 1 0.653503 0.5709 0.75
418 1 0.694437 0.523633 0.75
415 1 0.67397 0.53545 0.75
416 1 0.67397 0.559083 0.75
419 1 0.694437 0.5709 0.75
366 1 0.32603 0.594533 0.75
363 1 0.305563 0.60635 0.75
421 1 0.305563 0.629983 0.75
424 1 0.32603 0.6418 0.75
372 1 0.366964 0.594533 0.75
369 1 0.346497 0.60635 0.75
427 1 0.346497 0.629983 0.75
430 1 0.366964 0.6418 0.75
378 1 0.407898 0.594533 0.75
375 1 0.387431 0.60635 0.75
433 1 0.387431 0.629983 0.75
436 1 0.407898 0.6418 0.75
381 1 0.428365 0.60635 0.75
439 1 0.428365 0.629983 0.75
425 1 0.32603 0.665433 0.75
422 1 0.305563 0.67725 0.75
423 1 0.305563 0.700883 0.75
426 1 0.32603 0.7127 0.75
431 1 0.366964 0.665433 0.75
428 1 0.346497 0.67725 0.75
429 1 0.346497 0.700883 0.75
432 1 0.366964 0.7127 0.75
437 1 0.407898 0.665433 0.75
434 1 0.387431 0.67725 0.75
435 1 0.387431 0.700883 0.75
438 1 0.407898 0.7127 0.75
440 1 0.428365 0.67725 0.75
441 1 0.428365 0.700883 0.75
384 1 0.448832 0.594533 0.75
442 1 0.448832 0.6418 0.75
390 1 0.489766 0.594533 0.75
387 1 0.469299 0.60635 0.75
445 1 0.469299 0.629983 0.75
448 1 0.489766 0.6418 0.75
396 1 0.530701 0.594533 0.75
393 1 0.510234 0.60635 0.75
451 1 0.510234 0.629983 0.75
454 1 0.530701 0.6418 0.75
399 1 0.551168 0.60635 0.75
457 1 0.551168 0.629983 0.75
443 1 0.448832 0.665433 0.75
444 1 0.448832 0.7127 0.75
449 1 0.489766 0.665433 0.75
446 1 0.469299 0.67725 0.75
447 1 0.469299 0.700883 0.75
450 1 0.489766 0.7127 0.75
455 1 0.530701 0.665433 0.75
452 1 0.510234 0.67725 0.75
453 1 0.510234 0.700883 0.75
456 1 0.530701 0.7127 0.75
458 1 0.551168 0.67725 0.75
459 1 0.551168 0.700883 0.75
402 1 0.571635 0.594533 0.75
460 1 0.571635 0.6418 0.75
408 1 0.612569 0.594533 0.75
405 1 0.592102 0.60635 0.75
463 1 0.592102 0.629983 0.75
466 1 0.612569 0.6418 0.75
414 1 0.653503 0.594533 0.75
411 1 0.633036 0.60635 0.75
469 1 0.633036 0.629983 0.75
472 1 0.653503 0.6418 0.75
420 1 0.694437 0.594533 0.75
417 1 0.67397 0.60635 0.75
475 1 0.67397 0.629983 0.75
478 1 0.694437 0.6418 0.75
461 1 0.571635 0.665433 0.75
462 1 0.571635 0.7127 0.75
467 1 0.612569 0.665433 0.75
464 1 0.592102 0.67725 0.75
465 1 0.592102 0.700883 0.75
468 1 0.612569 0.7127 0.75
473 1 0.653503 0.665433 0.75
470 1 0.633036 0.67725 0.75
471 1 0.633036 0.700883 0.75
474 1 0.653503 0.7127 0.75
479 1 0.694437 0.665433 0.75
476 1 0.67397 0.67725 0.75
477 1 0.67397 0.700883 0.75
480 1 0.694437 0.7127 0.75
ITEM: TIMESTEP
5
ITEM: NUMBER OF ATOMS
480
ITEM: BOX BOUNDS pp pp pp
-3.0000000000000000e+01 3.0000000000000000e+01
-3.0000000000000000e+01 3.0000000000000000e+01
-3.0000000000000000e+01 3.0000000000000000e+01
ITEM: ATOMS id type xs ys zs
4 1 0.326637 0.287726 0.25
1 1 0.306254 0.299304 0.25
2 1 0.306176 0.32276 0.25
5 1 0.326383 0.334709 0.25
10 1 0.3671 0.287998 0.25
7 1 0.346827 0.299623 0.25
8 1 0.346767 0.323072 0.25
11 1 0.367071 0.334843 0.25
16 1 0.40791 0.287989 0.25
13 1 0.387467 0.299585 0.25
14 1 0.387451 0.323069 0.25
17 1 0.407897 0.334786 0.25
19 1 0.428367 0.299573 0.25
20 1 0.428367 0.323074 0.25
6 1 0.326439 0.358215 0.25
3 1 0.306277 0.370121 0.25
61 1 0.306279 0.393547 0.25
64 1 0.326468 0.405485 0.25
12 1 0.367065 0.358273 0.25
9 1 0.346761 0.370026 0.25
68 1 0.346771 0.393623 0.25
71 1 0.367061 0.405504 0.25
18 1 0.407898 0.358291 0.25
15 1 0.387443 0.370012 0.25
75 1 0.387443 0.393645 0.25
78 1 0.407898 0.405474 0.25
21 1 0.428367 0.369997 0.25
82 1 0.428367 0.393659 0.25
22 1 0.448833 0.287992 0.25
23 1 0.448833 0.334782 0.25
28 1 0.489767 0.287992 0.25
25 1 0.4693 0.299573 0.25
26 1 0.4693 0.323075 0.25
29 1 0.489767 0.334782 0.25
34 1 0.5307 0.287992 0.25
31 1 0.510233 0.299573 0.25
32 1 0.510233 0.323075 0.25
35 1 0.5307 0.334782 0.25
37 1 0.551167 0.299573 0.25
38 1 0.551167 0.323075 0.25
24 1 0.448834 0.358296 0.25
85 1 0.448834 0.405469 0.25
30 1 0.489767 0.358297 0.25
27 1 0.4693 0.369996 0.25
89 1 0.4693 0.39366 0.25
92 1 0.489767 0.405469 0.25
36 1 0.5307 0.358297 0.25
33 1 0.510233 0.369996 0.25
96 1 0.510233 0.39366 0.25
99 1 0.5307 0.405469 0.25
39 1 0.551166 0.369996 0.25
103 1 0.551166 0.39366 0.25
40 1 0.571633 0.287991 0.25
41 1 0.571634 0.334783 0.25
46 1 0.612552 0.287991 0.25
43 1 0.592105 0.29957 0.25
44 1 0.592102 0.32307 0.25
47 1 0.61256 0.334794 0.25
52 1 0.653238 0.287964 0.25
49 1 0.632922 0.299635 0.25
50 1 0.632926 0.323068 0.25
53 1 0.65324 0.334809 0.25
58 1 0.693497 0.287294 0.25
55 1 0.673575 0.299484 0.25
56 1 0.67358 0.322983 0.25
59 1 0.69379 0.334789 0.25
42 1 0.571633 0.358295 0.25
106 1 0.571633 0.40547 0.25
48 1 0.612557 0.358281 0.25
45 1 0.592102 0.370001 0.25
110 1 0.592102 0.393655 0.25
113 1 0.612557 0.405484 0.25
54 1 0.653227 0.358263 0.25
51 1 0.632939 0.370032 0.25
117 1 0.632939 0.393624 0.25
120 1 0.65323 0.405504 0.25
60 1 0.693735 0.358128 0.25
57 1 0.67353 0.370023 0.25
124 1 0.67353 0.393642 0.25
127 1 0.693722 0.405576 0.25
65 1 0.326469 0.429083 0.25
62 1 0.306278 0.441025 0.25
63 1 0.306278 0.464442 0.25
66 1 0.326469 0.476384 0.25
72 1 0.367061 0.429066 0.25
69 1 0.346771 0.440953 0.25
70 1 0.346771 0.464514 0.25
73 1 0.367061 0.476402 0.25
79 1 0.407898 0.429096 0.25
76 1 0.387443 0.440932 0.25
77 1 0.387443 0.464535 0.25
80 1 0.407898 0.476372 0.25
83 1 0.428367 0.440919 0.25
84 1 0.428367 0.464549 0.25
67 1 0.326469 0.499982 0.25
131 1 0.306278 0.511924 0.25
132 1 0.306278 0.535342 0.25
135 1 0.326469 0.547283 0.25
74 1 0.367061 0.499965 0.25
137 1 0.346771 0.511852 0.25
138 1 0.346771 0.535414 0.25
141 1 0.367061 0.547301 0.25
81 1 0.407898 0.499994 0.25
143 1 0.387443 0.511832 0.25
144 1 0.387443 0.535434 0.25
147 1 0.407898 0.547271 0.25
149 1 0.428367 0.511818 0.25
150 1 0.428367 0.535448 0.25
136 1 0.326468 0.570881 0.25
142 1 0.367061 0.570863 0.25
148 1 0.407898 0.570892 0.25
86 1 0.448834 0.429101 0.25
87 1 0.448834 0.476367 0.25
93 1 0.489767 0.429101 0.25
90 1 0.4693 0.440917 0.25
91 1 0.4693 0.46455 0.25
94 1 0.489767 0.476367 0.25
100 1 0.5307 0.429101 0.25
97 1 0.510233 0.440917 0.25
98 1 0.510233 0.46455 0.25
101 1 0.5307 0.476367 0.25
104 1 0.551166 0.440918 0.25
105 1 0.551166 0.46455 0.25
88 1 0.448834 0.5 0.25
153 1 0.448834 0.547266 0.25
95 1 0.489767 0.5 0.25
155 1 0.4693 0.511816 0.25
156 1 0.4693 0.535449 0.25
159 1 0.489767 0.547265 0.25
102 1 0.5307 0.5 0.25
161 1 0.510233 0.511816 0.25
162 1 0.510233 0.535449 0.25
165 1 0.5307 0.547265 0.25
167 1 0.551166 0.511817 0.25
168 1 0.551166 0.535449 0.25
154 1 0.448834 0.570897 0.25
160 1 0.489767 0.570898 0.25
166 1 0.5307 0.570898 0.25
107 1 0.571633 0.4291 0.25
108 1 0.571633 0.476368 0.25
114 1 0.612557 0.429086 0.25
111 1 0.592102 0.440923 0.25
112 1 0.592102 0.464545 0.25
115 1 0.612557 0.476382 0.25
121 1 0.653229 0.429065 0.25
118 1 0.632939 0.440953 0.25
119 1 0.632939 0.464515 0.25
122 1 0.653229 0.476403 0.25
128 1 0.693722 0.428993 0.25
125 1 0.673531 0.440935 0.25
126 1 0.673531 0.464533 0.25
129 1 0.693722 0.476474 0.25
109 1 0.571633 0.499998 0.25
171 1 0.571633 0.547267 0.25
116 1 0.612557 0.499985 0.25
173 1 0.592102 0.511822 0.25
174 1 0.592102 0.535444 0.25
177 1 0.612557 0.54728 0.25
123 1 0.653229 0.499964 0.25
179 1 0.632939 0.511852 0.25
180 1 0.632939 0.535414 0.25
183 1 0.653229 0.547301 0.25
130 1 0.693722 0.499892 0.25
185 1 0.673531 0.511834 0.25
186 1 0.673531 0.535432 0.25
189 1 0.693722 0.547373 0.25
172 1 0.571633 0.570896 0.25
178 1 0.612557 0.570883 0.25
184 1 0.65323 0.570862 0.25
190 1 0.693722 0.570791 0.25
133 1 0.306279 0.58282 0.25
134 1 0.306277 0.606245 0.25
193 1 0.326439 0.618151 0.25
139 1 0.346771 0.582743 0.25
140 1 0.346761 0.606341 0.25
198 1 0.367065 0.618094 0.25
145 1 0.387443 0.582722 0.25
146 1 0.387443 0.606355 0.25
203 1 0.407898 0.618076 0.25
151 1 0.428367 0.582708 0.25
152 1 0.428367 0.606369 0.25
194 1 0.326383 0.641657 0.25
191 1 0.306176 0.653607 0.25
192 1 0.306254 0.677063 0.25
195 1 0.326637 0.688641 0.25
199 1 0.367071 0.641524 0.25
196 1 0.346767 0.653294 0.25
197 1 0.346827 0.676744 0.25
200 1 0.3671 0.688369 0.25
204 1 0.407897 0.64158 0.25
201 1 0.387451 0.653298 0.25
202 1 0.387467 0.676782 0.25
205 1 0.40791 0.688378 0.25
206 1 0.428367 0.653293 0.25
207 1 0.428367 0.676793 0.25
208 1 0.448834 0.61807 0.25
157 1 0.4693 0.582706 0.25
158 1 0.4693 0.606371 0.25
213 1 0.489767 0.61807 0.25
163 1 0.510233 0.582706 0.25
164 1 0.510233 0.606371 0.25
218 1 0.5307 0.61807 0.25
169 1 0.551166 0.582707 0.25
170 1 0.551166 0.60637 0.25
209 1 0.448833 0.641585 0.25
210 1 0.448833 0.688375 0.25
214 1 0.489767 0.641585 0.25
211 1 0.4693 0.653292 0.25
212 1 0.4693 0.676794 0.25
215 1 0.489767 0.688374 0.25
219 1 0.5307 0.641585 0.25
216 1 0.510233 0.653292 0.25
217 1 0.510233 0.676794 0.25
220 1 0.5307 0.688374 0.25
221 1 0.551167 0.653292 0.25
222 1 0.551167 0.676793 0.25
223 1 0.571633 0.618072 0.25
175 1 0.592102 0.582712 0.25
176 1 0.592102 0.606365 0.25
228 1 0.612557 0.618086 0.25
181 1 0.632939 0.582742 0.25
182 1 0.632939 0.606335 0.25
233 1 0.653227 0.618104 0.25
187 1 0.67353 0.582725 0.25
188 1 0.67353 0.606343 0.25
238 1 0.693735 0.618239 0.25
224 1 0.571634 0.641584 0.25
225 1 0.571633 0.688375 0.25
229 1 0.61256 0.641572 0.25
226 1 0.592102 0.653297 0.25
227 1 0.592105 0.676797 0.25
230 1 0.612552 0.688376 0.25
234 1 0.65324 0.641558 0.25
231 1 0.632926 0.653298 0.25
232 1 0.632922 0.676732 0.25
235 1 0.653238 0.688403 0.25
239 1 0.69379 0.641578 0.25
236 1 0.67358 0.653384 0.25
237 1 0.673575 0.676882 0.25
240 1 0.693497 0.689073 0.25
243 1 0.326637 0.311359 0.75
241 1 0.306254 0.322937 0.75
242 1 0.306176 0.346393 0.75
244 1 0.326383 0.358343 0.75
248 1 0.3671 0.311631 0.75
246 1 0.346827 0.323256 0.75
247 1 0.346767 0.346706 0.75
249 1 0.367071 0.358476 0.75
253 1 0.40791 0.311622 0.75
251 1 0.387467 0.323218 0.75
252 1 0.387451 0.346702 0.75
254 1 0.407897 0.358419 0.75
256 1 0.428367 0.323207 0.75
257 1 0.428367 0.346707 0.75
245 1 0.326439 0.381849 0.75
291 1 0.306277 0.393755 0.75
292 1 0.306279 0.41718 0.75
250 1 0.367065 0.381906 0.75
298 1 0.346761 0.393659 0.75
299 1 0.346771 0.417257 0.75
255 1 0.407898 0.381924 0.75
305 1 0.387443 0.393645 0.75
306 1 0.387443 0.417278 0.75
312 1 0.428367 0.393631 0.75
313 1 0.428367 0.417292 0.75
258 1 0.448833 0.311625 0.75
259 1 0.448833 0.358415 0.75
263 1 0.489767 0.311626 0.75
261 1 0.4693 0.323206 0.75
262 1 0.4693 0.346708 0.75
264 1 0.489767 0.358415 0.75
268 1 0.5307 0.311626 0.75
266 1 0.510233 0.323206 0.75
267 1 0.510233 0.346708 0.75
269 1 0.5307 0.358415 0.75
271 1 0.551167 0.323207 0.75
272 1 0.551167 0.346708 0.75
260 1 0.448834 0.38193 0.75
265 1 0.489767 0.38193 0.75
319 1 0.4693 0.393629 0.75
320 1 0.4693 0.417294 0.75
270 1 0.5307 0.38193 0.75
326 1 0.510233 0.393629 0.75
327 1 0.510233 0.417294 0.75
333 1 0.551166 0.39363 0.75
334 1 0.551166 0.417293 0.75
273 1 0.571633 0.311625 0.75
274 1 0.571634 0.358416 0.75
278 1 0.612552 0.311624 0.75
276 1 0.592105 0.323203 0.75
277 1 0.592102 0.346703 0.75
279 1 0.61256 0.358428 0.75
283 1 0.653238 0.311597 0.75
281 1 0.632922 0.323268 0.75
282 1 0.632926 0.346702 0.75
284 1 0.65324 0.358442 0.75
288 1 0.693497 0.310927 0.75
286 1 0.673575 0.323118 0.75
287 1 0.67358 0.346616 0.75
289 1 0.69379 0.358422 0.75
275 1 0.571633 0.381928 0.75
280 1 0.612557 0.381914 0.75
340 1 0.592102 0.393635 0.75
341 1 0.592102 0.417288 0.75
285 1 0.653227 0.381896 0.75
347 1 0.632939 0.393665 0.75
348 1 0.632939 0.417258 0.75
290 1 0.693735 0.381761 0.75
354 1 0.67353 0.393657 0.75
355 1 0.67353 0.417275 0.75
295 1 0.326468 0.429119 0.75
302 1 0.367061 0.429137 0.75
309 1 0.407898 0.429108 0.75
296 1 0.326469 0.452717 0.75
293 1 0.306278 0.464658 0.75
294 1 0.306278 0.488076 0.75
297 1 0.326469 0.500018 0.75
303 1 0.367061 0.452699 0.75
300 1 0.346771 0.464586 0.75
301 1 0.346771 0.488148 0.75
304 1 0.367061 0.500035 0.75
310 1 0.407898 0.452729 0.75
307 1 0.387443 0.464566 0.75
308 1 0.387443 0.488168 0.75
311 1 0.407898 0.500006 0.75
314 1 0.428367 0.464552 0.75
315 1 0.428367 0.488182 0.75
364 1 0.326469 0.523616 0.75
361 1 0.306278 0.535558 0.75
362 1 0.306278 0.558975 0.75
365 1 0.326469 0.570917 0.75
370 1 0.367061 0.523598 0.75
367 1 0.346771 0.535486 0.75
368 1 0.346771 0.559047 0.75
371 1 0.367061 0.570934 0.75
376 1 0.407898 0.523628 0.75
373 1 0.387443 0.535465 0.75
374 1 0.387443 0.559068 0.75
377 1 0.407898 0.570904 0.75
379 1 0.428367 0.535451 0.75
380 1 0.428367 0.559081 0.75
316 1 0.448834 0.429103 0.75
323 1 0.489767 0.429102 0.75
330 1 0.5307 0.429102 0.75
317 1 0.448834 0.452734 0.75
318 1 0.448834 0.5 0.75
324 1 0.489767 0.452735 0.75
321 1 0.4693 0.464551 0.75
322 1 0.4693 0.488184 0.75
325 1 0.489767 0.5 0.75
331 1 0.5307 0.452735 0.75
328 1 0.510233 0.464551 0.75
329 1 0.510233 0.488184 0.75
332 1 0.5307 0.5 0.75
335 1 0.551166 0.464551 0.75
336 1 0.551166 0.488183 0.75
382 1 0.448834 0.523633 0.75
383 1 0.448834 0.570899 0.75
388 1 0.489767 0.523633 0.75
385 1 0.4693 0.53545 0.75
386 1 0.4693 0.559083 0.75
389 1 0.489767 0.570899 0.75
394 1 0.5307 0.523633 0.75
391 1 0.510233 0.53545 0.75
392 1 0.510233 0.559083 0.75
395 1 0.5307 0.570899 0.75
397 1 0.551166 0.53545 0.75
398 1 0.551166 0.559082 0.75
337 1 0.571633 0.429104 0.75
344 1 0.612557 0.429117 0.75
351 1 0.65323 0.429138 0.75
358 1 0.693722 0.429209 0.75
338 1 0.571633 0.452733 0.75
339 1 0.571633 0.500002 0.75
345 1 0.612557 0.45272 0.75
342 1 0.592102 0.464556 0.75
343 1 0.592102 0.488178 0.75
346 1 0.612557 0.500015 0.75
352 1 0.653229 0.452699 0.75
349 1 0.632939 0.464586 0.75
350 1 0.632939 0.488148 0.75
353 1 0.653229 0.500036 0.75
359 1 0.693722 0.452627 0.75
356 1 0.673531 0.464568 0.75
357 1 0.673531 0.488166 0.75
360 1 0.693722 0.500108 0.75
400 1 0.571633 0.523632 0.75
401 1 0.571633 0.5709 0.75
406 1 0.612557 0.523618 0.75
403 1 0.592102 0.535455 0.75
404 1 0.592102 0.559077 0.75
407 1 0.612557 0.570914 0.75
412 1 0.653229 0.523597 0.75
409 1 0.632939 0.535485 0.75
410 1 0.632939 0.559047 0.75
413 1 0.653229 0.570935 0.75
418 1 0.693722 0.523526 0.75
415 1 0.673531 0.535467 0.75
416 1 0.673531 0.559065 0.75
419 1 0.693722 0.571007 0.75
366 1 0.326468 0.594515 0.75
363 1 0.306279 0.606453 0.75
421 1 0.306277 0.629879 0.75
424 1 0.326439 0.641785 0.75
372 1 0.367061 0.594496 0.75
369 1 0.346771 0.606377 0.75
427 1 0.346761 0.629974 0.75
430 1 0.367065 0.641727 0.75
378 1 0.407898 0.594526 0.75
375 1 0.387443 0.606355 0.75
433 1 0.387443 0.629988 0.75
436 1 0.407898 0.641709 0.75
381 1 0.428367 0.606341 0.75
439 1 0.428367 0.630003 0.75
425 1 0.326383 0.665291 0.75
422 1 0.306176 0.67724 0.75
423 1 0.306254 0.700696 0.75
426 1 0.326637 0.712274 0.75
431 1 0.367071 0.665157 0.75
428 1 0.346767 0.676928 0.75
429 1 0.346827 0.700377 0.75
432 1 0.3671 0.712002 0.75
437 1 0.407897 0.665214 0.75
434 1 0.387451 0.676931 0.75
435 1 0.387467 0.700415 0.75
438 1 0.40791 0.712011 0.75
440 1 0.428367 0.676926 0.75
441 1 0.428367 0.700427 0.75
384 1 0.448834 0.594531 0.75
442 1 0.448834 0.641704 0.75
390 1 0.489767 0.594531 0.75
387 1 0.4693 0.60634 0.75
445 1 0.4693 0.630004 0.75
448 1 0.489767 0.641703 0.75
396 1 0.5307 0.594531 0.75
393 1 0.510233 0.60634 0.75
451 1 0.510233 0.630004 0.75
454 1 0.5307 0.641703 0.75
399 1 0.551166 0.60634 0.75
457 1 0.551166 0.630004 0.75
443 1 0.448833 0.665218 0.75
444 1 0.448833 0.712008 0.75
449 1 0.489767 0.665218 0.75
446 1 0.4693 0.676925 0.75
447 1 0.4693 0.700427 0.75
450 1 0.489767 0.712008 0.75
455 1 0.5307 0.665218 0.75
452 1 0.510233 0.676925 0.75
453 1 0.510233 0.700427 0.75
456 1 0.5307 0.712008 0.75
458 1 0.551167 0.676925 0.75
459 1 0.551167 0.700427 0.75
402 1 0.571633 0.59453 0.75
460 1 0.571633 0.641705 0.75
408 1 0.612557 0.594516 0.75
405 1 0.592102 0.606345 0.75
463 1 0.592102 0.629999 0.75
466 1 0.612557 0.641719 0.75
414 1 0.65323 0.594496 0.75
411 1 0.632939 0.606376 0.75
469 1 0.632939 0.629968 0.75
472 1 0.653227 0.641737 0.75
420 1 0.693722 0.594424 0.75
417 1 0.67353 0.606358 0.75
475 1 0.67353 0.629977 0.75
478 1 0.693735 0.641872 0.75
461 1 0.571634 0.665217 0.75
462 1 0.571633 0.712009 0.75
467 1 0.61256 0.665206 0.75
464 1 0.592102 0.67693 0.75
465 1 0.592105 0.70043 0.75
468 1 0.612552 0.712009 0.75
473 1 0.65324 0.665191 0.75
470 1 0.632926 0.676932 0.75
471 1 0.632922 0.700365 0.75
474 1 0.653238 0.712036 0.75
479 1 0.69379 0.665212 0.75
476 1 0.67358 0.677017 0.75
477 1 0.673575 0.700516 0.75
480 1 0.693497 0.712706 0.75
ITEM: TIMESTEP
100
ITEM: NUMBER OF ATOMS
480
ITEM: BOX BOUNDS pp pp pp
-3.0000000000000000e+01 3.0000000000000000e+01
-3.0000000000000000e+01 3.0000000000000000e+01
-3.0000000000000000e+01 3.0000000000000000e+01
ITEM: ATOMS id type xs ys zs
4 1 0.326637 0.287726 0.25
1 1 0.306254 0.299304 0.25
2 1 0.306176 0.32276 0.25
5 1 0.326383 0.334709 0.25
10 1 0.3671 0.287998 0.25
7 1 0.346827 0.299623 0.25
8 1 0.346767 0.323072 0.25
11 1 0.367071 0.334843 0.25
16 1 0.40791 0.287989 0.25
13 1 0.387467 0.299585 0.25
14 1 0.387451 0.323069 0.25
17 1 0.407897 0.334786 0.25
19 1 0.428367 0.299573 0.25
20 1 0.428367 0.323074 0.25
6 1 0.326439 0.358215 0.25
3 1 0.306277 0.370121 0.25
61 1 0.306279 0.393547 0.25
64 1 0.326468 0.405485 0.25
12 1 0.367065 0.358273 0.25
9 1 0.346761 0.370026 0.25
68 1 0.346771 0.393623 0.25
71 1 0.367061 0.405504 0.25
18 1 0.407898 0.358291 0.25
15 1 0.387443 0.370012 0.25
75 1 0.387443 0.393645 0.25
78 1 0.407898 0.405474 0.25
21 1 0.428367 0.369997 0.25
82 1 0.428367 0.393659 0.25
22 1 0.448833 0.287992 0.25
23 1 0.448833 0.334782 0.25
28 1 0.489767 0.287992 0.25
25 1 0.4693 0.299573 0.25
26 1 0.4693 0.323075 0.25
29 1 0.489767 0.334782 0.25
34 1 0.5307 0.287992 0.25
31 1 0.510233 0.299573 0.25
32 1 0.510233 0.323075 0.25
35 1 0.5307 0.334782 0.25
37 1 0.551167 0.299573 0.25
38 1 0.551167 0.323075 0.25
24 1 0.448834 0.358296 0.25
85 1 0.448834 0.405469 0.25
30 1 0.489767 0.358297 0.25
27 1 0.4693 0.369996 0.25
89 1 0.4693 0.39366 0.25
92 1 0.489767 0.405469 0.25
36 1 0.5307 0.358297 0.25
33 1 0.510233 0.369996 0.25
96 1 0.510233 0.39366 0.25
99 1 0.5307 0.405469 0.25
39 1 0.551166 0.369996 0.25
103 1 0.551166 0.39366 0.25
40 1 0.571633 0.287991 0.25
41 1 0.571634 0.334783 0.25
46 1 0.612552 0.287991 0.25
43 1 0.592105 0.29957 0.25
44 1 0.592102 0.32307 0.25
47 1 0.61256 0.334794 0.25
52 1 0.653238 0.287964 0.25
49 1 0.632922 0.299635 0.25
50 1 0.632926 0.323068 0.25
53 1 0.65324 0.334809 0.25
58 1 0.693497 0.287294 0.25
55 1 0.673575 0.299484 0.25
56 1 0.67358 0.322983 0.25
59 1 0.69379 0.334789 0.25
42 1 0.571633 0.358295 0.25
106 1 0.571633 0.40547 0.25
48 1 0.612557 0.358281 0.25
45 1 0.592102 0.370001 0.25
110 1 0.592102 0.393655 0.25
113 1 0.612557 0.405484 0.25
54 1 0.653227 0.358263 0.25
51 1 0.632939 0.370032 0.25
117 1 0.632939 0.393624 0.25
120 1 0.65323 0.405504 0.25
60 1 0.693735 0.358128 0.25
57 1 0.67353 0.370023 0.25
124 1 0.67353 0.393642 0.25
127 1 0.693722 0.405576 0.25
65 1 0.326469 0.429083 0.25
62 1 0.306278 0.441025 0.25
63 1 0.306278 0.464442 0.25
66 1 0.326469 0.476384 0.25