ITEM: TIMESTEP
0
ITEM: NUMBER OF ATOMS
960
ITEM: BOX BOUNDS pp pp pp
-3.0000000000000000e+01 3.0000000000000000e+01
-3.0000000000000000e+01 3.0000000000000000e+01
-1.8000000000000000e+01 1.8000000000000000e+01
ITEM: ATOMS id type xs ys zs
4 1 0.32603 0.2873 0.125
1 1 0.305563 0.299117 0.125
2 1 0.305563 0.32275 0.125
5 1 0.32603 0.334567 0.125
10 1 0.366964 0.2873 0.125
7 1 0.346497 0.299117 0.125
8 1 0.346497 0.32275 0.125
11 1 0.366964 0.334567 0.125
16 1 0.407898 0.2873 0.125
13 1 0.387431 0.299117 0.125
14 1 0.387431 0.32275 0.125
17 1 0.407898 0.334567 0.125
19 1 0.428365 0.299117 0.125
20 1 0.428365 0.32275 0.125
6 1 0.32603 0.3582 0.125
3 1 0.305563 0.370017 0.125
61 1 0.305563 0.39365 0.125
63 1 0.32603 0.405467 0.125
12 1 0.366964 0.3582 0.125
9 1 0.346497 0.370017 0.125
65 1 0.346497 0.39365 0.125
67 1 0.366964 0.405467 0.125
18 1 0.407898 0.3582 0.125
15 1 0.387431 0.370017 0.125
69 1 0.387431 0.39365 0.125
71 1 0.407898 0.405467 0.125
21 1 0.428365 0.370017 0.125
73 1 0.428365 0.39365 0.125
22 1 0.448832 0.2873 0.125
23 1 0.448832 0.334567 0.125
28 1 0.489766 0.2873 0.125
25 1 0.469299 0.299117 0.125
26 1 0.469299 0.32275 0.125
29 1 0.489766 0.334567 0.125
34 1 0.530701 0.2873 0.125
31 1 0.510234 0.299117 0.125
32 1 0.510234 0.32275 0.125
35 1 0.530701 0.334567 0.125
37 1 0.551168 0.299117 0.125
38 1 0.551168 0.32275 0.125
24 1 0.448832 0.3582 0.125
75 1 0.448832 0.405467 0.125
30 1 0.489766 0.3582 0.125
27 1 0.469299 0.370017 0.125
77 1 0.469299 0.39365 0.125
79 1 0.489766 0.405467 0.125
36 1 0.530701 0.3582 0.125
33 1 0.510234 0.370017 0.125
81 1 0.510234 0.39365 0.125
83 1 0.530701 0.405467 0.125
39 1 0.551168 0.370017 0.125
85 1 0.551168 0.39365 0.125
40 1 0.571635 0.2873 0.125
41 1 0.571635 0.334567 0.125
46 1 0.612569 0.2873 0.125
43 1 0.592102 0.299117 0.125
44 1 0.592102 0.32275 0.125
47 1 0.612569 0.334567 0.125
52 1 0.653503 0.2873 0.125
49 1 0.633036 0.299117 0.125
50 1 0.633036 0.32275 0.125
53 1 0.653503 0.334567 0.125
58 1 0.694437 0.2873 0.125
55 1 0.67397 0.299117 0.125
56 1 0.67397 0.32275 0.125
59 1 0.694437 0.334567 0.125
42 1 0.571635 0.3582 0.125
87 1 0.571635 0.405467 0.125
48 1 0.612569 0.3582 0.125
45 1 0.592102 0.370017 0.125
89 1 0.592102 0.39365 0.125
91 1 0.612569 0.405467 0.125
54 1 0.653503 0.3582 0.125
51 1 0.633036 0.370017 0.125
93 1 0.633036 0.39365 0.125
95 1 0.653503 0.405467 0.125
60 1 0.694437 0.3582 0.125
57 1 0.67397 0.370017 0.125
97 1 0.67397 0.39365 0.125
99 1 0.694437 0.405467 0.125
64 1 0.32603 0.4291 0.125
62 1 0.305563 0.440917 0.125
101 1 0.305563 0.46455 0.125
104 1 0.32603 0.476367 0.125
68 1 0.366964 0.4291 0.125
66 1 0.346497 0.440917 0.125
106 1 0.346497 0.46455 0.125
109 1 0.366964 0.476367 0.125
72 1 0.407898 0.4291 0.125
70 1 0.387431 0.440917 0.125
111 1 0.387431 0.46455 0.125
114 1 0.407898 0.476367 0.125
74 1 0.428365 0.440917 0.125
116 1 0.428365 0.46455 0.125
105 1 0.32603 0.5 0.125
102 1 0.305563 0.511817 0.125
103 1 0.305563 0.53545 0.125
153 1 0.32603 0.547267 0.125
110 1 0.366964 0.5 0.125
107 1 0.346497 0.511817 0.125
108 1 0.346497 0.53545 0.125
158 1 0.366964 0.547267 0.125
115 1 0.407898 0.5 0.125
112 1 0.387431 0.511817 0.125
113 1 0.387431 0.53545 0.125
163 1 0.407898 0.547267 0.125
117 1 0.428365 0.511817 0.125
118 1 0.428365 0.53545 0.125
154 1 0.32603 0.5709 0.125
159 1 0.366964 0.5709 0.125
164 1 0.407898 0.5709 0.125
76 1 0.448832 0.4291 0.125
119 1 0.448832 0.476367 0.125
80 1 0.489766 0.4291 0.125
78 1 0.469299 0.440917 0.125
121 1 0.469299 0.46455 0.125
124 1 0.489766 0.476367 0.125
84 1 0.530701 0.4291 0.125
82 1 0.510234 0.440917 0.125
126 1 0.510234 0.46455 0.125
129 1 0.530701 0.476367 0.125
86 1 0.551168 0.440917 0.125
131 1 0.551168 0.46455 0.125
120 1 0.448832 0.5 0.125
168 1 0.448832 0.547267 0.125
125 1 0.489766 0.5 0.125
122 1 0.469299 0.511817 0.125
123 1 0.469299 0.53545 0.125
173 1 0.489766 0.547267 0.125
130 1 0.530701 0.5 0.125
127 1 0.510234 0.511817 0.125
128 1 0.510234 0.53545 0.125
178 1 0.530701 0.547267 0.125
132 1 0.551168 0.511817 0.125
133 1 0.551168 0.53545 0.125
169 1 0.448832 0.5709 0.125
174 1 0.489766 0.5709 0.125
179 1 0.530701 0.5709 0.125
88 1 0.571635 0.4291 0.125
134 1 0.571635 0.476367 0.125
92 1 0.612569 0.4291 0.125
90 1 0.592102 0.440917 0.125
136 1 0.592102 0.46455 0.125
139 1 0.612569 0.476367 0.125
96 1 0.653503 0.4291 0.125
94 1 0.633036 0.440917 0.125
141 1 0.633036 0.46455 0.125
144 1 0.653503 0.476367 0.125
100 1 0.694437 0.4291 0.125
98 1 0.67397 0.440917 0.125
146 1 0.67397 0.46455 0.125
149 1 0.694437 0.476367 0.125
135 1 0.571635 0.5 0.125
183 1 0.571635 0.547267 0.125
140 1 0.612569 0.5 0.125
137 1 0.592102 0.511817 0.125
138 1 0.592102 0.53545 0.125
188 1 0.612569 0.547267 0.125
145 1 0.653503 0.5 0.125
142 1 0.633036 0.511817 0.125
143 1 0.633036 0.53545 0.125
193 1 0.653503 0.547267 0.125
150 1 0.694437 0.5 0.125
147 1 0.67397 0.511817 0.125
148 1 0.67397 0.53545 0.125
198 1 0.694437 0.547267 0.125
184 1 0.571635 0.5709 0.125
189 1 0.612569 0.5709 0.125
194 1 0.653503 0.5709 0.125
199 1 0.694437 0.5709 0.125
151 1 0.305563 0.582717 0.125
152 1 0.305563 0.60635 0.125
155 1 0.32603 0.618167 0.125
156 1 0.346497 0.582717 0.125
157 1 0.346497 0.60635 0.125
160 1 0.366964 0.618167 0.125
161 1 0.387431 0.582717 0.125
162 1 0.387431 0.60635 0.125
165 1 0.407898 0.618167 0.125
166 1 0.428365 0.582717 0.125
167 1 0.428365 0.60635 0.125
203 1 0.32603 0.6418 0.125
201 1 0.305563 0.653617 0.125
202 1 0.305563 0.67725 0.125
204 1 0.32603 0.689067 0.125
207 1 0.366964 0.6418 0.125
205 1 0.346497 0.653617 0.125
206 1 0.346497 0.67725 0.125
208 1 0.366964 0.689067 0.125
211 1 0.407898 0.6418 0.125
209 1 0.387431 0.653617 0.125
210 1 0.387431 0.67725 0.125
212 1 0.407898 0.689067 0.125
213 1 0.428365 0.653617 0.125
214 1 0.428365 0.67725 0.125
170 1 0.448832 0.618167 0.125
171 1 0.469299 0.582717 0.125
172 1 0.469299 0.60635 0.125
175 1 0.489766 0.618167 0.125
176 1 0.510234 0.582717 0.125
177 1 0.510234 0.60635 0.125
180 1 0.530701 0.618167 0.125
181 1 0.551168 0.582717 0.125
182 1 0.551168 0.60635 0.125
215 1 0.448832 0.6418 0.125
216 1 0.448832 0.689067 0.125
219 1 0.489766 0.6418 0.125
217 1 0.469299 0.653617 0.125
218 1 0.469299 0.67725 0.125
220 1 0.489766 0.689067 0.125
223 1 0.530701 0.6418 0.125
221 1 0.510234 0.653617 0.125
222 1 0.510234 0.67725 0.125
224 1 0.530701 0.689067 0.125
225 1 0.551168 0.653617 0.125
226 1 0.551168 0.67725 0.125
185 1 0.571635 0.618167 0.125
186 1 0.592102 0.582717 0.125
187 1 0.592102 0.60635 0.125
190 1 0.612569 0.618167 0.125
191 1 0.633036 0.582717 0.125
192 1 0.633036 0.60635 0.125
195 1 0.653503 0.618167 0.125
196 1 0.67397 0.582717 0.125
197 1 0.67397 0.60635 0.125
200 1 0.694437 0.618167 0.125
227 1 0.571635 0.6418 0.125
228 1 0.571635 0.689067 0.125
231 1 0.612569 0.6418 0.125
229 1 0.592102 0.653617 0.125
230 1 0.592102 0.67725 0.125
232 1 0.612569 0.689067 0.125
235 1 0.653503 0.6418 0.125
233 1 0.633036 0.653617 0.125
234 1 0.633036 0.67725 0.125
236 1 0.653503 0.689067 0.125
239 1 0.694437 0.6418 0.125
237 1 0.67397 0.653617 0.125
238 1 0.67397 0.67725 0.125
240 1 0.694437 0.689067 0.125
243 1 0.32603 0.310933 0.375
241 1 0.305563 0.32275 0.375
242 1 0.305563 0.346383 0.375
244 1 0.32603 0.3582 0.375
247 1 0.366964 0.310933 0.375
245 1 0.346497 0.32275 0.375
246 1 0.346497 0.346383 0.375
248 1 0.366964 0.3582 0.375
251 1 0.407898 0.310933 0.375
249 1 0.387431 0.32275 0.375
250 1 0.387431 0.346383 0.375
252 1 0.407898 0.3582 0.375
253 1 0.428365 0.32275 0.375
254 1 0.428365 0.346383 0.375
283 1 0.32603 0.381833 0.375
281 1 0.305563 0.39365 0.375
282 1 0.305563 0.417283 0.375
288 1 0.366964 0.381833 0.375
286 1 0.346497 0.39365 0.375
287 1 0.346497 0.417283 0.375
293 1 0.407898 0.381833 0.375
291 1 0.387431 0.39365 0.375
292 1 0.387431 0.417283 0.375
296 1 0.428365 0.39365 0.375
297 1 0.428365 0.417283 0.375
255 1 0.448832 0.310933 0.375
256 1 0.448832 0.3582 0.375
259 1 0.489766 0.310933 0.375
257 1 0.469299 0.32275 0.375
258 1 0.469299 0.346383 0.375
260 1 0.489766 0.3582 0.375
263 1 0.530701 0.310933 0.375
261 1 0.510234 0.32275 0.375
262 1 0.510234 0.346383 0.375
264 1 0.530701 0.3582 0.375
265 1 0.551168 0.32275 0.375
266 1 0.551168 0.346383 0.375
298 1 0.448832 0.381833 0.375
303 1 0.489766 0.381833 0.375
301 1 0.469299 0.39365 0.375
302 1 0.469299 0.417283 0.375
308 1 0.530701 0.381833 0.375
306 1 0.510234 0.39365 0.375
307 1 0.510234 0.417283 0.375
311 1 0.551168 0.39365 0.375
312 1 0.551168 0.417283 0.375
267 1 0.571635 0.310933 0.375
268 1 0.571635 0.3582 0.375
271 1 0.612569 0.310933 0.375
269 1 0.592102 0.32275 0.375
270 1 0.592102 0.346383 0.375
272 1 0.612569 0.3582 0.375
275 1 0.653503 0.310933 0.375
273 1 0.633036 0.32275 0.375
274 1 0.633036 0.346383 0.375
276 1 0.653503 0.3582 0.375
279 1 0.694437 0.310933 0.375
277 1 0.67397 0.32275 0.375
278 1 0.67397 0.346383 0.375
280 1 0.694437 0.3582 0.375
313 1 0.571635 0.381833 0.375
318 1 0.612569 0.381833 0.375
316 1 0.592102 0.39365 0.375
317 1 0.592102 0.417283 0.375
323 1 0.653503 0.381833 0.375
321 1 0.633036 0.39365 0.375
322 1 0.633036 0.417283 0.375
328 1 0.694437 0.381833 0.375
326 1 0.67397 0.39365 0.375
327 1 0.67397 0.417283 0.375
284 1 0.32603 0.4291 0.375
289 1 0.366964 0.4291 0.375
294 1 0.407898 0.4291 0.375
285 1 0.32603 0.452733 0.375
331 1 0.305563 0.46455 0.375
332 1 0.305563 0.488183 0.375
334 1 0.32603 0.5 0.375
290 1 0.366964 0.452733 0.375
336 1 0.346497 0.46455 0.375
337 1 0.346497 0.488183 0.375
339 1 0.366964 0.5 0.375
295 1 0.407898 0.452733 0.375
341 1 0.387431 0.46455 0.375
342 1 0.387431 0.488183 0.375
344 1 0.407898 0.5 0.375
346 1 0.428365 0.46455 0.375
347 1 0.428365 0.488183 0.375
335 1 0.32603 0.523633 0.375
333 1 0.305563 0.53545 0.375
381 1 0.305563 0.559083 0.375
383 1 0.32603 0.5709 0.375
340 1 0.366964 0.523633 0.375
338 1 0.346497 0.53545 0.375
385 1 0.346497 0.559083 0.375
387 1 0.366964 0.5709 0.375
345 1 0.407898 0.523633 0.375
343 1 0.387431 0.53545 0.375
389 1 0.387431 0.559083 0.375
391 1 0.407898 0.5709 0.375
348 1 0.428365 0.53545 0.375
393 1 0.428365 0.559083 0.375
299 1 0.448832 0.4291 0.375
304 1 0.489766 0.4291 0.375
309 1 0.530701 0.4291 0.375
300 1 0.448832 0.452733 0.375
349 1 0.448832 0.5 0.375
305 1 0.489766 0.452733 0.375
351 1 0.469299 0.46455 0.375
352 1 0.469299 0.488183 0.375
354 1 0.489766 0.5 0.375
310 1 0.530701 0.452733 0.375
356 1 0.510234 0.46455 0.375
357 1 0.510234 0.488183 0.375
359 1 0.530701 0.5 0.375
361 1 0.551168 0.46455 0.375
362 1 0.551168 0.488183 0.375
350 1 0.448832 0.523633 0.375
395 1 0.448832 0.5709 0.375
355 1 0.489766 0.523633 0.375
353 1 0.469299 0.53545 0.375
397 1 0.469299 0.559083 0.375
399 1 0.489766 0.5709 0.375
360 1 0.530701 0.523633 0.375
358 1 0.510234 0.53545 0.375
401 1 0.510234 0.559083 0.375
403 1 0.530701 0.5709 0.375
363 1 0.551168 0.53545 0.375
405 1 0.551168 0.559083 0.375
314 1 0.571635 0.4291 0.375
319 1 0.612569 0.4291 0.375
324 1 0.653503 0.4291 0.375
329 1 0.694437 0.4291 0.375
315 1 0.571635 0.452733 0.375
364 1 0.571635 0.5 0.375
320 1 0.612569 0.452733 0.375
366 1 0.592102 0.46455 0.375
367 1 0.592102 0.488183 0.375
369 1 0.612569 0.5 0.375
325 1 0.653503 0.452733 0.375
371 1 0.633036 0.46455 0.375
372 1 0.633036 0.488183 0.375
374 1 0.653503 0.5 0.375
330 1 0.694437 0.452733 0.375
376 1 0.67397 0.46455 0.375
377 1 0.67397 0.488183 0.375
379 1 0.694437 0.5 0.375
365 1 0.571635 0.523633 0.375
407 1 0.571635 0.5709 0.375
370 1 0.612569 0.523633 0.375
368 1 0.592102 0.53545 0.375
409 1 0.592102 0.559083 0.375
411 1 0.612569 0.5709 0.375
375 1 0.653503 0.523633 0.375
373 1 0.633036 0.53545 0.375
413 1 0.633036 0.559083 0.375
415 1 0.653503 0.5709 0.375
380 1 0.694437 0.523633 0.375
378 1 0.67397 0.53545 0.375
417 1 0.67397 0.559083 0.375
419 1 0.694437 0.5709 0.375
384 1 0.32603 0.594533 0.375
382 1 0.305563 0.60635 0.375
421 1 0.305563 0.629983 0.375
424 1 0.32603 0.6418 0.375
388 1 0.366964 0.594533 0.375
386 1 0.346497 0.60635 0.375
427 1 0.346497 0.629983 0.375
430 1 0.366964 0.6418 0.375
392 1 0.407898 0.594533 0.375
390 1 0.387431 0.60635 0.375
433 1 0.387431 0.629983 0.375
436 1 0.407898 0.6418 0.375
394 1 0.428365 0.60635 0.375
439 1 0.428365 0.629983 0.375
425 1 0.32603 0.665433 0.375
422 1 0.305563 0.67725 0.375
423 1 0.305563 0.700883 0.375
426 1 0.32603 0.7127 0.375
431 1 0.366964 0.665433 0.375
428 1 0.346497 0.67725 0.375
429 1 0.346497 0.700883 0.375
432 1 0.366964 0.7127 0.375
437 1 0.407898 0.665433 0.375
434 1 0.387431 0.67725 0.375
435 1 0.387431 0.700883 0.375
438 1 0.407898 0.7127 0.375
440 1 0.428365 0.67725 0.375
441 1 0.428365 0.700883 0.375
396 1 0.448832 0.594533 0.375
442 1 0.448832 0.6418 0.375
400 1 0.489766 0.594533 0.375
398 1 0.469299 0.60635 0.375
445 1 0.469299 0.629983 0.375
448 1 0.489766 0.6418 0.375
404 1 0.530701 0.594533 0.375
402 1 0.510234 0.60635 0.375
451 1 0.510234 0.629983 0.375
454 1 0.530701 0.6418 0.375
406 1 0.551168 0.60635 0.375
457 1 0.551168 0.629983 0.375
443 1 0.448832 0.665433 0.375
444 1 0.448832 0.7127 0.375
449 1 0.489766 0.665433 0.375
446 1 0.469299 0.67725 0.375
447 1 0.469299 0.700883 0.375
450 1 0.489766 0.7127 0.375
455 1 0.530701 0.665433 0.375
452 1 0.510234 0.67725 0.375
453 1 0.510234 0.700883 0.375
456 1 0.530701 0.7127 0.375
458 1 0.551168 0.67725 0.375
459 1 0.551168 0.700883 0.375
408 1 0.571635 0.594533 0.375
460 1 0.571635 0.6418 0.375
412 1 0.612569 0.594533 0.375
410 1 0.592102 0.60635 0.375
463 1 0.592102 0.629983 0.375
466 1 0.612569 0.6418 0.375
416 1 0.653503 0.594533 0.375
414 1 0.633036 0.60635 0.375
469 1 0.633036 0.629983 0.375
472 1 0.653503 0.6418 0.375
420 1 0.694437 0.594533 0.375
418 1 0.67397 0.60635 0.375
475 1 0.67397 0.629983 0.375
478 1 0.694437 0.6418 0.375
461 1 0.571635 0.665433 0.375
462 1 0.571635 0.7127 0.375
467 1 0.612569 0.665433 0.375
464 1 0.592102 0.67725 0.375
465 1 0.592102 0.700883 0.375
468 1 0.612569 0.7127 0.375
473 1 0.653503 0.665433 0.375
470 1 0.633036 0.67725 0.375
471 1 0.633036 0.700883 0.375
474 1 0.653503 0.7127 0.375
479 1 0.694437 0.665433 0.375
476 1 0.67397 0.67725 0.375
477 1 0.67397 0.700883 0.375
480 1 0.694437 0.7127 0.375
484 1 0.32603 0.2873 0.625
481 1 0.305563 0.299117 0.625
482 1 0.305563 0.32275 0.625
485 1 0.32603 0.334567 0.625
490 1 0.366964 0.2873 0.625
487 1 0.346497 0.299117 0.625
488 1 0.346497 0.32275 0.625
491 1 0.366964 0.334567 0.625
496 1 0.407898 0.2873 0.625
493 1 0.387431 0.299117 0.625
494 1 0.387431 0.32275 0.625
497 1 0.407898 0.334567 0.625
499 1 0.428365 0.299117 0.625
500 1 0.428365 0.32275 0.625
486 1 0.32603 0.3582 0.625
483 1 0.305563 0.370017 0.625
541 1 0.305563 0.39365 0.625
543 1 0.32603 0.405467 0.625
492 1 0.366964 0.3582 0.625
489 1 0.346497 0.370017 0.625
545 1 0.346497 0.39365 0.625
547 1 0.366964 0.405467 0.625
498 1 0.407898 0.3582 0.625
495 1 0.387431 0.370017 0.625
549 1 0.387431 0.39365 0.625
551 1 0.407898 0.405467 0.625
501 1 0.428365 0.370017 0.625
553 1 0.428365 0.39365 0.625
502 1 0.448832 0.2873 0.625
503 1 0.448832 0.334567 0.625
508 1 0.489766 0.2873 0.625
505 1 0.469299 0.299117 0.625
506 1 0.469299 0.32275 0.625
509 1 0.489766 0.334567 0.625
514 1 0.530701 0.2873 0.625
511 1 0.510234 0.299117 0.625
512 1 0.510234 0.32275 0.625
515 1 0.530701 0.334567 0.625
517 1 0.551168 0.299117 0.625
518 1 0.551168 0.32275 0.625
504 1 0.448832 0.3582 0.625
555 1 0.448832 0.405467 0.625
510 1 0.489766 0.3582 0.625
507 1 0.469299 0.370017 0.625
557 1 0.469299 0.39365 0.625
559 1 0.489766 0.405467 0.625
516 1 0.530701 0.3582 0.625
513 1 0.510234 0.370017 0.625
561 1 0.510234 0.39365 0.625
563 1 0.530701 0.405467 0.625
519 1 0.551168 0.370017 0.625
565 1 0.551168 0.39365 0.625
520 1 0.571635 0.2873 0.625
521 1 0.571635 0.334567 0.625
526 1 0.612569 0.2873 0.625
523 1 0.592102 0.299117 0.625
524 1 0.592102 0.32275 0.625
527 1 0.612569 0.334567 0.625
532 1 0.653503 0.2873 0.625
529 1 0.633036 0.299117 0.625
530 1 0.633036 0.32275 0.625
533 1 0.653503 0.334567 0.625
538 1 0.694437 0.2873 0.625
535 1 0.67397 0.299117 0.625
536 1 0.67397 0.32275 0.625
539 1 0.694437 0.334567 0.625
522 1 0.571635 0.3582 0.625
567 1 0.571635 0.405467 0.625
528 1 0.612569 0.3582 0.625
525 1 0.592102 0.370017 0.625
569 1 0.592102 0.39365 0.625
571 1 0.612569 0.405467 0.625
534 1 0.653503 0.3582 0.625
531 1 0.633036 0.370017 0.625
573 1 0.633036 0.39365 0.625
575 1 0.653503 0.405467 0.625
540 1 0.694437 0.3582 0.625
537 1 0.67397 0.370017 0.625
577 1 0.67397 0.39365 0.625
579 1 0.694437 0.405467 0.625
544 1 0.32603 0.4291 0.625
542 1 0.305563 0.440917 0.625
581 1 0.305563 0.46455 0.625
584 1 0.32603 0.476367 0.625
548 1 0.366964 0.4291 0.625
546 1 0.346497 0.440917 0.625
586 1 0.346497 0.46455 0.625
589 1 0.366964 0.476367 0.625
552 1 0.407898 0.4291 0.625
550 1 0.387431 0.440917 0.625
591 1 0.387431 0.46455 0.625
594 1 0.407898 0.476367 0.625
554 1 0.428365 0.440917 0.625
596 1 0.428365 0.46455 0.625
585 1 0.32603 0.5 0.625
582 1 0.305563 0.511817 0.625
583 1 0.305563 0.53545 0.625
633 1 0.32603 0.547267 0.625
590 1 0.366964 0.5 0.625
587 1 0.346497 0.511817 0.625
588 1 0.346497 0.53545 0.625
638 1 0.366964 0.547267 0.625
595 1 0.407898 0.5 0.625
592 1 0.387431 0.511817 0.625
593 1 0.387431 0.53545 0.625
643 1 0.407898 0.547267 0.625
597 1 0.428365 0.511817 0.625
598 1 0.428365 0.53545 0.625
634 1 0.32603 0.5709 0.625
639 1 0.366964 0.5709 0.625
644 1 0.407898 0.5709 0.625
556 1 0.448832 0.4291 0.625
599 1 0.448832 0.476367 0.625
560 1 0.489766 0.4291 0.625
558 1 0.469299 0.440917 0.625
601 1 0.469299 0.46455 0.625
604 1 0.489766 0.476367 0.625
564 1 0.530701 0.4291 0.625
562 1 0.510234 0.440917 0.625
606 1 0.510234 0.46455 0.625
609 1 0.530701 0.476367 0.625
566 1 0.551168 0.440917 0.625
611 1 0.551168 0.46455 0.625
600 1 0.448832 0.5 0.625
648 1 0.448832 0.547267 0.625
605 1 0.489766 0.5 0.625
602 1 0.469299 0.511817 0.625
603 1 0.469299 0.53545 0.625
653 1 0.489766 0.547267 0.625
610 1 0.530701 0.5 0.625
607 1 0.510234 0.511817 0.625
608 1 0.510234 0.53545 0.625
658 1 0.530701 0.547267 0.625
612 1 0.551168 0.511817 0.625
613 1 0.551168 0.53545 0.625
649 1 0.448832 0.5709 0.625
654 1 0.489766 0.5709 0.625
659 1 0.530701 0.5709 0.625
568 1 0.571635 0.4291 0.625
614 1 0.571635 0.476367 0.625
572 1 0.612569 0.4291 0.625
570 1 0.592102 0.440917 0.625
616 1 0.592102 0.46455 0.625
619 1 0.612569 0.476367 0.625
576 1 0.653503 0.4291 0.625
574 1 0.633036 0.440917 0.625
621 1 0.633036 0.46455 0.625
624 1 0.653503 0.476367 0.625
580 1 0.694437 0.4291 0.625
578 1 0.67397 0.440917 0.625
626 1 0.67397 0.46455 0.625
629 1 0.694437 0.476367 0.625
615 1 0.571635 0.5 0.625
663 1 0.571635 0.547267 0.625
620 1 0.612569 0.5 0.625
617 1 0.592102 0.511817 0.625
618 1 0.592102 0.53545 0.625
668 1 0.612569 0.547267 0.625
625 1 0.653503 0.5 0.625
622 1 0.633036 0.511817 0.625
623 1 0.633036 0.53545 0.625
673 1 0.653503 0.547267 0.625
630 1 0.694437 0.5 0.625
627 1 0.67397 0.511817 0.625
628 1 0.67397 0.53545 0.625
678 1 0.694437 0.547267 0.625
664 1 0.571635 0.5709 0.625
669 1 0.612569 0.5709 0.625
674 1 0.653503 0.5709 0.625
679 1 0.694437 0.5709 0.625
631 1 0.305563 0.582717 0.625
632 1 0.305563 0.60635 0.625
635 1 0.32603 0.618167 0.625
636 1 0.346497 0.582717 0.625
637 1 0.346497 0.60635 0.625
640 1 0.366964 0.618167 0.625
641 1 0.387431 0.582717 0.625
642 1 0.387431 0.60635 0.625
645 1 0.407898 0.618167 0.625
646 1 0.428365 0.582717 0.625
647 1 0.428365 0.60635 0.625
683 1 0.32603 0.6418 0.625
681 1 0.305563 0.653617 0.625
682 1 0.305563 0.67725 0.625
684 1 0.32603 0.689067 0.625
687 1 0.366964 0.6418 0.625
685 1 0.346497 0.653617 0.625
686 1 0.346497 0.67725 0.625
688 1 0.366964 0.689067 0.625
691 1 0.407898 0.6418 0.625
689 1 0.387431 0.653617 0.625
690 1 0.387431 0.67725 0.625
692 1 0.407898 0.689067 0.625
693 1 0.428365 0.653617 0.625
694 1 0.428365 0.67725 0.625
650 1 0.448832 0.618167 0.625
651 1 0.469299 0.582717 0.625
652 1 0.469299 0.60635 0.625
655 1 0.489766 0.618167 0.625
656 1 0.510234 0.582717 0.625
657 1 0.510234 0.60635 0.625
660 1 0.530701 0.618167 0.625
661 1 0.551168 0.582717 0.625
662 1 0.551168 0.60635 0.625
695 1 0.448832 0.6418 0.625
696 1 0.448832 0.689067 0.625
699 1 0.489766 0.6418 0.625
697 1 0.469299 0.653617 0.625
698 1 0.469299 0.67725 0.625
700 1 0.489766 0.689067 0.625
703 1 0.530701 0.6418 0.625
701 1 0.510234 0.653617 0.625
702 1 0.510234 0.67725 0.625
704 1 0.530701 0.689067 0.625
705 1 0.551168 0.653617 0.625
706 1 0.551168 0.67725 0.625
665 1 0.571635 0.618167 0.625
666 1 0.592102 0.582717 0.625
667 1 0.592102 0.60635 0.625
670 1 0.612569 0.618167 0.625
671 1 0.633036 0.582717 0.625
672 1 0.633036 0.60635 0.625
675 1 0.653503 0.618167 0.625
676 1 0.67397 0.582717 0.625
677 1 0.67397 0.60635 0.625
680 1 0.694437 0.618167 0.625
707 1 0.571635 0.6418 0.625
708 1 0.571635 0.689067 0.625
711 1 0.612569 0.6418 0.625
709 1 0.592102 0.653617 0.625
710 1 0.592102 0.67725 0.625
712 1 0.612569 0.689067 0.625
715 1 0.653503 0.6418 0.625
713 1 0.633036 0.653617 0.625
714 1 0.633036 0.67725 0.625
716 1 0.653503 0.689067 0.625
719 1 0.694437 0.6418 0.625
717 1 0.67397 0.653617 0.625
718 1 0.67397 0.67725 0.625
720 1 0.694437 0.689067 0.625
723 1 0.32603 0.310933 0.875
721 1 0.305563 0.32275 0.875
722 1 0.305563 0.346383 0.875
724 1 0.32603 0.3582 0.875
727 1 0.366964 0.310933 0.875
725 1 0.346497 0.32275 0.875
726 1 0.346497 0.346383 0.875
728 1 0.366964 0.3582 0.875
731 1 0.407898 0.310933 0.875
729 1 0.387431 0.32275 0.875
730 1 0.387431 0.346383 0.875
732 1 0.407898 0.3582 0.875
733 1 0.428365 0.32275 0.875
734 1 0.428365 0.346383 0.875
763 1 0.32603 0.381833 0.875
761 1 0.305563 0.39365 0.875
762 1 0.305563 0.417283 0.875
768 1 0.366964 0.381833 0.875
766 1 0.346497 0.39365 0.875
767 1 0.346497 0.417283 0.875
773 1 0.407898 0.381833 0.875
771 1 0.387431 0.39365 0.875
772 1 0.387431 0.417283 0.875
776 1 0.428365 0.39365 0.875
777 1 0.428365 0.417283 0.875
735 1 0.448832 0.310933 0.875
736 1 0.448832 0.3582 0.875
739 1 0.489766 0.310933 0.875
737 1 0.469299 0.32275 0.875
738 1 0.469299 0.346383 0.875
740 1 0.489766 0.3582 0.875
743 1 0.530701 0.310933 0.875
741 1 0.510234 0.32275 0.875
742 1 0.510234 0.346383 0.875
744 1 0.530701 0.3582 0.875
745 1 0.551168 0.32275 0.875
746 1 0.551168 0.346383 0.875
778 1 0.448832 0.381833 0.875
783 1 0.489766 0.381833 0.875
781 1 0.469299 0.39365 0.875
782 1 0.469299 0.417283 0.875
788 1 0.530701 0.381833 0.875
786 1 0.510234 0.39365 0.875
787 1 0.510234 0.417283 0.875
791 1 0.551168 0.39365 0.875
792 1 0.551168 0.417283 0.875
747 1 0.571635 0.310933 0.875
748 1 0.571635 0.3582 0.875
751 1 0.612569 0.310933 0.875
749 1 0.592102 0.32275 0.875
750 1 0.592102 0.346383 0.875
752 1 0.612569 0.3582 0.875
755 1 0.653503 0.310933 0.875
753 1 0.633036 0.32275 0.875
754 1 0.633036 0.346383 0.875
756 1 0.653503 0.3582 0.875
759 1 0.694437 0.310933 0.875
757 1 0.67397 0.32275 0.875
758 1 0.67397 0.346383 0.875
760 1 0.694437 0.3582 0.875
793 1 0.571635 0.381833 0.875
798 1 0.612569 0.381833 0.875
796 1 0.592102 0.39365 0.875
797 1 0.592102 0.417283 0.875
803 1 0.653503 0.381833 0.875
801 1 0.633036 0.39365 0.875
802 1 0.633036 0.417283 0.875
808 1 0.694437 0.381833 0.875
806 1 0.67397 0.39365 0.875
807 1 0.67397 0.417283 0.875
764 1 0.32603 0.4291 0.875
769 1 0.366964 0.4291 0.875
774 1 0.407898 0.4291 0.875
765 1 0.32603 0.452733 0.875
811 1 0.305563 0.46455 0.875
812 1 0.305563 0.488183 0.875
814 1 0.32603 0.5 0.875
770 1 0.366964 0.452733 0.875
816 1 0.346497 0.46455 0.875
817 1 0.346497 0.488183 0.875
819 1 0.366964 0.5 0.875
775 1 0.407898 0.452733 0.875
821 1 0.387431 0.46455 0.875
822 1 0.387431 0.488183 0.875
824 1 0.407898 0.5 0.875
826 1 0.428365 0.46455 0.875
827 1 0.428365 0.488183 0.875
815 1 0.32603 0.523633 0.875
813 1 0.305563 0.53545 0.875
861 1 0.305563 0.559083 0.875
863 1 0.32603 0.5709 0.875
820 1 0.366964 0.523633 0.875
818 1 0.346497 0.53545 0.875
865 1 0.346497 0.559083 0.875
867 1 0.366964 0.5709 0.875
825 1 0.407898 0.523633 0.875
823 1 0.387431 0.53545 0.875
869 1 0.387431 0.559083 0.875
871 1 0.407898 0.5709 0.875
828 1 0.428365 0.53545 0.875
873 1 0.428365 0.559083 0.875
779 1 0.448832 0.4291 0.875
784 1 0.489766 0.4291 0.875
789 1 0.530701 0.4291 0.875
780 1 0.448832 0.452733 0.875
829 1 0.448832 0.5 0.875
785 1 0.489766 0.452733 0.875
831 1 0.469299 0.46455 0.875
832 1 0.469299 0.488183 0.875
834 1 0.489766 0.5 0.875
790 1 0.530701 0.452733 0.875
836 1 0.510234 0.46455 0.875
837 1 0.510234 0.488183 0.875
839 1 0.530701 0.5 0.875
841 1 0.551168 0.46455 0.875
842 1 0.551168 0.488183 0.875
830 1 0.448832 0.523633 0.875
875 1 0.448832 0.5709 0.875
835 1 0.489766 0.523633 0.875
833 1 0.469299 0.53545 0.875
877 1 0.469299 0.559083 0.875
879 1 0.489766 0.5709 0.875
840 1 0.530701 0.523633 0.875
838 1 0.510234 0.53545 0.875
881 1 0.510234 0.559083 0.875
883 1 0.530701 0.5709 0.875
843 1 0.551168 0.53545 0.875
885 1 0.551168 0.559083 0.875
794 1 0.571635 0.4291 0.875
799 1 0.612569 0.4291 0.875
804 1 0.653503 0.4291 0.875
809 1 0.694437 0.4291 0.875
795 1 0.571635 0.452733 0.875
844 1 0.571635 0.5 0.875
800 1 0.612569 0.452733 0.875
846 1 0.592102 0.46455 0.875
847 1 0.592102 0.488183 0.875
849 1 0.612569 0.5 0.875
805 1 0.653503 0.452733 0.875
851 1 0.633036 0.46455 0.875
852 1 0.633036 0.488183 0.875
854 1 0.653503 0.5 0.875
810 1 0.694437 0.452733 0.875
856 1 0.67397 0.46455 0.875
857 1 0.67397 0.488183 0.875
859 1 0.694437 0.5 0.875
845 1 0.571635 0.523633 0.875
887 1 0.571635 0.5709 0.875
850 1 0.612569 0.523633 0.875
848 1 0.592102 0.53545 0.875
889 1 0.592102 0.559083 0.875
891 1 0.612569 0.5709 0.875
855 1 0.653503 0.523633 0.875
853 1 0.633036 0.53545 0.875
893 1 0.633036 0.559083 0.875
895 1 0.653503 0.5709 0.875
860 1 0.694437 0.523633 0.875
858 1 0.67397 0.53545 0.875
897 1 0.67397 0.559083 0.875
899 1 0.694437 0.5709 0.875
864 1 0.32603 0.594533 0.875
862 1 0.305563 0.60635 0.875
901 1 0.305563 0.629983 0.875
904 1 0.32603 0.6418 0.875
868 1 0.366964 0.594533 0.875
866 1 0.346497 0.60635 0.875
907 1 0.346497 0.629983 0.875
910 1 0.366964 0.6418 0.875
872 1 0.407898 0.594533 0.875
870 1 0.387431 0.60635 0.875
913 1 0.387431 0.629983 0.875
916 1 0.407898 0.6418 0.875
874 1 0.428365 0.60635 0.875
919 1 0.428365 0.629983 0.875
905 1 0.32603 0.665433 0.875
902 1 0.305563 0.67725 0.875
903 1 0.305563 0.700883 0.875
906 1 0.32603 0.7127 0.875
911 1 0.366964 0.665433 0.875
908 1 0.346497 0.67725 0.875
909 1 0.346497 0.700883 0.875
912 1 0.366964 0.7127 0.875
917 1 0.407898 0.665433 0.875
914 1 0.387431 0.67725 0.875
915 1 0.387431 0.700883 0.875
918 1 0.407898 0.7127 0.875
920 1 0.428365 0.67725 0.875
921 1 0.428365 0.700883 0.875
876 1 0.448832 0.594533 0.875
922 1 0.448832 0.6418 0.875
880 1 0.489766 0.594533 0.875
878 1 0.469299 0.60635 0.875
925 1 0.469299 0.629983 0.875
928 1 0.489766 0.6418 0.875
884 1 0.530701 0.594533 0.875
882 1 0.510234 0.60635 0.875
931 1 0.510234 0.629983 0.875
934 1 0.530701 0.6418 0.875
886 1 0.551168 0.60635 0.875
937 1 0.551168 0.629983 0.875
923 1 0.448832 0.665433 0.875
924 1 0.448832 0.7127 0.875
929 1 0.489766 0.665433 0.875
926 1 0.469299 0.67725 0.875
927 1 0.469299 0.700883 0.875
930 1 0.489766 0.7127 0.875
935 1 0.530701 0.665433 0.875
932 1 0.510234 0.67725 0.875
933 1 0.510234 0.700883 0.875
936 1 0.530701 0.7127 0.875
938 1 0.551168 0.67725 0.875
939 1 0.551168 0.700883 0.875
888 1 0.571635 0.594533 0.875
940 1 0.571635 0.6418 0.875
892 1 0.612569 0.594533 0.875
890 1 0.592102 0.60635 0.875
943 1 0.592102 0.629983 0.875
946 1 0.612569 0.6418 0.875
896 1 0.653503 0.594533 0.875
894 1 0.633036 0.60635 0.875
949 1 0.633036 0.629983 0.875
952 1 0.653503 0.6418 0.875
900 1 0.694437 0.594533 0.875
898 1 0.67397 0.60635 0.875
955 1 0.67397 0.629983 0.875
958 1 0.694437 0.6418 0.875
941 1 0.571635 0.665433 0.875
942 1 0.571635 0.7127 0.875
947 1 0.612569 0.665433 0.875
944 1 0.592102 0.67725 0.875
945 1 0.592102 0.700883 0.875
948 1 0.612569 0.7127 0.875
953 1 0.653503 0.665433 0.875
950 1 0.633036 0.67725 0.875
951 1 0.633036 0.700883 0.875
954 1 0.653503 0.7127 0.875
959 1 0.694437 0.665433 0.875
956 1 0.67397 0.67725 0.875
957 1 0.67397 0.700883 0.875
960 1 0.694437 0.7127 0.875
ITEM: TIMESTEP
5
ITEM: NUMBER OF ATOMS
960
ITEM: BOX BOUNDS pp pp pp
-3.0000000000000000e+01 3.0000000000000000e+01
-3.0000000000000000e+01 3.0000000000000000e+01
-1.8000000000000000e+01 1.8000000000000000e+01
ITEM: ATOMS id type xs ys zs
4 1 0.326638 0.287727 0.125
1 1 0.306255 0.299305 0.125
2 1 0.306177 0.322761 0.125
5 1 0.326384 0.33471 0.125
10 1 0.367101 0.287999 0.125
7 1 0.346828 0.299624 0.125
8 1 0.346768 0.323073 0.125
11 1 0.367071 0.334844 0.125
16 1 0.40791 0.28799 0.125
13 1 0.387467 0.299586 0.125
14 1 0.387452 0.32307 0.125
17 1 0.407897 0.334787 0.125
19 1 0.428367 0.299575 0.125
20 1 0.428367 0.323075 0.125
6 1 0.32644 0.358216 0.125
3 1 0.306278 0.370122 0.125
61 1 0.30628 0.393547 0.125
63 1 0.32647 0.405485 0.125
12 1 0.367065 0.358274 0.125
9 1 0.346762 0.370026 0.125
65 1 0.346772 0.393623 0.125
67 1 0.367061 0.405504 0.125
18 1 0.407898 0.358292 0.125
15 1 0.387443 0.370012 0.125
69 1 0.387444 0.393645 0.125
71 1 0.407898 0.405475 0.125
21 1 0.428367 0.369998 0.125
73 1 0.428367 0.393659 0.125
22 1 0.448833 0.287993 0.125
23 1 0.448834 0.334783 0.125
28 1 0.489767 0.287994 0.125
25 1 0.4693 0.299574 0.125
26 1 0.4693 0.323076 0.125
29 1 0.489767 0.334783 0.125
34 1 0.5307 0.287994 0.125
31 1 0.510233 0.299575 0.125
32 1 0.510233 0.323076 0.125
35 1 0.5307 0.334783 0.125
37 1 0.551167 0.299575 0.125
38 1 0.551167 0.323076 0.125
24 1 0.448834 0.358297 0.125
75 1 0.448834 0.40547 0.125
30 1 0.489767 0.358297 0.125
27 1 0.4693 0.369996 0.125
77 1 0.4693 0.393661 0.125
79 1 0.489767 0.405469 0.125
36 1 0.5307 0.358297 0.125
33 1 0.510233 0.369996 0.125
81 1 0.510233 0.393661 0.125
83 1 0.5307 0.405469 0.125
39 1 0.551166 0.369997 0.125
85 1 0.551166 0.39366 0.125
40 1 0.571633 0.287993 0.125
41 1 0.571633 0.334784 0.125
46 1 0.612552 0.287992 0.125
43 1 0.592105 0.299571 0.125
44 1 0.592102 0.323071 0.125
47 1 0.612559 0.334795 0.125
52 1 0.653238 0.287965 0.125
49 1 0.632921 0.299636 0.125
50 1 0.632926 0.323069 0.125
53 1 0.653239 0.33481 0.125