ITEM: TIMESTEP
0
ITEM: NUMBER OF ATOMS
240
ITEM: BOX BOUNDS pp pp pp
-3.0000000000000000e+01 3.0000000000000000e+01
-3.0000000000000000e+01 3.0000000000000000e+01
-3.0000000000000000e+01 3.0000000000000000e+01
ITEM: ATOMS id type xs ys zs
3 1 0.32603 0.299117 0.5
1 1 0.305563 0.310933 0.5
2 1 0.305563 0.334567 0.5
32 1 0.32603 0.346383 0.5
6 1 0.366964 0.299117 0.5
4 1 0.346497 0.310933 0.5
5 1 0.346497 0.334567 0.5
35 1 0.366964 0.346383 0.5
9 1 0.407898 0.299117 0.5
7 1 0.387431 0.310933 0.5
8 1 0.387431 0.334567 0.5
38 1 0.407898 0.346383 0.5
10 1 0.428365 0.310933 0.5
11 1 0.428365 0.334567 0.5
33 1 0.32603 0.370017 0.5
31 1 0.305563 0.381833 0.5
61 1 0.305563 0.405467 0.5
62 1 0.32603 0.417283 0.5
36 1 0.366964 0.370017 0.5
34 1 0.346497 0.381833 0.5
63 1 0.346497 0.405467 0.5
64 1 0.366964 0.417283 0.5
39 1 0.407898 0.370017 0.5
37 1 0.387431 0.381833 0.5
65 1 0.387431 0.405467 0.5
66 1 0.407898 0.417283 0.5
40 1 0.428365 0.381833 0.5
67 1 0.428365 0.405467 0.5
12 1 0.448832 0.299117 0.5
41 1 0.448832 0.346383 0.5
15 1 0.489766 0.299117 0.5
13 1 0.469299 0.310933 0.5
14 1 0.469299 0.334567 0.5
44 1 0.489766 0.346383 0.5
18 1 0.530701 0.299117 0.5
16 1 0.510234 0.310933 0.5
17 1 0.510234 0.334567 0.5
47 1 0.530701 0.346383 0.5
19 1 0.551168 0.310933 0.5
20 1 0.551168 0.334567 0.5
42 1 0.448832 0.370017 0.5
68 1 0.448832 0.417283 0.5
45 1 0.489766 0.370017 0.5
43 1 0.469299 0.381833 0.5
69 1 0.469299 0.405467 0.5
70 1 0.489766 0.417283 0.5
48 1 0.530701 0.370017 0.5
46 1 0.510234 0.381833 0.5
71 1 0.510234 0.405467 0.5
72 1 0.530701 0.417283 0.5
49 1 0.551168 0.381833 0.5
73 1 0.551168 0.405467 0.5
21 1 0.571635 0.299117 0.5
50 1 0.571635 0.346383 0.5
24 1 0.612569 0.299117 0.5
22 1 0.592102 0.310933 0.5
23 1 0.592102 0.334567 0.5
53 1 0.612569 0.346383 0.5
27 1 0.653503 0.299117 0.5
25 1 0.633036 0.310933 0.5
26 1 0.633036 0.334567 0.5
56 1 0.653503 0.346383 0.5
30 1 0.694437 0.299117 0.5
28 1 0.67397 0.310933 0.5
29 1 0.67397 0.334567 0.5
59 1 0.694437 0.346383 0.5
51 1 0.571635 0.370017 0.5
74 1 0.571635 0.417283 0.5
54 1 0.612569 0.370017 0.5
52 1 0.592102 0.381833 0.5
75 1 0.592102 0.405467 0.5
76 1 0.612569 0.417283 0.5
57 1 0.653503 0.370017 0.5
55 1 0.633036 0.381833 0.5
77 1 0.633036 0.405467 0.5
78 1 0.653503 0.417283 0.5
60 1 0.694437 0.370017 0.5
58 1 0.67397 0.381833 0.5
79 1 0.67397 0.405467 0.5
80 1 0.694437 0.417283 0.5
83 1 0.32603 0.440917 0.5
81 1 0.305563 0.452733 0.5
82 1 0.305563 0.476367 0.5
111 1 0.32603 0.488183 0.5
86 1 0.366964 0.440917 0.5
84 1 0.346497 0.452733 0.5
85 1 0.346497 0.476367 0.5
113 1 0.366964 0.488183 0.5
89 1 0.407898 0.440917 0.5
87 1 0.387431 0.452733 0.5
88 1 0.387431 0.476367 0.5
115 1 0.407898 0.488183 0.5
90 1 0.428365 0.452733 0.5
91 1 0.428365 0.476367 0.5
112 1 0.32603 0.511817 0.5
131 1 0.305563 0.523633 0.5
132 1 0.305563 0.547267 0.5
133 1 0.32603 0.559083 0.5
114 1 0.366964 0.511817 0.5
134 1 0.346497 0.523633 0.5
135 1 0.346497 0.547267 0.5
136 1 0.366964 0.559083 0.5
116 1 0.407898 0.511817 0.5
137 1 0.387431 0.523633 0.5
138 1 0.387431 0.547267 0.5
139 1 0.407898 0.559083 0.5
140 1 0.428365 0.523633 0.5
141 1 0.428365 0.547267 0.5
92 1 0.448832 0.440917 0.5
117 1 0.448832 0.488183 0.5
95 1 0.489766 0.440917 0.5
93 1 0.469299 0.452733 0.5
94 1 0.469299 0.476367 0.5
119 1 0.489766 0.488183 0.5
98 1 0.530701 0.440917 0.5
96 1 0.510234 0.452733 0.5
97 1 0.510234 0.476367 0.5
121 1 0.530701 0.488183 0.5
99 1 0.551168 0.452733 0.5
100 1 0.551168 0.476367 0.5
118 1 0.448832 0.511817 0.5
142 1 0.448832 0.559083 0.5
120 1 0.489766 0.511817 0.5
143 1 0.469299 0.523633 0.5
144 1 0.469299 0.547267 0.5
145 1 0.489766 0.559083 0.5
122 1 0.530701 0.511817 0.5
146 1 0.510234 0.523633 0.5
147 1 0.510234 0.547267 0.5
148 1 0.530701 0.559083 0.5
149 1 0.551168 0.523633 0.5
150 1 0.551168 0.547267 0.5
101 1 0.571635 0.440917 0.5
123 1 0.571635 0.488183 0.5
104 1 0.612569 0.440917 0.5
102 1 0.592102 0.452733 0.5
103 1 0.592102 0.476367 0.5
125 1 0.612569 0.488183 0.5
107 1 0.653503 0.440917 0.5
105 1 0.633036 0.452733 0.5
106 1 0.633036 0.476367 0.5
127 1 0.653503 0.488183 0.5
110 1 0.694437 0.440917 0.5
108 1 0.67397 0.452733 0.5
109 1 0.67397 0.476367 0.5
129 1 0.694437 0.488183 0.5
124 1 0.571635 0.511817 0.5
151 1 0.571635 0.559083 0.5
126 1 0.612569 0.511817 0.5
152 1 0.592102 0.523633 0.5
153 1 0.592102 0.547267 0.5
154 1 0.612569 0.559083 0.5
128 1 0.653503 0.511817 0.5
155 1 0.633036 0.523633 0.5
156 1 0.633036 0.547267 0.5
157 1 0.653503 0.559083 0.5
130 1 0.694437 0.511817 0.5
158 1 0.67397 0.523633 0.5
159 1 0.67397 0.547267 0.5
160 1 0.694437 0.559083 0.5
162 1 0.32603 0.582717 0.5
161 1 0.305563 0.594533 0.5
181 1 0.305563 0.618167 0.5
182 1 0.32603 0.629983 0.5
164 1 0.366964 0.582717 0.5
163 1 0.346497 0.594533 0.5
184 1 0.346497 0.618167 0.5
185 1 0.366964 0.629983 0.5
166 1 0.407898 0.582717 0.5
165 1 0.387431 0.594533 0.5
187 1 0.387431 0.618167 0.5
188 1 0.407898 0.629983 0.5
167 1 0.428365 0.594533 0.5
190 1 0.428365 0.618167 0.5
183 1 0.32603 0.653617 0.5
211 1 0.305563 0.665433 0.5
212 1 0.305563 0.689067 0.5
213 1 0.32603 0.700883 0.5
186 1 0.366964 0.653617 0.5
214 1 0.346497 0.665433 0.5
215 1 0.346497 0.689067 0.5
216 1 0.366964 0.700883 0.5
189 1 0.407898 0.653617 0.5
217 1 0.387431 0.665433 0.5
218 1 0.387431 0.689067 0.5
219 1 0.407898 0.700883 0.5
220 1 0.428365 0.665433 0.5
221 1 0.428365 0.689067 0.5
168 1 0.448832 0.582717 0.5
191 1 0.448832 0.629983 0.5
170 1 0.489766 0.582717 0.5
169 1 0.469299 0.594533 0.5
193 1 0.469299 0.618167 0.5
194 1 0.489766 0.629983 0.5
172 1 0.530701 0.582717 0.5
171 1 0.510234 0.594533 0.5
196 1 0.510234 0.618167 0.5
197 1 0.530701 0.629983 0.5
173 1 0.551168 0.594533 0.5
199 1 0.551168 0.618167 0.5
192 1 0.448832 0.653617 0.5
222 1 0.448832 0.700883 0.5
195 1 0.489766 0.653617 0.5
223 1 0.469299 0.665433 0.5
224 1 0.469299 0.689067 0.5
225 1 0.489766 0.700883 0.5
198 1 0.530701 0.653617 0.5
226 1 0.510234 0.665433 0.5
227 1 0.510234 0.689067 0.5
228 1 0.530701 0.700883 0.5
229 1 0.551168 0.665433 0.5
230 1 0.551168 0.689067 0.5
174 1 0.571635 0.582717 0.5
200 1 0.571635 0.629983 0.5
176 1 0.612569 0.582717 0.5
175 1 0.592102 0.594533 0.5
202 1 0.592102 0.618167 0.5
203 1 0.612569 0.629983 0.5
178 1 0.653503 0.582717 0.5
177 1 0.633036 0.594533 0.5
205 1 0.633036 0.618167 0.5
206 1 0.653503 0.629983 0.5
180 1 0.694437 0.582717 0.5
179 1 0.67397 0.594533 0.5
208 1 0.67397 0.618167 0.5
209 1 0.694437 0.629983 0.5
201 1 0.571635 0.653617 0.5
231 1 0.571635 0.700883 0.5
204 1 0.612569 0.653617 0.5
232 1 0.592102 0.665433 0.5
233 1 0.592102 0.689067 0.5
234 1 0.612569 0.700883 0.5
207 1 0.653503 0.653617 0.5
235 1 0.633036 0.665433 0.5
236 1 0.633036 0.689067 0.5
237 1 0.653503 0.700883 0.5
210 1 0.694437 0.653617 0.5
238 1 0.67397 0.665433 0.5
239 1 0.67397 0.689067 0.5
240 1 0.694437 0.700883 0.5
ITEM: TIMESTEP
5
ITEM: NUMBER OF ATOMS
240
ITEM: BOX BOUNDS pp pp pp
-3.0000000000000000e+01 3.0000000000000000e+01
-3.0000000000000000e+01 3.0000000000000000e+01
-3.0000000000000000e+01 3.0000000000000000e+01
ITEM: ATOMS id type xs ys zs
3 1 0.326637 0.299543 0.5
1 1 0.306254 0.311121 0.5
2 1 0.306176 0.334576 0.5
32 1 0.326383 0.346526 0.5
6 1 0.3671 0.299815 0.5
4 1 0.346827 0.311439 0.5
5 1 0.346767 0.334889 0.5
35 1 0.367071 0.346659 0.5
9 1 0.40791 0.299806 0.5
7 1 0.387467 0.311402 0.5
8 1 0.387451 0.334886 0.5
38 1 0.407897 0.346603 0.5
10 1 0.428367 0.31139 0.5
11 1 0.428367 0.33489 0.5
33 1 0.326439 0.370032 0.5
31 1 0.306277 0.381938 0.5
61 1 0.306279 0.405364 0.5
62 1 0.326468 0.417302 0.5
36 1 0.367065 0.37009 0.5
34 1 0.346761 0.381843 0.5
63 1 0.346771 0.40544 0.5
64 1 0.367061 0.417321 0.5
39 1 0.407898 0.370108 0.5
37 1 0.387443 0.381828 0.5
65 1 0.387443 0.405461 0.5
66 1 0.407898 0.417291 0.5
40 1 0.428367 0.381814 0.5
67 1 0.428367 0.405475 0.5
12 1 0.448833 0.299809 0.5
41 1 0.448833 0.346598 0.5
15 1 0.489767 0.299809 0.5
13 1 0.4693 0.31139 0.5
14 1 0.4693 0.334892 0.5
44 1 0.489767 0.346598 0.5
18 1 0.5307 0.299809 0.5
16 1 0.510233 0.31139 0.5
17 1 0.510233 0.334892 0.5
47 1 0.5307 0.346598 0.5
19 1 0.551167 0.31139 0.5
20 1 0.551167 0.334891 0.5
42 1 0.448834 0.370113 0.5
68 1 0.448834 0.417286 0.5
45 1 0.489767 0.370113 0.5
43 1 0.4693 0.381813 0.5
69 1 0.4693 0.405477 0.5
70 1 0.489767 0.417286 0.5
48 1 0.5307 0.370113 0.5
46 1 0.510233 0.381813 0.5
71 1 0.510233 0.405477 0.5
72 1 0.5307 0.417286 0.5
49 1 0.551166 0.381813 0.5
73 1 0.551166 0.405477 0.5
21 1 0.571633 0.299808 0.5
50 1 0.571634 0.346599 0.5
24 1 0.612552 0.299808 0.5
22 1 0.592105 0.311387 0.5
23 1 0.592102 0.334887 0.5
53 1 0.61256 0.346611 0.5
27 1 0.653238 0.299781 0.5
25 1 0.632922 0.311451 0.5
26 1 0.632926 0.334885 0.5
56 1 0.65324 0.346625 0.5
30 1 0.693497 0.299111 0.5
28 1 0.673575 0.311301 0.5
29 1 0.67358 0.3348 0.5
59 1 0.69379 0.346605 0.5
51 1 0.571633 0.370112 0.5
74 1 0.571633 0.417287 0.5
54 1 0.612557 0.370097 0.5
52 1 0.592102 0.381818 0.5
75 1 0.592102 0.405471 0.5
76 1 0.612557 0.417301 0.5
57 1 0.653227 0.37008 0.5
55 1 0.632939 0.381848 0.5
77 1 0.632939 0.405441 0.5
78 1 0.65323 0.417321 0.5
60 1 0.693735 0.369944 0.5
58 1 0.67353 0.38184 0.5
79 1 0.67353 0.405459 0.5
80 1 0.693722 0.417392 0.5
83 1 0.326469 0.4409 0.5
81 1 0.306278 0.452841 0.5
82 1 0.306278 0.476259 0.5
111 1 0.326469 0.488201 0.5
86 1 0.367061 0.440883 0.5
84 1 0.346771 0.45277 0.5
85 1 0.346771 0.476331 0.5
113 1 0.367061 0.488219 0.5
89 1 0.407898 0.440913 0.5
87 1 0.387443 0.452749 0.5
88 1 0.387443 0.476352 0.5
115 1 0.407898 0.488189 0.5
90 1 0.428367 0.452735 0.5
91 1 0.428367 0.476365 0.5
112 1 0.326469 0.511799 0.5
131 1 0.306278 0.523741 0.5
132 1 0.306278 0.547159 0.5
133 1 0.326469 0.5591 0.5
114 1 0.367061 0.511781 0.5
134 1 0.346771 0.523669 0.5
135 1 0.346771 0.54723 0.5
136 1 0.367061 0.559117 0.5
116 1 0.407898 0.511811 0.5
137 1 0.387443 0.523648 0.5
138 1 0.387443 0.547251 0.5
139 1 0.407898 0.559087 0.5
140 1 0.428367 0.523635 0.5
141 1 0.428367 0.547264 0.5
92 1 0.448834 0.440918 0.5
117 1 0.448834 0.488184 0.5
95 1 0.489767 0.440918 0.5
93 1 0.4693 0.452734 0.5
94 1 0.4693 0.476367 0.5
119 1 0.489767 0.488183 0.5
98 1 0.5307 0.440918 0.5
96 1 0.510233 0.452734 0.5
97 1 0.510233 0.476367 0.5
121 1 0.5307 0.488183 0.5
99 1 0.551166 0.452734 0.5
100 1 0.551166 0.476367 0.5
118 1 0.448834 0.511816 0.5
142 1 0.448834 0.559082 0.5
120 1 0.489767 0.511817 0.5
143 1 0.4693 0.523633 0.5
144 1 0.4693 0.547266 0.5
145 1 0.489767 0.559082 0.5
122 1 0.5307 0.511817 0.5
146 1 0.510233 0.523633 0.5
147 1 0.510233 0.547266 0.5
148 1 0.5307 0.559082 0.5
149 1 0.551166 0.523633 0.5
150 1 0.551166 0.547266 0.5
101 1 0.571633 0.440917 0.5
123 1 0.571633 0.488185 0.5
104 1 0.612557 0.440903 0.5
102 1 0.592102 0.452739 0.5
103 1 0.592102 0.476361 0.5
125 1 0.612557 0.488199 0.5
107 1 0.653229 0.440882 0.5
105 1 0.632939 0.452769 0.5
106 1 0.632939 0.476332 0.5
127 1 0.653229 0.488219 0.5
110 1 0.693722 0.44081 0.5
108 1 0.673531 0.452751 0.5
109 1 0.673531 0.476349 0.5
129 1 0.693722 0.488291 0.5
124 1 0.571633 0.511815 0.5
151 1 0.571633 0.559083 0.5
126 1 0.612557 0.511801 0.5
152 1 0.592102 0.523639 0.5
153 1 0.592102 0.54726 0.5
154 1 0.612557 0.559097 0.5
128 1 0.653229 0.511781 0.5
155 1 0.632939 0.523668 0.5
156 1 0.632939 0.547231 0.5
157 1 0.653229 0.559118 0.5
130 1 0.693722 0.511709 0.5
158 1 0.673531 0.523651 0.5
159 1 0.673531 0.547249 0.5
160 1 0.693722 0.55919 0.5
162 1 0.326468 0.582698 0.5
161 1 0.306279 0.594636 0.5
181 1 0.306277 0.618062 0.5
182 1 0.326439 0.629968 0.5
164 1 0.367061 0.582679 0.5
163 1 0.346771 0.59456 0.5
184 1 0.346761 0.618157 0.5
185 1 0.367065 0.62991 0.5
166 1 0.407898 0.582709 0.5
165 1 0.387443 0.594539 0.5
187 1 0.387443 0.618172 0.5
188 1 0.407898 0.629892 0.5
167 1 0.428367 0.594525 0.5
190 1 0.428367 0.618186 0.5
183 1 0.326383 0.653474 0.5
211 1 0.306176 0.665424 0.5
212 1 0.306254 0.688879 0.5
213 1 0.326637 0.700457 0.5
186 1 0.367071 0.65334 0.5
214 1 0.346767 0.665111 0.5
215 1 0.346827 0.688561 0.5
216 1 0.3671 0.700185 0.5
189 1 0.407897 0.653397 0.5
217 1 0.387451 0.665115 0.5
218 1 0.387467 0.688598 0.5
219 1 0.40791 0.700194 0.5
220 1 0.428367 0.66511 0.5
221 1 0.428367 0.68861 0.5
168 1 0.448834 0.582714 0.5
191 1 0.448834 0.629887 0.5
170 1 0.489767 0.582714 0.5
169 1 0.4693 0.594523 0.5
193 1 0.4693 0.618187 0.5
194 1 0.489767 0.629887 0.5
172 1 0.5307 0.582714 0.5
171 1 0.510233 0.594523 0.5
196 1 0.510233 0.618187 0.5
197 1 0.5307 0.629887 0.5
173 1 0.551166 0.594523 0.5
199 1 0.551166 0.618187 0.5
192 1 0.448833 0.653402 0.5
222 1 0.448833 0.700191 0.5
195 1 0.489767 0.653402 0.5
223 1 0.4693 0.665108 0.5
224 1 0.4693 0.68861 0.5
225 1 0.489767 0.700191 0.5
198 1 0.5307 0.653402 0.5
226 1 0.510233 0.665108 0.5
227 1 0.510233 0.68861 0.5
228 1 0.5307 0.700191 0.5
229 1 0.551167 0.665109 0.5
230 1 0.551167 0.68861 0.5
174 1 0.571633 0.582713 0.5
200 1 0.571633 0.629888 0.5
176 1 0.612557 0.582699 0.5
175 1 0.592102 0.594529 0.5
202 1 0.592102 0.618182 0.5
203 1 0.612557 0.629903 0.5
178 1 0.65323 0.582679 0.5
177 1 0.632939 0.594559 0.5
205 1 0.632939 0.618152 0.5
206 1 0.653227 0.62992 0.5
180 1 0.693722 0.582608 0.5
179 1 0.67353 0.594541 0.5
208 1 0.67353 0.61816 0.5
209 1 0.693735 0.630056 0.5
201 1 0.571634 0.6534 0.5
231 1 0.571633 0.700192 0.5
204 1 0.61256 0.653389 0.5
232 1 0.592102 0.665113 0.5
233 1 0.592105 0.688613 0.5
234 1 0.612552 0.700192 0.5
207 1 0.65324 0.653375 0.5
235 1 0.632926 0.665115 0.5
236 1 0.632922 0.688549 0.5
237 1 0.653238 0.700219 0.5
210 1 0.69379 0.653395 0.5
238 1 0.67358 0.6652 0.5
239 1 0.673575 0.688699 0.5
240 1 0.693497 0.700889 0.5
ITEM: TIMESTEP
100
ITEM: NUMBER OF ATOMS
240
ITEM: BOX BOUNDS pp pp pp
-3.0000000000000000e+01 3.0000000000000000e+01
-3.0000000000000000e+01 3.0000000000000000e+01
-3.0000000000000000e+01 3.0000000000000000e+01
ITEM: ATOMS id type xs ys zs
3 1 0.326637 0.299543 0.5
1 1 0.306254 0.311121 0.5
2 1 0.306176 0.334576 0.5
32 1 0.326383 0.346526 0.5
6 1 0.3671 0.299815 0.5
4 1 0.346827 0.311439 0.5
5 1 0.346767 0.334889 0.5
35 1 0.367071 0.346659 0.5
9 1 0.40791 0.299806 0.5
7 1 0.387467 0.311402 0.5
8 1 0.387451 0.334886 0.5
38 1 0.407897 0.346603 0.5
10 1 0.428367 0.31139 0.5
11 1 0.428367 0.33489 0.5
33 1 0.326439 0.370032 0.5
31 1 0.306277 0.381938 0.5
61 1 0.306279 0.405364 0.5
62 1 0.326468 0.417302 0.5
36 1 0.367065 0.37009 0.5
34 1 0.346761 0.381843 0.5
63 1 0.346771 0.40544 0.5
64 1 0.367061 0.417321 0.5
39 1 0.407898 0.370108 0.5
37 1 0.387443 0.381828 0.5
65 1 0.387443 0.405461 0.5
66 1 0.407898 0.417291 0.5
40 1 0.428367 0.381814 0.5
67 1 0.428367 0.405475 0.5
12 1 0.448833 0.299809 0.5
41 1 0.448833 0.346598 0.5
15 1 0.489767 0.299809 0.5
13 1 0.4693 0.31139 0.5
14 1 0.4693 0.334892 0.5
44 1 0.489767 0.346598 0.5
18 1 0.5307 0.299809 0.5
16 1 0.510233 0.31139 0.5
17 1 0.510233 0.334892 0.5
47 1 0.5307 0.346598 0.5
19 1 0.551167 0.31139 0.5
20 1 0.551167 0.334891 0.5
42 1 0.448834 0.370113 0.5
68 1 0.448834 0.417286 0.5
45 1 0.489767 0.370113 0.5
43 1 0.4693 0.381813 0.5
69 1 0.4693 0.405477 0.5
70 1 0.489767 0.417286 0.5
48 1 0.5307 0.370113 0.5
46 1 0.510233 0.381813 0.5
71 1 0.510233 0.405477 0.5
72 1 0.5307 0.417286 0.5
49 1 0.551166 0.381813 0.5
73 1 0.551166 0.405477 0.5
21 1 0.571633 0.299808 0.5
50 1 0.571634 0.346599 0.5
24 1 0.612552 0.299808 0.5
22 1 0.592105 0.311387 0.5
23 1 0.592102 0.334887 0.5
53 1 0.61256 0.346611 0.5
27 1 0.653238 0.299781 0.5
25 1 0.632922 0.311451 0.5
26 1 0.632926 0.334885 0.5
56 1 0.65324 0.346625 0.5
30 1 0.693497 0.299111 0.5
28 1 0.673575 0.311301 0.5
29 1 0.67358 0.3348 0.5
59 1 0.69379 0.346605 0.5
51 1 0.571633 0.370112 0.5
74 1 0.571633 0.417287 0.5
54 1 0.612557 0.370097 0.5
52 1 0.592102 0.381818 0.5
75 1 0.592102 0.405471 0.5
76 1 0.612557 0.417301 0.5
57 1 0.653227 0.37008 0.5
55 1 0.632939 0.381848 0.5
77 1 0.632939 0.405441 0.5
78 1 0.65323 0.417321 0.5
60 1 0.693735 0.369944 0.5
58 1 0.67353 0.38184 0.5
79 1 0.67353 0.405459 0.5
80 1 0.693722 0.417392 0.5
83 1 0.326469 0.4409 0.5
81 1 0.306278 0.452841 0.5
82 1 0.306278 0.476259 0.5
111 1 0.326469 0.488201 0.5
86 1 0.367061 0.440883 0.5
84 1 0.346771 0.45277 0.5
85 1 0.346771 0.476331 0.5
113 1 0.367061 0.488219 0.5
89 1 0.407898 0.440913 0.5
87 1 0.387443 0.452749 0.5
88 1 0.387443 0.476352 0.5
115 1 0.407898 0.488189 0.5
90 1 0.428367 0.452735 0.5
91 1 0.428367 0.476365 0.5
112 1 0.326469 0.511799 0.5
131 1 0.306278 0.523741 0.5
132 1 0.306278 0.547159 0.5
133 1 0.326469 0.5591 0.5
114 1 0.367061 0.511781 0.5
134 1 0.346771 0.523669 0.5
135 1 0.346771 0.54723 0.5
136 1 0.367061 0.559117 0.5
116 1 0.407898 0.511811 0.5
137 1 0.387443 0.523648 0.5
138 1 0.387443 0.547251 0.5
139 1 0.407898 0.559087 0.5
140 1 0.428367 0.523635 0.5
141 1 0.428367 0.547264 0.5
92 1 0.448834 0.440918 0.5
117 1 0.448834 0.488184 0.5
95 1 0.489767 0.440918 0.5
93 1 0.4693 0.452734 0.5
94 1 0.4693 0.476367 0.5
119 1 0.489767 0.488183 0.5
98 1 0.5307 0.440918 0.5
96 1 0.510233 0.452734 0.5
97 1 0.510233 0.476367 0.5
121 1 0.5307 0.488183 0.5
99 1 0.551166 0.452734 0.5
100 1 0.551166 0.476367 0.5
118 1 0.448834 0.511816 0.5
142 1 0.448834 0.559082 0.5
120 1 0.489767 0.511817 0.5
143 1 0.4693 0.523633 0.5
144 1 0.4693 0.547266 0.5
145 1 0.489767 0.559082 0.5
122 1 0.5307 0.511817 0.5
146 1 0.510233 0.523633 0.5
147 1 0.510233 0.547266 0.5
148 1 0.5307 0.559082 0.5
149 1 0.551166 0.523633 0.5
150 1 0.551166 0.547266 0.5
101 1 0.571633 0.440917 0.5
123 1 0.571633 0.488185 0.5
104 1 0.612557 0.440903 0.5
102 1 0.592102 0.452739 0.5
103 1 0.592102 0.476361 0.5
125 1 0.612557 0.488199 0.5
107 1 0.653229 0.440882 0.5
105 1 0.632939 0.452769 0.5
106 1 0.632939 0.476332 0.5
127 1 0.653229 0.488219 0.5
110 1 0.693722 0.44081 0.5
108 1 0.673531 0.452751 0.5
109 1 0.673531 0.476349 0.5
129 1 0.693722 0.488291 0.5
124 1 0.571633 0.511815 0.5
151 1 0.571633 0.559083 0.5
126 1 0.612557 0.511801 0.5
152 1 0.592102 0.523639 0.5
153 1 0.592102 0.54726 0.5
154 1 0.612557 0.559097 0.5
128 1 0.653229 0.511781 0.5
155 1 0.632939 0.523668 0.5
156 1 0.632939 0.547231 0.5
157 1 0.653229 0.559118 0.5
130 1 0.693722 0.511709 0.5
158 1 0.673531 0.523651 0.5
159 1 0.673531 0.547249 0.5
160 1 0.693722 0.55919 0.5
162 1 0.326468 0.582698 0.5
161 1 0.306279 0.594636 0.5
181 1 0.306277 0.618062 0.5
182 1 0.326439 0.629968 0.5
164 1 0.367061 0.582679 0.5
163 1 0.346771 0.59456 0.5
184 1 0.346761 0.618157 0.5
185 1 0.367065 0.62991 0.5
166 1 0.407898 0.582709 0.5
165 1 0.387443 0.594539 0.5
187 1 0.387443 0.618172 0.5
188 1 0.407898 0.629892 0.5
167 1 0.428367 0.594525 0.5
190 1 0.428367 0.618186 0.5
183 1 0.326383 0.653474 0.5
211 1 0.306176 0.665424 0.5
212 1 0.306254 0.688879 0.5
213 1 0.326637 0.700457 0.5
186 1 0.367071 0.65334 0.5
214 1 0.346767 0.665111 0.5
215 1 0.346827 0.688561 0.5
216 1 0.3671 0.700185 0.5
189 1 0.407897 0.653397 0.5
217 1 0.387451 0.665115 0.5
218 1 0.387467 0.688598 0.5
219 1 0.40791 0.700194 0.5
220 1 0.428367 0.66511 0.5
221 1 0.428367 0.68861 0.5
168 1 0.448834 0.582714 0.5
191 1 0.448834 0.629887 0.5
170 1 0.489767 0.582714 0.5
169 1 0.4693 0.594523 0.5
193 1 0.4693 0.618187 0.5
194 1 0.489767 0.629887 0.5
172 1 0.5307 0.582714 0.5
171 1 0.510233 0.594523 0.5
196 1 0.510233 0.618187 0.5
197 1 0.5307 0.629887 0.5
173 1 0.551166 0.594523 0.5
199 1 0.551166 0.618187 0.5
192 1 0.448833 0.653402 0.5
222 1 0.448833 0.700191 0.5
195 1 0.489767 0.653402 0.5
223 1 0.4693 0.665108 0.5
224 1 0.4693 0.68861 0.5
225 1 0.489767 0.700191 0.5
198 1 0.5307 0.653402 0.5
226 1 0.510233 0.665108 0.5
227 1 0.510233 0.68861 0.5
228 1 0.5307 0.700191 0.5
229 1 0.551167 0.665109 0.5
230 1 0.551167 0.68861 0.5
174 1 0.571633 0.582713 0.5
200 1 0.571633 0.629888 0.5
176 1 0.612557 0.582699 0.5
175 1 0.592102 0.594529 0.5
202 1 0.592102 0.618182 0.5
203 1 0.612557 0.629903 0.5
178 1 0.65323 0.582679 0.5
177 1 0.632939 0.594559 0.5
205 1 0.632939 0.618152 0.5
206 1 0.653227 0.62992 0.5
180 1 0.693722 0.582608 0.5
179 1 0.67353 0.594541 0.5
208 1 0.67353 0.61816 0.5
209 1 0.693735 0.630056 0.5
201 1 0.571634 0.6534 0.5
231 1 0.571633 0.700192 0.5
204 1 0.61256 0.653389 0.5
232 1 0.592102 0.665113 0.5
233 1 0.592105 0.688613 0.5
234 1 0.612552 0.700192 0.5
207 1 0.65324 0.653375 0.5
235 1 0.632926 0.665115 0.5
236 1 0.632922 0.688549 0.5
237 1 0.653238 0.700219 0.5
210 1 0.69379 0.653395 0.5
238 1 0.67358 0.6652 0.5
239 1 0.673575 0.688699 0.5
240 1 0.693497 0.700889 0.5
ITEM: TIMESTEP
200
ITEM: NUMBER OF ATOMS
240
ITEM: BOX BOUNDS pp pp pp
-3.0000000000000000e+01 3.0000000000000000e+01
-3.0000000000000000e+01 3.0000000000000000e+01
-3.0000000000000000e+01 3.0000000000000000e+01
ITEM: ATOMS id type xs ys zs
3 1 0.326637 0.299543 0.5
1 1 0.306254 0.311121 0.5
2 1 0.306176 0.334576 0.5
32 1 0.326383 0.346526 0.5
6 1 0.3671 0.299815 0.5
4 1 0.346827 0.311439 0.5
5 1 0.346767 0.334889 0.5
35 1 0.367071 0.346659 0.5
9 1 0.40791 0.299806 0.5
7 1 0.387467 0.311402 0.5
8 1 0.387451 0.334886 0.5
38 1 0.407897 0.346603 0.5
10 1 0.428367 0.31139 0.5
11 1 0.428367 0.33489 0.5
33 1 0.326439 0.370032 0.5
31 1 0.306277 0.381938 0.5
61 1 0.306279 0.405364 0.5
62 1 0.326468 0.417302 0.5
36 1 0.367065 0.37009 0.5
34 1 0.346761 0.381843 0.5
63 1 0.346771 0.40544 0.5
64 1 0.367061 0.417321 0.5
39 1 0.407898 0.370108 0.5
37 1 0.387443 0.381828 0.5
65 1 0.387443 0.405461 0.5
66 1 0.407898 0.417291 0.5
40 1 0.428367 0.381814 0.5
67 1 0.428367 0.405475 0.5
12 1 0.448833 0.299809 0.5
41 1 0.448833 0.346598 0.5
15 1 0.489767 0.299809 0.5
13 1 0.4693 0.31139 0.5
14 1 0.4693 0.334892 0.5
44 1 0.489767 0.346598 0.5
18 1 0.5307 0.299809 0.5
16 1 0.510233 0.31139 0.5
17 1 0.510233 0.334892 0.5
47 1 0.5307 0.346598 0.5
19 1 0.551167 0.31139 0.5
20 1 0.551167 0.334891 0.5
42 1 0.448834 0.370113 0.5
68 1 0.448834 0.417286 0.5
45 1 0.489767 0.370113 0.5
43 1 0.4693 0.381813 0.5
69 1 0.4693 0.405477 0.5
70 1 0.489767 0.417286 0.5
48 1 0.5307 0.370113 0.5
46 1 0.510233 0.381813 0.5
71 1 0.510233 0.405477 0.5
72 1 0.5307 0.417286 0.5
49 1 0.551166 0.381813 0.5
73 1 0.551166 0.405477 0.5
21 1 0.571633 0.299808 0.5
50 1 0.571634 0.346599 0.5
24 1 0.612552 0.299808 0.5
22 1 0.592105 0.311387 0.5
23 1 0.592102 0.334887 0.5
53 1 0.61256 0.346611 0.5
27 1 0.653238 0.299781 0.5
25 1 0.632922 0.311451 0.5
26 1 0.632926 0.334885 0.5
56 1 0.65324 0.346625 0.5
30 1 0.693497 0.299111 0.5
28 1 0.673575 0.311301 0.5
29 1 0.67358 0.3348 0.5
59 1 0.69379 0.346605 0.5
51 1 0.571633 0.370112 0.5
74 1 0.571633 0.417287 0.5
54 1 0.612557 0.370097 0.5
52 1 0.592102 0.381818 0.5
75 1 0.592102 0.405471 0.5
76 1 0.612557 0.417301 0.5
57 1 0.653227 0.37008 0.5
55 1 0.632939 0.381848 0.5
77 1 0.632939 0.405441 0.5
78 1 0.65323 0.417321 0.5
60 1 0.693735 0.369944 0.5
58 1 0.67353 0.38184 0.5
79 1 0.67353 0.405459 0.5
80 1 0.693722 0.417392 0.5
83 1 0.326469 0.4409 0.5
81 1 0.306278 0.452841 0.5
82 1 0.306278 0.476259 0.5
111 1 0.326469 0.488201 0.5
86 1 0.367061 0.440883 0.5
84 1 0.346771 0.45277 0.5
85 1 0.346771 0.476331 0.5
113 1 0.367061 0.488219 0.5
89 1 0.407898 0.440913 0.5
87 1 0.387443 0.452749 0.5
88 1 0.387443 0.476352 0.5
115 1 0.407898 0.488189 0.5
90 1 0.428367 0.452735 0.5
91 1 0.428367 0.476365 0.5
112 1 0.326469 0.511799 0.5
131 1 0.306278 0.523741 0.5
132 1 0.306278 0.547159 0.5
133 1 0.326469 0.5591 0.5
114 1 0.367061 0.511781 0.5
134 1 0.346771 0.523669 0.5
135 1 0.346771 0.54723 0.5
136 1 0.367061 0.559117 0.5
116 1 0.407898 0.511811 0.5
137 1 0.387443 0.523648 0.5
138 1 0.387443 0.547251 0.5
139 1 0.407898 0.559087 0.5
140 1 0.428367 0.523635 0.5
141 1 0.428367 0.547264 0.5
92 1 0.448834 0.440918 0.5
117 1 0.448834 0.488184 0.5
95 1 0.489767 0.440918 0.5
93 1 0.4693 0.452734 0.5
94 1 0.4693 0.476367 0.5
119 1 0.489767 0.488183 0.5
98 1 0.5307 0.440918 0.5
96 1 0.510233 0.452734 0.5
97 1 0.510233 0.476367 0.5
121 1 0.5307 0.488183 0.5
99 1 0.551166 0.452734 0.5
100 1 0.551166 0.476367 0.5
118 1 0.448834 0.511816 0.5
142 1 0.448834 0.559082 0.5
120 1 0.489767 0.511817 0.5
143 1 0.4693 0.523633 0.5
144 1 0.4693 0.547266 0.5
145 1 0.489767 0.559082 0.5
122 1 0.5307 0.511817 0.5
146 1 0.510233 0.523633 0.5
147 1 0.510233 0.547266 0.5
148 1 0.5307 0.559082 0.5
149 1 0.551166 0.523633 0.5
150 1 0.551166 0.547266 0.5
101 1 0.571633 0.440917 0.5
123 1 0.571633 0.488185 0.5
104 1 0.612557 0.440903 0.5
102 1 0.592102 0.452739 0.5
103 1 0.592102 0.476361 0.5
125 1 0.612557 0.488199 0.5
107 1 0.653229 0.440882 0.5
105 1 0.632939 0.452769 0.5
106 1 0.632939 0.476332 0.5
127 1 0.653229 0.488219 0.5
110 1 0.693722 0.44081 0.5
108 1 0.673531 0.452751 0.5
109 1 0.673531 0.476349 0.5
129 1 0.693722 0.488291 0.5
124 1 0.571633 0.511815 0.5
151 1 0.571633 0.559083 0.5
126 1 0.612557 0.511801 0.5
152 1 0.592102 0.523639 0.5
153 1 0.592102 0.54726 0.5
154 1 0.612557 0.559097 0.5
128 1 0.653229 0.511781 0.5
155 1 0.632939 0.523668 0.5
156 1 0.632939 0.547231 0.5
157 1 0.653229 0.559118 0.5
130 1 0.693722 0.511709 0.5
158 1 0.673531 0.523651 0.5
159 1 0.673531 0.547249 0.5
160 1 0.693722 0.55919 0.5
162 1 0.326468 0.582698 0.5
161 1 0.306279 0.594636 0.5
181 1 0.306277 0.618062 0.5
182 1 0.326439 0.629968 0.5
164 1 0.367061 0.582679 0.5
163 1 0.346771 0.59456 0.5
184 1 0.346761 0.618157 0.5
185 1 0.367065 0.62991 0.5
166 1 0.407898 0.582709 0.5
165 1 0.387443 0.594539 0.5
187 1 0.387443 0.618172 0.5
188 1 0.407898 0.629892 0.5
167 1 0.428367 0.594525 0.5
190 1 0.428367 0.618186 0.5
183 1 0.326383 0.653474 0.5
211 1 0.306176 0.665424 0.5
212 1 0.306254 0.688879 0.5
213 1 0.326637 0.700457 0.5
186 1 0.367071 0.65334 0.5
214 1 0.346767 0.665111 0.5
215 1 0.346827 0.688561 0.5
216 1 0.3671 0.700185 0.5
189 1 0.407897 0.653397 0.5
217 1 0.387451 0.665115 0.5
218 1 0.387467 0.688598 0.5
219 1 0.40791 0.700194 0.5
220 1 0.428367 0.66511 0.5
221 1 0.428367 0.68861 0.5
168 1 0.448834 0.582714 0.5
191 1 0.448834 0.629887 0.5
170 1 0.489767 0.582714 0.5
169 1 0.4693 0.594523 0.5
193 1 0.4693 0.618187 0.5
194 1 0.489767 0.629887 0.5
172 1 0.5307 0.582714 0.5
171 1 0.510233 0.594523 0.5
196 1 0.510233 0.618187 0.5
197 1 0.5307 0.629887 0.5
173 1 0.551166 0.594523 0.5
199 1 0.551166 0.618187 0.5
192 1 0.448833 0.653402 0.5
222 1 0.448833 0.700191 0.5
195 1 0.489767 0.653402 0.5
223 1 0.4693 0.665108 0.5
224 1 0.4693 0.68861 0.5
225 1 0.489767 0.700191 0.5
198 1 0.5307 0.653402 0.5
226 1 0.510233 0.665108 0.5
227 1 0.510233 0.68861 0.5
228 1 0.5307 0.700191 0.5
229 1 0.551167 0.665109 0.5
230 1 0.551167 0.68861 0.5
174 1 0.571633 0.582713 0.5
200 1 0.571633 0.629888 0.5
176 1 0.612557 0.582699 0.5
175 1 0.592102 0.594529 0.5
202 1 0.592102 0.618182 0.5
203 1 0.612557 0.629903 0.5
178 1 0.65323 0.582679 0.5
177 1 0.632939 0.594559 0.5
205 1 0.632939 0.618152 0.5
206 1 0.653227 0.62992 0.5
180 1 0.693722 0.582608 0.5
179 1 0.67353 0.594541 0.5
208 1 0.67353 0.61816 0.5
209 1 0.693735 0.630056 0.5
201 1 0.571634 0.6534 0.5
231 1 0.571633 0.700192 0.5
204 1 0.61256 0.653389 0.5
232 1 0.592102 0.665113 0.5
233 1 0.592105 0.688613 0.5
234 1 0.612552 0.700192 0.5
207 1 0.65324 0.653375 0.5
235 1 0.632926 0.665115 0.5
236 1 0.632922 0.688549 0.5
237 1 0.653238 0.700219 0.5
210 1 0.69379 0.653395 0.5
238 1 0.67358 0.6652 0.5
239 1 0.673575 0.688699 0.5
240 1 0.693497 0.700889 0.5
ITEM: TIMESTEP
300
ITEM: NUMBER OF ATOMS
240
ITEM: BOX BOUNDS pp pp pp
-3.0000000000000000e+01 3.0000000000000000e+01
-3.0000000000000000e+01 3.0000000000000000e+01
-3.0000000000000000e+01 3.0000000000000000e+01
ITEM: ATOMS id type xs ys zs
3 1 0.326637 0.299543 0.5
1 1 0.306254 0.311121 0.5
2 1 0.306176 0.334576 0.5
32 1 0.326383 0.346526 0.5
6 1 0.3671 0.299815 0.5
4 1 0.346827 0.311439 0.5
5 1 0.346767 0.334889 0.5
35 1 0.367071 0.346659 0.5
9 1 0.40791 0.299806 0.5
7 1 0.387467 0.311402 0.5
8 1 0.387451 0.334886 0.5
38 1 0.407897 0.346603 0.5
10 1 0.428367 0.31139 0.5
11 1 0.428367 0.33489 0.5
33 1 0.326439 0.370032 0.5
31 1 0.306277 0.381938 0.5
61 1 0.306279 0.405364 0.5
62 1 0.326468 0.417302 0.5
36 1 0.367065 0.37009 0.5
34 1 0.346761 0.381843 0.5
63 1 0.346771 0.40544 0.5
64 1 0.367061 0.417321 0.5
39 1 0.407898 0.370108 0.5
37 1 0.387443 0.381828 0.5
65 1 0.387443 0.405461 0.5
66 1 0.407898 0.417291 0.5
40 1 0.428367 0.381814 0.5
67 1 0.428367 0.405475 0.5
12 1 0.448833 0.299809 0.5
41 1 0.448833 0.346598 0.5
15 1 0.489767 0.299809 0.5
13 1 0.4693 0.31139 0.5
14 1 0.4693 0.334892 0.5
44 1 0.489767 0.346598 0.5
18 1 0.5307 0.299809 0.5
16 1 0.510233 0.31139 0.5
17 1 0.510233 0.334892 0.5
47 1 0.5307 0.346598 0.5
19 1 0.551167 0.31139 0.5
20 1 0.551167 0.334891 0.5
42 1 0.448834 0.370113 0.5
68 1 0.448834 0.417286 0.5
45 1 0.489767 0.370113 0.5
43 1 0.4693 0.381813 0.5
69 1 0.4693 0.405477 0.5
70 1 0.489767 0.417286 0.5
48 1 0.5307 0.370113 0.5
46 1 0.510233 0.381813 0.5
71 1 0.510233 0.405477 0.5
72 1 0.5307 0.417286 0.5
49 1 0.551166 0.381813 0.5
73 1 0.551166 0.405477 0.5
21 1 0.571633 0.299808 0.5
50 1 0.571634 0.346599 0.5
24 1 0.612552 0.299808 0.5
22 1 0.592105 0.311387 0.5
23 1 0.592102 0.334887 0.5
53 1 0.61256 0.346611 0.5
27 1 0.653238 0.299781 0.5
25 1 0.632922 0.311451 0.5
26 1 0.632926 0.334885 0.5
56 1 0.65324 0.346625 0.5
30 1 0.693497 0.299111 0.5
28 1 0.673575 0.311301 0.5
29 1 0.67358 0.3348 0.5
59 1 0.69379 0.346605 0.5
51 1 0.571633 0.370112 0.5
74 1 0.571633 0.417287 0.5
54 1 0.612557 0.370097 0.5
52 1 0.592102 0.381818 0.5
75 1 0.592102 0.405471 0.5
76 1 0.612557 0.417301 0.5
57 1 0.653227 0.37008 0.5
55 1 0.632939 0.381848 0.5
77 1 0.632939 0.405441 0.5
78 1 0.65323 0.417321 0.5
60 1 0.693735 0.369944 0.5
58 1 0.67353 0.38184 0.5
79 1 0.67353 0.405459 0.5
80 1 0.693722 0.417392 0.5
83 1 0.326469 0.4409 0.5
81 1 0.306278 0.452841 0.5
82 1 0.306278 0.476259 0.5
111 1 0.326469 0.488201 0.5
86 1 0.367061 0.440883 0.5
84 1 0.346771 0.45277 0.5
85 1 0.346771 0.476331 0.5
113 1 0.367061 0.488219 0.5
89 1 0.407898 0.440913 0.5
87 1 0.387443 0.452749 0.5
88 1 0.387443 0.476352 0.5
115 1 0.407898 0.488189 0.5
90 1 0.428367 0.452735 0.5
91 1 0.428367 0.476365 0.5
112 1 0.326469 0.511799 0.5
131 1 0.306278 0.523741 0.5
132 1 0.306278 0.547159 0.5
133 1 0.326469 0.5591 0.5
114 1 0.367061 0.511781 0.5
134 1 0.346771 0.523669 0.5