LAMMPS data file via write_data, version 27 Jun 2024, timestep = 1507, units = real

960 atoms
1 atom types
1352 bonds
1 bond types
2536 angles
1 angle types
4788 dihedrals
1 dihedral types
792 impropers
1 improper types

-30 30 xlo xhi
-30 30 ylo yhi
-18 18 zlo zhi

Masses

1 12.0107

Atoms # molecular

4 1 1 -10.40251691328429 -12.734754854404756 -13.5 0 0 0
1 2 1 -11.622807456858784 -12.040405245533183 -13.5 0 0 0
2 3 1 -11.628414142956089 -10.635338586913432 -13.5 0 0 0
5 4 1 -10.417613645860579 -9.91584265343535 -13.5 0 0 0
10 5 1 -7.970438131815086 -12.72240167277056 -13.5 0 0 0
7 6 1 -9.190147550127655 -12.024406004673748 -13.5 0 0 0
8 7 1 -9.194306124200295 -10.615675591014808 -13.5 0 0 0
11 8 1 -7.973234637557429 -9.910379649432361 -13.5 0 0 0
16 9 1 -5.524282377748094 -12.721009964905555 -13.5 0 0 0
13 10 1 -6.74905783162809 -12.023232165085524 -13.5 0 0 0
14 11 1 -6.749929543956299 -10.614665967648975 -13.5 0 0 0
17 12 1 -5.524802871271753 -9.911945143641208 -13.5 0 0 0
19 14 1 -4.2976199311336165 -12.024511303963953 -13.5 0 0 0
20 15 1 -4.297697619506234 -10.614577443996062 -13.5 0 0 0
6 41 1 -10.4143369537608 -8.505649122262945 -13.5 0 0 0
3 42 1 -11.624196487723799 -7.791384894023487 -13.5 0 0 0
61 43 1 -11.622943981364406 -6.3867074455987485 -13.5 0 0 0
63 44 1 -10.412345401534754 -5.669824531218755 -13.5 0 0 0
12 45 1 -7.973009473715416 -8.500881809523705 -13.5 0 0 0
9 46 1 -9.194281061086107 -7.795954747624912 -13.5 0 0 0
65 47 1 -9.193409006802158 -6.380756250972519 -13.5 0 0 0
67 48 1 -7.972903300444937 -5.6705788587439105 -13.5 0 0 0
18 49 1 -5.524833423889932 -8.500169977167666 -13.5 0 0 0
15 50 1 -6.7502241873470314 -7.794717693981377 -13.5 0 0 0
69 51 1 -6.750205315835535 -6.380105053312689 -13.5 0 0 0
71 52 1 -5.524924249253309 -5.671540737601934 -13.5 0 0 0
21 54 1 -4.297841399339963 -7.795961873781292 -13.5 0 0 0
73 55 1 -4.297822502786508 -6.379216081546168 -13.5 0 0 0
22 13 1 -3.0698889951005874 -12.720726821433608 -13.5 0 0 0
23 16 1 -3.070010516607409 -9.912594365216036 -13.5 0 0 0
28 17 1 -0.6140018414219981 -12.720695269768862 -13.5 0 0 0
25 18 1 -1.841996064710903 -12.024602953147802 -13.5 0 0 0
26 19 1 -1.841999608191833 -10.614457000270464 -13.5 0 0 0
29 20 1 -0.6139999847056546 -9.91264242368008 -13.5 0 0 0
34 21 1 1.8420088776884507 -12.72069887720254 -13.5 0 0 0
31 22 1 0.6140028390135176 -12.02460459014584 -13.5 0 0 0
32 23 1 0.6140006737844168 -10.614446085729796 -13.5 0 0 0
35 24 1 1.8420066247344282 -9.912633133932543 -13.5 0 0 0
37 26 1 3.0700302391726266 -12.024609601129256 -13.5 0 0 0
38 27 1 3.0700021565889237 -10.614491898603166 -13.5 0 0 0
24 53 1 -3.0699873376953515 -8.499728032615671 -13.5 0 0 0
75 56 1 -3.069990541663664 -5.672105218239616 -13.5 0 0 0
30 57 1 -0.6139988796670919 -8.499666180213795 -13.5 0 0 0
27 58 1 -1.8419993694107244 -7.796163597578998 -13.5 0 0 0
77 59 1 -1.841996000772672 -6.378999126810084 -13.5 0 0 0
79 60 1 -0.6139979718380172 -5.672166371835463 -13.5 0 0 0
36 61 1 1.8419990039887497 -8.499681084486882 -13.5 0 0 0
33 62 1 0.61399872292433 -7.796174942206252 -13.5 0 0 0
81 63 1 0.6139979923448101 -6.378985063829732 -13.5 0 0 0
83 64 1 1.841995717338816 -5.672153769414651 -13.5 0 0 0
39 66 1 3.069998038960723 -7.796117155889298 -13.5 0 0 0
85 67 1 3.069990928853142 -6.379051257588754 -13.5 0 0 0
40 25 1 4.297799520916135 -12.720815397710634 -13.5 0 0 0
41 28 1 4.297896519084811 -9.9125256400185 -13.5 0 0 0
46 29 1 6.750607076658598 -12.721265631346348 -13.5 0 0 0
43 30 1 5.525072119462304 -12.02438930706702 -13.5 0 0 0
44 31 1 5.524779084436616 -10.614886079022154 -13.5 0 0 0
47 32 1 6.7502274807437335 -9.911314109871487 -13.5 0 0 0
52 33 1 9.191467403737366 -12.72376646593762 -13.5 0 0 0
49 34 1 7.9727819032742975 -12.0225038507723 -13.5 0 0 0
50 35 1 7.973212123205099 -10.615092921754522 -13.5 0 0 0
53 36 1 9.195085990230753 -9.912711809210728 -13.5 0 0 0
58 37 1 11.609855360518521 -12.76164209549942 -13.5 0 0 0
55 38 1 10.41271406397163 -12.03046697360034 -13.5 0 0 0
56 39 1 10.415372886742029 -10.621751461255158 -13.5 0 0 0
59 40 1 11.627689372918182 -9.912727082518652 -13.5 0 0 0
42 65 1 4.297833810561183 -8.499894136381661 -13.5 0 0 0
87 68 1 4.297827628151798 -5.671944458912599 -13.5 0 0 0
48 69 1 6.7501275917634675 -8.500633753656551 -13.5 0 0 0
45 70 1 5.524954377835064 -7.7955764119221955 -13.5 0 0 0
89 71 1 5.524926845244813 -6.379626666143851 -13.5 0 0 0
91 72 1 6.750253055791683 -5.670959148408761 -13.5 0 0 0
54 73 1 9.193631654182505 -8.501550397681962 -13.5 0 0 0
51 74 1 7.972962599040145 -7.794574582496181 -13.5 0 0 0
93 75 1 7.972788544124363 -6.380705240450284 -13.5 0 0 0
95 76 1 9.193105208890342 -5.671051717331708 -13.5 0 0 0
60 77 1 11.62460139901532 -8.509430438065783 -13.5 0 0 0
57 78 1 10.413115649122036 -7.794512328521171 -13.5 0 0 0
97 79 1 10.412482114028311 -6.381994638511839 -13.5 0 0 0
99 80 1 11.622800170355582 -5.665570351827172 -13.5 0 0 0
64 81 1 -10.412318761865492 -4.256110887975126 -13.5 0 0 0
62 82 1 -11.622804401979929 -3.5386311079984143 -13.5 0 0 0
101 83 1 -11.622791018456542 -2.133317403534034 -13.5 0 0 0
104 84 1 -10.412336124150446 -1.415719802166853 -13.5 0 0 0
68 85 1 -7.972802337972208 -4.255475523753883 -13.5 0 0 0
66 86 1 -9.193116883706109 -3.5438845078270442 -13.5 0 0 0
106 87 1 -9.193102910718983 -2.128051386005763 -13.5 0 0 0
109 88 1 -7.9727966259788685 -1.4162868400979955 -13.5 0 0 0
72 89 1 -5.524918418260986 -4.254385747870494 -13.5 0 0 0
70 90 1 -6.750247770741215 -3.543727576355937 -13.5 0 0 0
111 91 1 -6.750242877317105 -2.128187326478413 -13.5 0 0 0
114 92 1 -5.524915885315802 -1.4173589776425108 -13.5 0 0 0
74 94 1 -4.297822934058382 -3.544710169260497 -13.5 0 0 0
116 95 1 -4.297821310482685 -2.1271973524189547 -13.5 0 0 0
105 121 1 -10.412335810388303 -0.002277797100700184 -13.5 0 0 0
102 122 1 -11.622790337288953 0.7153203959250001 -13.5 0 0 0
103 123 1 -11.622802859229724 2.1206347055500645 -13.5 0 0 0
153 124 1 -10.41231756664385 2.8381175818646605 -13.5 0 0 0
110 125 1 -7.972796427564028 -0.0017102223440541473 -13.5 0 0 0
107 126 1 -9.193102598637735 0.7100553522577054 -13.5 0 0 0
108 127 1 -9.19311599437986 2.125889031171288 -13.5 0 0 0
158 128 1 -7.972801478067034 2.837484024129125 -13.5 0 0 0
115 129 1 -5.524915761807258 -0.0006377853516057197 -13.5 0 0 0
112 130 1 -6.750242749468592 0.7101921379625495 -13.5 0 0 0
113 131 1 -6.750247175022117 2.1257325059214853 -13.5 0 0 0
163 132 1 -5.524917995293566 2.8363954808686964 -13.5 0 0 0
117 134 1 -4.297821300893298 0.7092025147082955 -13.5 0 0 0
118 135 1 -4.297822634930003 2.1267154316149592 -13.5 0 0 0
154 161 1 -10.412342456868016 4.251832888675186 -13.5 0 0 0
159 165 1 -7.972901159646227 4.252588117856267 -13.5 0 0 0
164 169 1 -5.524923113490888 4.2535509961350435 -13.5 0 0 0
76 93 1 -3.069987974692133 -4.253819843175033 -13.5 0 0 0
119 96 1 -3.0699868706328663 -1.417919024246963 -13.5 0 0 0
80 97 1 -0.6139976269789571 -4.253755555080989 -13.5 0 0 0
78 98 1 -1.8419945635319794 -3.5449223531478964 -13.5 0 0 0
121 99 1 -1.8419941817043033 -2.1269826195328085 -13.5 0 0 0
124 100 1 -0.6139974607369958 -1.4179818651495002 -13.5 0 0 0
84 101 1 1.84199466731895 -4.253769128007806 -13.5 0 0 0
82 102 1 0.6139975861991317 -3.54493533676107 -13.5 0 0 0
126 103 1 0.6139974918747283 -2.126969256553377 -13.5 0 0 0
129 104 1 1.8419941749864517 -1.4179686407777468 -13.5 0 0 0
86 106 1 3.069987664551971 -3.544873143346358 -13.5 0 0 0
131 107 1 3.069986921632275 -2.1270325639038847 -13.5 0 0 0
120 133 1 -3.0699868096423586 -7.765240672403276e-05 -13.5 0 0 0
168 136 1 -3.069987840951256 2.8358299887518066 -13.5 0 0 0
125 137 1 -0.6139974495368697 -1.483443138612822e-05 -13.5 0 0 0
122 138 1 -1.841994178274071 0.708987824495684 -13.5 0 0 0
123 139 1 -1.841994481779535 2.126927717967061 -13.5 0 0 0
173 140 1 -0.6139976068216677 2.835765771075508 -13.5 0 0 0
130 141 1 1.8419941500437051 -2.804327941066888e-05 -13.5 0 0 0
127 142 1 0.6139974955523781 0.7089744553552109 -13.5 0 0 0
128 143 1 0.6139975648644234 2.126940709878316 -13.5 0 0 0
178 144 1 1.841994606156716 2.8357793319215077 -13.5 0 0 0
132 146 1 3.0699869221786416 0.7090377747300918 -13.5 0 0 0
133 147 1 3.0699875028213013 2.1268784880742437 -13.5 0 0 0
169 173 1 -3.0699900968483167 4.254115979617602 -13.5 0 0 0
174 177 1 -0.6139978968276053 4.25417727349332 -13.5 0 0 0
179 181 1 1.8419955141525648 4.254164635564976 -13.5 0 0 0
88 105 1 4.2978231143764765 -4.253985846587719 -13.5 0 0 0
134 108 1 4.297821161752377 -1.4177548436566445 -13.5 0 0 0
92 109 1 6.750246138805183 -4.254981920119944 -13.5 0 0 0
90 110 1 5.524918630345859 -3.544315700493474 -13.5 0 0 0
136 111 1 5.524916033150365 -2.127594488139987 -13.5 0 0 0
139 112 1 6.750242453991282 -1.4167681451986927 -13.5 0 0 0
96 113 1 9.193094314007096 -4.254846468860343 -13.5 0 0 0
94 114 1 7.972803776011375 -3.5432478663922296 -13.5 0 0 0
141 115 1 7.972796862923539 -2.128671322368272 -13.5 0 0 0
144 116 1 9.193101783967547 -1.416910873582868 -13.5 0 0 0
100 117 1 11.622805669530301 -4.260213344844102 -13.5 0 0 0
98 118 1 10.412353092064732 -3.5426901685508936 -13.5 0 0 0
146 119 1 10.412335456521845 -2.1292470866470126 -13.5 0 0 0
149 120 1 11.622789026690826 -1.4116558903330327 -13.5 0 0 0
135 145 1 4.2978210590406025 -0.0002418442560917282 -13.5 0 0 0
183 148 1 4.297822888090233 2.835995859263459 -13.5 0 0 0
140 149 1 6.750242310194007 -0.0012287234874414805 -13.5 0 0 0
137 150 1 5.524915977755149 0.7095995403421257 -13.5 0 0 0
138 151 1 5.52491822071343 2.1263208348056115 -13.5 0 0 0
188 152 1 6.7502455238695385 2.8369911662665244 -13.5 0 0 0
145 153 1 9.19310165477891 -0.0010862875426351868 -13.5 0 0 0
142 154 1 7.972796683672476 0.7106758353993172 -13.5 0 0 0
143 155 1 7.972803015765587 2.125252614375204 -13.5 0 0 0
193 156 1 9.193093226878123 2.8368540700239095 -13.5 0 0 0
150 157 1 11.622788761565241 -0.006342156647379183 -13.5 0 0 0
147 158 1 10.412335253050923 0.711250530217051 -13.5 0 0 0
148 159 1 10.412351993056557 2.1246944566890753 -13.5 0 0 0
198 160 1 11.622803662923944 2.8422200170413965 -13.5 0 0 0
184 185 1 4.297826890832546 4.253955029406357 -13.5 0 0 0
189 189 1 6.750251437858671 4.252968949192913 -13.5 0 0 0
194 193 1 9.19310261429075 4.253060529871762 -13.5 0 0 0
199 197 1 11.622796357251682 4.247578055932072 -13.5 0 0 0
151 162 1 -11.622939615878813 4.968719039992681 -13.5 0 0 0
152 163 1 -11.624189783570587 6.373397307071003 -13.5 0 0 0
155 164 1 -10.414330551354855 7.08766352732811 -13.5 0 0 0
156 166 1 -9.193406192164137 4.9627683037814325 -13.5 0 0 0
157 167 1 -9.194275886780453 6.37796770924407 -13.5 0 0 0
160 168 1 -7.973005148914422 7.082898840158654 -13.5 0 0 0
161 170 1 -6.750203620724933 4.962119576413821 -13.5 0 0 0
162 171 1 -6.75022096748252 6.376732456228711 -13.5 0 0 0
165 172 1 -5.524831107400643 7.0821892859413245 -13.5 0 0 0
166 174 1 -4.297821761708952 4.961231884861702 -13.5 0 0 0
167 175 1 -4.297839915398608 6.3779778950945625 -13.5 0 0 0
203 201 1 -10.41760450088131 8.49785659013534 -13.5 0 0 0
201 202 1 -11.628403860716604 9.217352515266168 -13.5 0 0 0
202 203 1 -11.62279504004302 10.622418342153052 -13.5 0 0 0
204 204 1 -10.402505295338845 11.316768084073763 -13.5 0 0 0
207 205 1 -7.973228030404628 8.49239530156515 -13.5 0 0 0
205 206 1 -9.194297848862574 9.197691465209614 -13.5 0 0 0
206 207 1 -9.190137379172132 10.60641979717059 -13.5 0 0 0
208 208 1 -7.970430356536567 11.304417544900472 -13.5 0 0 0
211 209 1 -5.524799371041809 8.4939627224588 -13.5 0 0 0
209 210 1 -6.749924524721351 9.196684622881389 -13.5 0 0 0
210 211 1 -6.749051820426544 10.605248250260496 -13.5 0 0 0
212 212 1 -5.524278320696176 11.303027383586475 -13.5 0 0 0
213 214 1 -4.297695352016914 9.196597444285569 -13.5 0 0 0
214 215 1 -4.2976172722794646 10.606528581883044 -13.5 0 0 0
170 176 1 -3.069986455642308 7.08174826893015 -13.5 0 0 0
171 178 1 -1.8419957768598691 4.961015323387527 -13.5 0 0 0
172 179 1 -1.8419989260941585 6.378180117412449 -13.5 0 0 0
175 180 1 -0.6139987453417147 7.081686653668837 -13.5 0 0 0
176 182 1 0.6139979371744472 4.961001310514002 -13.5 0 0 0
177 183 1 0.6139985950014498 6.378191540445647 -13.5 0 0 0
180 184 1 1.8419985630087827 7.081701488885323 -13.5 0 0 0
181 186 1 3.0699905146782505 4.961067335213395 -13.5 0 0 0
182 187 1 3.069997174597768 6.378133500013559 -13.5 0 0 0
215 213 1 -3.070009180248867 8.494612897158637 -13.5 0 0 0
216 216 1 -3.0698874917072327 11.302744530835657 -13.5 0 0 0
219 217 1 -0.6139997873953555 8.494661256629982 -13.5 0 0 0
217 218 1 -1.8419989540258113 9.19647741352256 -13.5 0 0 0
218 219 1 -1.8419953299123193 10.606620622658772 -13.5 0 0 0
220 220 1 -0.6140016264695054 11.302712893241667 -13.5 0 0 0
223 221 1 1.8420059550455476 8.494651868890825 -13.5 0 0 0
221 222 1 0.614000473867261 9.196466541518468 -13.5 0 0 0
222 223 1 0.6140026167722223 10.606622310301532 -13.5 0 0 0
224 224 1 1.84200812678792 11.302716550124563 -13.5 0 0 0
225 226 1 3.0700008198733197 9.196512162471157 -13.5 0 0 0
226 227 1 3.0700286965499544 10.606627119281171 -13.5 0 0 0
185 188 1 4.297832314443915 7.081914016171753 -13.5 0 0 0
186 190 1 5.5249256651513585 4.9616419742598055 -13.5 0 0 0
187 191 1 5.524952112525868 6.377591894212251 -13.5 0 0 0
190 192 1 6.750124316784217 7.082652082685047 -13.5 0 0 0
191 194 1 7.9727862752910585 4.96271865094145 -13.5 0 0 0
192 195 1 7.972958385388365 6.376588455029875 -13.5 0 0 0
195 196 1 9.19362630132728 7.083565866806573 -13.5 0 0 0
196 198 1 10.412478854698222 4.964005774524536 -13.5 0 0 0
197 199 1 10.41311000651706 6.376524903582122 -13.5 0 0 0
200 200 1 11.624594240671536 7.0914455353197505 -13.5 0 0 0
227 225 1 4.297894247070537 8.49454378813559 -13.5 0 0 0
228 228 1 4.29779691296058 11.30283298974769 -13.5 0 0 0
231 229 1 6.750222524564707 8.493330800024363 -13.5 0 0 0
229 230 1 5.5247755807485275 9.19690551675711 -13.5 0 0 0
230 231 1 5.525067939581702 10.606406055471812 -13.5 0 0 0
232 232 1 6.750601213878611 11.30328242862701 -13.5 0 0 0
235 233 1 9.195077876504316 8.494726263913089 -13.5 0 0 0
233 234 1 7.973205491515868 9.197110272604215 -13.5 0 0 0
234 235 1 7.972773702936181 10.604518864136764 -13.5 0 0 0
236 236 1 9.191457478902285 11.305781118330625 -13.5 0 0 0
239 237 1 11.627679688651058 8.494742085933947 -13.5 0 0 0
237 238 1 10.415362976843982 9.203766044200478 -13.5 0 0 0
238 239 1 10.412701857019753 10.612479526218609 -13.5 0 0 0
240 240 1 11.609843037604971 11.343652242314995 -13.5 0 0 0
243 241 1 -10.402505228954329 -11.316768284248942 -4.5 0 0 0
241 242 1 -11.62279493589778 -10.622418429299108 -4.5 0 0 0
242 243 1 -11.628403777828586 -9.217352467640362 -4.5 0 0 0
244 244 1 -10.417604488732293 -8.497856953720698 -4.5 0 0 0
247 245 1 -7.970430350205111 -11.304417576436816 -4.5 0 0 0
245 246 1 -9.190137442282204 -10.606420346889568 -4.5 0 0 0
246 247 1 -9.194297836953604 -9.197691003936148 -4.5 0 0 0
248 248 1 -7.973228086020902 -8.492396186651225 -4.5 0 0 0
251 249 1 -5.5242783371025785 -11.30302735666358 -4.5 0 0 0
249 250 1 -6.74905183707034 -10.605248868173014 -4.5 0 0 0
250 251 1 -6.749924529429971 -9.196683831581304 -4.5 0 0 0
252 252 1 -5.524799386316601 -8.493963750635281 -4.5 0 0 0
253 254 1 -4.297617274930088 -10.606529227675939 -4.5 0 0 0
254 255 1 -4.2976953520223535 -9.196596592030424 -4.5 0 0 0
283 281 1 -10.414330517824569 -7.08766317166839 -4.5 0 0 0
281 282 1 -11.624189828992431 -6.373397462165821 -4.5 0 0 0
282 283 1 -11.622939601487595 -4.968719037646971 -4.5 0 0 0
288 285 1 -7.973005078218524 -7.082898000239638 -4.5 0 0 0
286 286 1 -9.194275899630865 -6.377968304153088 -4.5 0 0 0
287 287 1 -9.193406125343339 -4.96276779025319 -4.5 0 0 0
293 289 1 -5.524831086605746 -7.082188165049006 -4.5 0 0 0
291 290 1 -6.750220973933449 -6.376733459990803 -4.5 0 0 0
292 291 1 -6.750203589222547 -4.962118556133726 -4.5 0 0 0
296 294 1 -4.2978399124257045 -6.377979023292928 -4.5 0 0 0
297 295 1 -4.297821755902664 -4.961230695906475 -4.5 0 0 0
255 253 1 -3.0698874908569866 -11.302744514145624 -4.5 0 0 0
256 256 1 -3.0700091823546214 -8.494613952307537 -4.5 0 0 0
259 257 1 -0.6140016264679033 -11.302712875958987 -4.5 0 0 0
257 258 1 -1.8419953296207034 -10.606621268221577 -4.5 0 0 0
258 259 1 -1.8419989538693973 -9.19647655911754 -4.5 0 0 0
260 260 1 -0.61399978741005 -8.49466231178128 -4.5 0 0 0
263 261 1 1.8420081264595989 -11.302716532980952 -4.5 0 0 0
261 262 1 0.6140026167643918 -10.606622955906603 -4.5 0 0 0
262 263 1 0.6140004738483263 -9.196465687298694 -4.5 0 0 0
264 264 1 1.8420059551547325 -8.494652923971291 -4.5 0 0 0
265 266 1 3.0700286949294937 -10.606627763187861 -4.5 0 0 0
266 267 1 3.070000819298095 -9.196511308313251 -4.5 0 0 0
298 293 1 -3.0699864545781437 -7.081747102674065 -4.5 0 0 0
303 297 1 -0.6139987453576591 -7.081685483637884 -4.5 0 0 0
301 298 1 -1.8419989265146126 -6.37818126374411 -4.5 0 0 0
302 299 1 -1.8419957771562443 -4.96101411153731 -4.5 0 0 0
308 301 1 1.841998563077838 -7.081700319466676 -4.5 0 0 0
306 302 1 0.6139985950254758 -6.378192687499473 -4.5 0 0 0
307 303 1 0.6139979372013369 -4.961000097869329 -4.5 0 0 0
311 306 1 3.069997175071365 -6.378134642817366 -4.5 0 0 0
312 307 1 3.069990515078644 -4.961066127360301 -4.5 0 0 0
267 265 1 4.2977969214294625 -11.302832971131398 -4.5 0 0 0
268 268 1 4.297894243007717 -8.49454483433793 -4.5 0 0 0
271 269 1 6.75060123128158 -11.303282446771815 -4.5 0 0 0
269 270 1 5.525067955817483 -10.606406706609555 -4.5 0 0 0
270 271 1 5.524775566604527 -9.196904695125832 -4.5 0 0 0
272 272 1 6.75022252447099 -8.49333177739563 -4.5 0 0 0
275 273 1 9.19145751172777 -11.305781146118697 -4.5 0 0 0
273 274 1 7.972773789160425 -10.604519478832218 -4.5 0 0 0
274 275 1 7.97320542898006 -9.197109600053464 -4.5 0 0 0
276 276 1 9.195077829526996 -8.494726885375917 -4.5 0 0 0
279 277 1 11.60984303907557 -11.34365235910013 -4.5 0 0 0
277 278 1 10.412701966814772 -10.61247980108642 -4.5 0 0 0
278 279 1 10.415362910401878 -9.20376566782465 -4.5 0 0 0
280 280 1 11.627679573866331 -8.494742033268473 -4.5 0 0 0
313 305 1 4.297832309143642 -7.081912860782443 -4.5 0 0 0
318 309 1 6.750124277625621 -7.082651055026367 -4.5 0 0 0
316 310 1 5.524952112983655 -6.377592983103005 -4.5 0 0 0
317 311 1 5.524925661758122 -4.961640835630187 -4.5 0 0 0
323 313 1 9.193626232505633 -7.083565206569069 -4.5 0 0 0
321 314 1 7.972958387628161 -6.376589240179481 -4.5 0 0 0
322 315 1 7.972786264376062 -4.962717818526899 -4.5 0 0 0
328 317 1 11.624594266943783 -7.091445252880957 -4.5 0 0 0
326 318 1 10.413110018119136 -6.3765251631932465 -4.5 0 0 0
327 319 1 10.412478830000124 -4.964005533484865 -4.5 0 0 0
284 284 1 -10.412342420440513 -4.251833445072256 -4.5 0 0 0
289 288 1 -7.972901093076599 -4.252589326299127 -4.5 0 0 0
294 292 1 -5.524923088590005 -4.253552514677641 -4.5 0 0 0
285 321 1 -10.412317524568754 -2.8381171986018123 -4.5 0 0 0
331 322 1 -11.622802754356956 -2.1206350097144986 -4.5 0 0 0
332 323 1 -11.6227902292084 -0.7153202173619521 -4.5 0 0 0
334 324 1 -10.412335781532212 0.002277158299888173 -4.5 0 0 0
290 325 1 -7.972801457241661 -2.8374828512662957 -4.5 0 0 0
336 326 1 -9.193115904731858 -2.12589037083229 -4.5 0 0 0
337 327 1 -9.193102491928308 -0.7100541659507437 -4.5 0 0 0
339 328 1 -7.97279641884009 0.0017086663659430638 -4.5 0 0 0
295 329 1 -5.52491799868486 -2.8363939287106956 -4.5 0 0 0
341 330 1 -6.750247132558187 -2.125734449290419 -4.5 0 0 0
342 331 1 -6.750242707321779 -0.7101902658962438 -4.5 0 0 0
344 332 1 -5.524915758103214 0.0006358884878644804 -4.5 0 0 0
346 334 1 -4.29782263339703 -2.126717531587777 -4.5 0 0 0
347 335 1 -4.297821298001137 -0.7092004753774923 -4.5 0 0 0
335 361 1 -10.412336071985862 1.415720471926121 -4.5 0 0 0
333 362 1 -11.622790938841737 2.1333174558620116 -4.5 0 0 0
381 363 1 -11.622804475932929 3.5386313154649396 -4.5 0 0 0
383 364 1 -10.412318730454528 4.2561108353419375 -4.5 0 0 0
340 365 1 -7.97279653600202 1.416288308441314 -4.5 0 0 0
338 366 1 -9.19310284855973 2.1280507434875826 -4.5 0 0 0
385 367 1 -9.19311691859445 3.543884998892941 -4.5 0 0 0
387 368 1 -7.972802310427479 4.2554751749700275 -4.5 0 0 0
345 369 1 -5.524915846657466 1.4173608397749782 -4.5 0 0 0
343 370 1 -6.750242879775947 2.128186159949722 -4.5 0 0 0
389 371 1 -6.750247753557793 3.5437285527738944 -4.5 0 0 0
391 372 1 -5.524918420792809 4.254385167216247 -4.5 0 0 0
348 374 1 -4.297821314627345 2.1271960032782555 -4.5 0 0 0
393 375 1 -4.297822919330234 3.544711301778396 -4.5 0 0 0
299 296 1 -3.069990096392804 -4.254117573419491 -4.5 0 0 0
304 300 1 -0.6139978968573013 -4.254178872114606 -4.5 0 0 0
309 304 1 1.841995514255241 -4.254166233497916 -4.5 0 0 0
300 333 1 -3.0699878411034667 -2.8358283851845028 -4.5 0 0 0
349 336 1 -3.069986810337576 7.569617977047986e-05 -4.5 0 0 0
305 337 1 -0.6139976068539204 -2.8357641641980735 -4.5 0 0 0
351 338 1 -1.8419944817518505 -2.1269298309592544 -4.5 0 0 0
352 339 1 -1.8419941781985967 -0.7089857739739711 -4.5 0 0 0
354 340 1 -0.613997449557804 1.2876561431405987e-05 -4.5 0 0 0
310 341 1 1.8419946062842396 -2.8357777254364827 -4.5 0 0 0
356 342 1 0.6139975648756549 -2.1269428231899017 -4.5 0 0 0
357 343 1 0.6139974955650299 -0.7089724046791501 -4.5 0 0 0
359 344 1 1.8419941500413717 2.608554657912584e-05 -4.5 0 0 0
361 346 1 3.0699875013183804 -2.126880598369654 -4.5 0 0 0
362 347 1 3.0699869224827903 -0.7090357254403238 -4.5 0 0 0
350 373 1 -3.0699868676444875 1.4179209540904156 -4.5 0 0 0
395 376 1 -3.069987975980546 4.2538191970885295 -4.5 0 0 0
355 377 1 -0.6139974607599813 1.417983800040475 -4.5 0 0 0
353 378 1 -1.8419941819198486 2.126981247391965 -4.5 0 0 0
397 379 1 -1.8419945639290276 3.544923508478125 -4.5 0 0 0
399 380 1 -0.6139976269983712 4.253754904583249 -4.5 0 0 0
360 381 1 1.8419941749682347 1.4179705752060967 -4.5 0 0 0
358 382 1 0.613997491912793 2.126967883751697 -4.5 0 0 0
401 383 1 0.6139975862254284 3.544936493044969 -4.5 0 0 0
403 384 1 1.841994667603051 4.25376847843941 -4.5 0 0 0
363 386 1 3.069986921072564 2.1270311961881476 -4.5 0 0 0
405 387 1 3.069987666349873 3.544874294932954 -4.5 0 0 0
314 308 1 4.2978268852628165 -4.253956606472594 -4.5 0 0 0
319 312 1 6.7502514128233395 -4.252970355381727 -4.5 0 0 0
324 316 1 9.193102593224342 -4.253061382188524 -4.5 0 0 0
329 320 1 11.622796376856586 -4.247578363546682 -4.5 0 0 0
315 345 1 4.297822888609287 -2.8359942689624593 -4.5 0 0 0
364 348 1 4.297821057519966 0.00023989879500526507 -4.5 0 0 0
320 349 1 6.7502455272795405 -2.836989733469415 -4.5 0 0 0
366 350 1 5.524918203343012 -2.1263228956372053 -4.5 0 0 0
367 351 1 5.524915970283467 -0.7095975438085605 -4.5 0 0 0
369 352 1 6.750242298541414 0.0012269436719955415 -4.5 0 0 0
325 353 1 9.193093177412031 -2.836853208418263 -4.5 0 0 0
371 354 1 7.972802945990889 -2.1252543005609694 -4.5 0 0 0
372 355 1 7.972796647899627 -0.710674170115195 -4.5 0 0 0
374 356 1 9.19310159662913 0.0010852093167211941 -4.5 0 0 0
330 357 1 11.622803541828056 -2.8422200525752315 -4.5 0 0 0
376 358 1 10.41235192049586 -2.124695249506451 -4.5 0 0 0
377 359 1 10.412335194416007 -0.7112497943833386 -4.5 0 0 0
379 360 1 11.622788669590435 0.006342071280797786 -4.5 0 0 0
365 385 1 4.29782116423241 1.4177567597140557 -4.5 0 0 0
407 388 1 4.297823097227945 4.253985217706882 -4.5 0 0 0
370 389 1 6.750242426148309 1.4167698878772337 -4.5 0 0 0
368 390 1 5.524916030251585 2.1275931797407557 -4.5 0 0 0
409 391 1 5.524918631444585 3.544316776286393 -4.5 0 0 0
411 392 1 6.7502460804431115 4.254981431212203 -4.5 0 0 0
375 393 1 9.193101724209166 1.4169120314572854 -4.5 0 0 0
373 394 1 7.972796842192515 2.1286704154771288 -4.5 0 0 0
413 395 1 7.972803752676773 3.543248656743788 -4.5 0 0 0
415 396 1 9.193094248846572 4.254846315029034 -4.5 0 0 0
380 397 1 11.622788985833457 1.4116561778551697 -4.5 0 0 0
378 398 1 10.412335420084567 2.129246861388054 -4.5 0 0 0
417 399 1 10.412353099857908 3.542690462035271 -4.5 0 0 0
419 400 1 11.622805705237841 4.260213284371362 -4.5 0 0 0
384 401 1 -10.412345475871808 5.669824417278826 -4.5 0 0 0
382 402 1 -11.622943988762442 6.386707386564308 -4.5 0 0 0
421 403 1 -11.624196432472253 7.791384782092685 -4.5 0 0 0
424 404 1 -10.414336889914248 8.50564919394259 -4.5 0 0 0
388 405 1 -7.972903398951227 5.670578858794102 -4.5 0 0 0
386 406 1 -9.193408942953765 6.380756407823357 -4.5 0 0 0
427 407 1 -9.19428116895761 7.795954545435838 -4.5 0 0 0
430 408 1 -7.973009442831835 8.500882265755102 -4.5 0 0 0
392 409 1 -5.524924262661326 5.671540851090874 -4.5 0 0 0
390 410 1 -6.750205295041012 6.380105283925241 -4.5 0 0 0
433 411 1 -6.750224255364983 7.794717230075337 -4.5 0 0 0
436 412 1 -5.524833426993531 8.500170724585407 -4.5 0 0 0
394 414 1 -4.297822505127806 6.379216316782106 -4.5 0 0 0
439 415 1 -4.297841406335938 7.79596129168046 -4.5 0 0 0
425 441 1 -10.417613632819105 9.915842692379897 -4.5 0 0 0
422 442 1 -11.628414146891103 10.635338702713925 -4.5 0 0 0
423 443 1 -11.622807506823214 12.040405368000775 -4.5 0 0 0
426 444 1 -10.402516967358958 12.734754986455144 -4.5 0 0 0
431 445 1 -7.973234631114309 9.910379259846055 -4.5 0 0 0
428 446 1 -9.194306173664993 10.61567584475963 -4.5 0 0 0
429 447 1 -9.19014749586476 12.02440598608383 -4.5 0 0 0
432 448 1 -7.970438209550159 12.722401906147937 -4.5 0 0 0
437 449 1 -5.524802874837384 9.911944409700853 -4.5 0 0 0
434 450 1 -6.7499295927632526 10.614666618230402 -4.5 0 0 0
435 451 1 -6.749057798809835 12.023231879268724 -4.5 0 0 0
438 452 1 -5.524282411155887 12.721010252324852 -4.5 0 0 0
440 454 1 -4.297697626930091 10.614578267454124 -4.5 0 0 0
441 455 1 -4.297619929368851 12.02451092005452 -4.5 0 0 0
396 413 1 -3.0699905427826852 5.672105350239622 -4.5 0 0 0
442 416 1 -3.069987336908487 8.499728850940258 -4.5 0 0 0
400 417 1 -0.6139979718648281 5.67216650614423 -4.5 0 0 0
398 418 1 -1.841996000592111 6.3789993604906225 -4.5 0 0 0
445 419 1 -1.841999369436917 7.7961629996924176 -4.5 0 0 0
448 420 1 -0.6139988796374239 8.499667003369913 -4.5 0 0 0
404 421 1 1.8419957176296762 5.672153903368076 -4.5 0 0 0
402 422 1 0.6139979923358957 6.3789852974487 -4.5 0 0 0
451 423 1 0.613998722911673 7.796174343669286 -4.5 0 0 0
454 424 1 1.8419990035240112 8.499681906871105 -4.5 0 0 0
406 426 1 3.0699909255164672 6.379051492699277 -4.5 0 0 0
457 427 1 3.069998040362544 7.796116561434734 -4.5 0 0 0
443 453 1 -3.070010517157075 9.912593549586061 -4.5 0 0 0
444 456 1 -3.0698889963953953 12.720727132338034 -4.5 0 0 0
449 457 1 -0.6139999846736204 9.912641601245406 -4.5 0 0 0
446 458 1 -1.84199960810139 10.614457850418297 -4.5 0 0 0
447 459 1 -1.8419960644191546 12.024602557696143 -4.5 0 0 0
450 460 1 -0.6140018414128563 12.720695582327332 -4.5 0 0 0
455 461 1 1.8420066244293736 9.912632312509398 -4.5 0 0 0
452 462 1 0.6140006737381777 10.614446936848257 -4.5 0 0 0
453 463 1 0.6140028389753719 12.0246041943581 -4.5 0 0 0
456 464 1 1.8420088776372228 12.720699189566211 -4.5 0 0 0
458 466 1 3.07000215769558 10.614492743186162 -4.5 0 0 0
459 467 1 3.070030237829882 12.024609207205984 -4.5 0 0 0
408 425 1 4.297827633661629 5.67194458215787 -4.5 0 0 0
460 428 1 4.297833812105004 8.499894936234291 -4.5 0 0 0
412 429 1 6.750253087704327 5.670959217547751 -4.5 0 0 0
410 430 1 5.52492680327759 6.379626911100591 -4.5 0 0 0
463 431 1 5.524954404419134 7.79557586742869 -4.5 0 0 0
466 432 1 6.750127556922837 8.500634417651689 -4.5 0 0 0
416 433 1 9.1931052616088 5.671051690631513 -4.5 0 0 0
414 434 1 7.97278841137862 6.380705474907059 -4.5 0 0 0
469 435 1 7.9729626901693695 7.794574249503548 -4.5 0 0 0
472 436 1 9.193631568501882 8.501550655074158 -4.5 0 0 0
420 437 1 11.62280018977911 5.665570267324005 -4.5 0 0 0
418 438 1 10.412482020246 6.3819947069125 -4.5 0 0 0
475 439 1 10.413115697740931 7.794512248124092 -4.5 0 0 0
478 440 1 11.624601291959126 8.509430526534658 -4.5 0 0 0
461 465 1 4.297896522689813 9.912524846448383 -4.5 0 0 0
462 468 1 4.297799529185548 12.720815703125279 -4.5 0 0 0
467 469 1 6.750227497736972 9.911313510655933 -4.5 0 0 0
464 470 1 5.524779110013384 10.614886848864437 -4.5 0 0 0
465 471 1 5.525072114051471 12.024388955265735 -4.5 0 0 0
468 472 1 6.7506071337463815 12.721265889772475 -4.5 0 0 0
473 473 1 9.195086011488028 9.912711659550883 -4.5 0 0 0
470 474 1 7.9732121952061235 10.615093372732884 -4.5 0 0 0
471 475 1 7.972781879648227 12.02250368448611 -4.5 0 0 0
474 476 1 9.191467494805988 12.723766607397238 -4.5 0 0 0
479 477 1 11.627689365962155 9.912727214313644 -4.5 0 0 0
476 478 1 10.415372939161024 10.621751565964171 -4.5 0 0 0
477 479 1 10.412714054148681 12.03046704757172 -4.5 0 0 0
480 480 1 11.609855412812635 12.761642178400757 -4.5 0 0 0
484 481 1 -10.402516913284332 -12.734754854404736 4.5 0 0 0
481 482 1 -11.62280745685882 -12.040405245533114 4.5 0 0 0
482 483 1 -11.628414142956089 -10.63533858691343 4.5 0 0 0
485 484 1 -10.417613645860648 -9.915842653435233 4.5 0 0 0
490 485 1 -7.970438131815054 -12.722401672770607 4.5 0 0 0
487 486 1 -9.190147550127687 -12.024406004673752 4.5 0 0 0
488 487 1 -9.194306124200216 -10.615675591014973 4.5 0 0 0
491 488 1 -7.973234637557612 -9.910379649432137 4.5 0 0 0
496 489 1 -5.524282377748093 -12.721009964905587 4.5 0 0 0
493 490 1 -6.749057831628053 -12.02323216508546 4.5 0 0 0
494 491 1 -6.749929543956305 -10.614665967649234 4.5 0 0 0
497 492 1 -5.524802871271779 -9.911945143641066 4.5 0 0 0
499 494 1 -4.297619931133571 -12.02451130396378 4.5 0 0 0
500 495 1 -4.297697619506206 -10.61457744399613 4.5 0 0 0
486 521 1 -10.414336953760786 -8.505649122263037 4.5 0 0 0
483 522 1 -11.624196487723838 -7.791384894023455 4.5 0 0 0
541 523 1 -11.6229439813644 -6.386707445598758 4.5 0 0 0
543 524 1 -10.412345401534846 -5.669824531218672 4.5 0 0 0
492 525 1 -7.973009473715351 -8.500881809523937 4.5 0 0 0
489 526 1 -9.194281061086249 -7.795954747624728 4.5 0 0 0
545 527 1 -9.193409006802066 -6.380756250972625 4.5 0 0 0
547 528 1 -7.972903300445051 -5.670578858743719 4.5 0 0 0
498 529 1 -5.524833423889929 -8.500169977167905 4.5 0 0 0
495 530 1 -6.7502241873471736 -7.794717693981223 4.5 0 0 0