LAMMPS data file via write_data, version 27 Jun 2024, timestep = 1507, units = real

64 atoms
1 atom types
80 bonds
1 bond types
132 angles
1 angle types
218 dihedrals
1 dihedral types
36 impropers
1 improper types

-30 30 xlo xhi
-30 30 ylo yhi
-15 15 zlo zhi

Masses

1 12.0107

Atoms # molecular

1 2 1 -4.263722011641033 -3.535058843987868 -7.5 0 0 0
2 3 1 -4.267974279406667 -2.1303414310736937 -7.5 0 0 0
21 18 1 -4.267974279406665 0.7123414310737012 -7.5 0 0 0
22 19 1 -4.263722011641002 2.1170588439878806 -7.5 0 0 0
3 1 1 -3.0438766033044926 -4.230791264747781 -7.5 0 0 0
4 4 1 -3.0568218474825195 -1.4138365326095075 -7.5 0 0 0
8 5 1 -0.6085371716957056 -4.22229559115028 -7.5 0 0 0
6 6 1 -1.8287708351762197 -3.524139489244608 -7.5 0 0 0
7 7 1 -1.8329184455672374 -2.114575189834509 -7.5 0 0 0
9 8 1 -0.6108517660415328 -1.4125708272297754 -7.5 0 0 0
13 9 1 1.8307925046604188 -4.2225355697803915 -7.5 0 0 0
11 10 1 0.6111338515183061 -3.5229274194088056 -7.5 0 0 0
12 11 1 0.6109868685458395 -2.115121612354092 -7.5 0 0 0
14 12 1 1.8331074452838112 -1.413824416058466 -7.5 0 0 0
16 14 1 3.052259839113093 -3.5282658532770776 -7.5 0 0 0
17 15 1 3.0544082097197833 -2.1194173067542708 -7.5 0 0 0
5 17 1 -3.056821847482444 -0.004163467390489413 -7.5 0 0 0
23 20 1 -3.0438766033044904 2.8127912647478204 -7.5 0 0 0
10 21 1 -0.6108517660414556 -0.005429172770185099 -7.5 0 0 0
24 22 1 -1.8329184455672989 0.6965751898345468 -7.5 0 0 0
25 23 1 -1.8287708351762146 2.106139489244596 -7.5 0 0 0
26 24 1 -0.6085371716957012 2.8042955911502694 -7.5 0 0 0
15 25 1 1.8331074452839642 -0.004175583941546545 -7.5 0 0 0
27 26 1 0.610986868545803 0.6971216123540444 -7.5 0 0 0
28 27 1 0.6111338515182569 2.1049274194087704 -7.5 0 0 0
29 28 1 1.8307925046604023 2.804535569780376 -7.5 0 0 0
30 30 1 3.0544082097197482 0.7014173067542504 -7.5 0 0 0
31 31 1 3.0522598391130464 2.1102658532770855 -7.5 0 0 0
18 13 1 4.253425871669237 -4.253269969560697 -7.5 0 0 0
19 16 1 4.267358369804884 -1.4102040355280507 -7.5 0 0 0
20 29 1 4.267358369804916 -0.007795964471970833 -7.5 0 0 0
32 32 1 4.253425871669173 2.8352699695607373 -7.5 0 0 0
33 34 1 -4.263722011641066 -2.1170588439878344 7.5 0 0 0
34 35 1 -4.267974279406674 -0.7123414310736678 7.5 0 0 0
49 50 1 -4.267974279406676 2.1303414310737008 7.5 0 0 0
50 51 1 -4.2637220116410255 3.535058843987847 7.5 0 0 0
35 33 1 -3.043876603304493 -2.8127912647477222 7.5 0 0 0
36 36 1 -3.0568218474825786 0.004163467390537956 7.5 0 0 0
39 37 1 -0.6085371716956927 -2.804295591150237 7.5 0 0 0
37 38 1 -1.8287708351762613 -2.1061394892446677 7.5 0 0 0
38 39 1 -1.8329184455671876 -0.6965751898345082 7.5 0 0 0
40 40 1 -0.6108517660415206 0.0054291727701400875 7.5 0 0 0
43 41 1 1.8307925046604183 -2.8045355697803633 7.5 0 0 0
41 42 1 0.6111338515182491 -2.1049274194087655 7.5 0 0 0
42 43 1 0.6109868685459182 -0.6971216123540741 7.5 0 0 0
44 44 1 1.8331074452838783 0.004175583941534312 7.5 0 0 0
45 46 1 3.0522598391130815 -2.1102658532770877 7.5 0 0 0
46 47 1 3.0544082097197967 -0.7014173067542007 7.5 0 0 0
51 49 1 -3.0568218474824334 1.4138365326094766 7.5 0 0 0
52 52 1 -3.043876603304496 4.230791264747799 7.5 0 0 0
55 53 1 -0.6108517660414783 1.412570827229777 7.5 0 0 0
53 54 1 -1.832918445567293 2.11457518983458 7.5 0 0 0
54 55 1 -1.8287708351762293 3.524139489244561 7.5 0 0 0
56 56 1 -0.6085371716956796 4.222295591150294 7.5 0 0 0
59 57 1 1.833107445283924 1.413824416058466 7.5 0 0 0
57 58 1 0.6109868685457953 2.1151216123540317 7.5 0 0 0
58 59 1 0.6111338515182514 3.522927419408735 7.5 0 0 0
60 60 1 1.8307925046603948 4.222535569780389 7.5 0 0 0
61 62 1 3.0544082097197625 2.119417306754155 7.5 0 0 0
62 63 1 3.0522598391130624 3.528265853277089 7.5 0 0 0
47 45 1 4.253425871669198 -2.8352699695607186 7.5 0 0 0
48 48 1 4.2673583698049615 0.007795964471956766 7.5 0 0 0
63 61 1 4.267358369804941 1.4102040355280783 7.5 0 0 0
64 64 1 4.253425871669164 4.253269969560708 7.5 0 0 0

Velocities

1 -0.0053417677237593926 0.0020323934916938323 0.0020234694113383913
2 0.005840424757273686 -0.004350456339767553 0.002195591814481515
21 0.002451640528521341 0.006623337527504986 0.007102456001016246
22 0.00016829033671003873 -0.0015084384311428098 0.003018178365363085
3 0.0006829041575851429 0.00867521545112292 -0.002765652529507996
4 -0.003684579326343422 -0.004625209427054348 0.0006901433520507024
8 0.004738701927636377 0.001526588211100309 -0.005309845071364816
6 -0.0034342860586371476 0.006497384818545261 -0.00269388601089216
7 -0.0017325925342942339 -0.0026221557638778795 0.0004673293468140233
9 -0.0006739798246376555 -0.0006970293020621392 0.009044076943207652
13 0.007742898603973609 -0.0025393927551687024 0.0009529822695563038
11 0.004515108582930511 0.009347734176786882 0.001905809897160469
12 0.01388600009372737 -0.001877882857711505 0.0035991900238316436
14 0.007572581227877805 -0.007379164445069229 0.0036544940600775704
16 0.00246910255857587 0.008597288158869062 -0.002458629961041763
17 -0.0031971554352188316 0.002850200704289526 0.000594544925375188
5 -0.002750424964308531 -0.004354604082023552 0.0017102294156151271
23 0.000681959524917679 0.005597817847905109 -0.010737263167654342
10 -0.005880120482768208 -0.010275384908166096 0.0071303820836170215
24 0.008827407060388114 -0.008883369794026597 0.0001278084686360797
25 -0.0013029281754507653 -0.004877043240020341 0.0010500971685477695
26 0.0028725642335758997 0.0024476672156058003 -0.0023437560667396965
15 -0.004002479436987339 0.004376991592323503 -0.0007362272802707056
27 -0.011123687939517164 0.0004393516717329893 -0.004689582609400911
28 -0.0025020747901356383 -0.00996251472836342 -0.005534725486400179
29 -0.005392287693428672 -0.0028142474820514562 -0.00209126331726367
30 0.00019127906959627873 -0.0031101763265995726 -0.002100283352469899
31 -0.004520728579909609 0.001425815450899997 0.006312119767787501
18 -0.0006991236648529953 -0.003629399251630535 -0.0016099732995082116
19 -0.0037828333532089146 -0.005163596400219898 -0.007787900871679105
20 0.0016987070273281285 0.0031902904076939746 0.0009190076385685194
32 -0.004201358385654243 0.004803250582931543 -0.0018935032997219067
33 -0.0013601206042267876 -0.0013928673999579987 -0.00024787827986089974
34 -0.003248451558145457 0.004105419156611897 0.0009792654943283792
49 -0.0005624336942354947 0.0007933477212254114 0.002414766149687972
50 0.002227154091877987 0.001856343211694648 0.003141010733200767
35 0.0004562447939414658 -0.0039102842952228305 0.0009623990201222265
36 0.002221183024203527 -0.00014568389285914734 -0.005771433643098254
39 -0.0049044837283673814 0.00690148199629027 0.0007477870092012802
37 -0.0034930343461589378 -0.0028658566381772935 -0.008655314681171375
38 -0.003516203501989311 -0.004833983048412084 -0.0006931800419679178
40 -0.0002677226935008191 0.010618815513384514 0.001006825012447699
43 0.0008752509379205373 0.0007522951547685275 0.003448486655756283
41 0.009268963890128691 0.0032997660611527122 -0.0057444004961514
42 -0.002282022589229909 0.0020718798919976294 0.003271452091175024
44 0.0064478960558606415 0.005962489250014991 -0.007529684144048477
45 0.003796489382453159 0.0037460906128670038 -0.007697817715380136
46 0.0009501899839028231 -0.004528281865469959 -0.0019755886508370335
51 -0.003145813709903288 -0.0032345087270192405 -0.0051194172121319026
52 0.006623588434547325 -0.005676358149938737 -0.0005179771396792184
55 -0.0005018800097758262 0.0007104490238880109 0.0036299682195741236
53 -0.00364163238879602 -2.948696044215973e-05 0.002475553239488542
54 -0.00494936423308012 0.0021777505076964613 -0.0035151576025672327
56 0.000745988172660287 0.0024515270702800056 -0.0026329090281347533
59 0.0019484204741793175 -0.007511606668581236 0.0027647236610962712
57 -0.0022556507997600708 -0.008611870772278814 0.005632604143448754
58 0.004801483514640338 -0.00036731111473834604 0.004211855909696146
60 -0.0030189153803430553 0.0034518636935028583 0.0020828902375493283
61 0.0025501406466347225 0.001154211666856658 -0.0021813743574751123
62 0.00011408441550272205 0.005902532705944702 0.005654540268994953
47 -0.006074222169593521 -0.0028454144585111085 0.0030167834490662858
48 4.967799554019214e-05 -0.0004080017549019317 -0.0020480622671961023
63 0.004861138526857158 -0.000808230776440378 0.009087664646375662
64 -0.004833104255249966 0.001452221510724899 5.620068936070585e-05

Bonds

1 1 1 2
2 1 2 4
3 1 21 22
4 1 22 23
5 1 3 1
6 1 3 6
7 1 4 7
8 1 4 5
9 1 8 6
10 1 8 11
11 1 6 7
12 1 7 9
13 1 9 12
14 1 9 10
15 1 13 16
16 1 13 11
17 1 11 12
18 1 12 14
19 1 14 17
20 1 14 15
21 1 16 17
22 1 17 19
23 1 5 21
24 1 5 24
25 1 23 25
26 1 10 24
27 1 10 27
28 1 24 25
29 1 25 26
30 1 26 28
31 1 15 30
32 1 15 27
33 1 27 28
34 1 28 29
35 1 29 31
36 1 30 31
37 1 31 32
38 1 18 16
39 1 19 20
40 1 20 30
41 1 33 34
42 1 34 36
43 1 49 50
44 1 50 52
45 1 35 33
46 1 35 37
47 1 36 51
48 1 36 38
49 1 39 37
50 1 39 41
51 1 37 38
52 1 38 40
53 1 40 55
54 1 40 42
55 1 43 45
56 1 43 41
57 1 41 42
58 1 42 44
59 1 44 59
60 1 44 46
61 1 45 46
62 1 46 48
63 1 51 49
64 1 51 53
65 1 52 54
66 1 55 53
67 1 55 57
68 1 53 54
69 1 54 56
70 1 56 58
71 1 59 61
72 1 59 57
73 1 57 58
74 1 58 60
75 1 60 62
76 1 61 62
77 1 62 64
78 1 47 45
79 1 48 63
80 1 63 61

Angles

1 1 3 1 2
2 1 1 2 4
3 1 5 21 22
4 1 21 22 23
5 1 1 3 6
6 1 2 4 7
7 1 2 4 5
8 1 7 4 5
9 1 6 8 11
10 1 3 6 8
11 1 3 6 7
12 1 8 6 7
13 1 4 7 6
14 1 4 7 9
15 1 6 7 9
16 1 7 9 12
17 1 7 9 10
18 1 12 9 10
19 1 11 13 16
20 1 8 11 13
21 1 8 11 12
22 1 13 11 12
23 1 9 12 11
24 1 9 12 14
25 1 11 12 14
26 1 12 14 17
27 1 12 14 15
28 1 17 14 15
29 1 13 16 18
30 1 13 16 17
31 1 18 16 17
32 1 14 17 16
33 1 14 17 19
34 1 16 17 19
35 1 4 5 21
36 1 4 5 24
37 1 21 5 24
38 1 22 23 25
39 1 9 10 24
40 1 9 10 27
41 1 24 10 27
42 1 5 24 10
43 1 5 24 25
44 1 10 24 25
45 1 23 25 24
46 1 23 25 26
47 1 24 25 26
48 1 25 26 28
49 1 14 15 30
50 1 14 15 27
51 1 27 15 30
52 1 10 27 15
53 1 10 27 28
54 1 15 27 28
55 1 26 28 27
56 1 26 28 29
57 1 27 28 29
58 1 28 29 31
59 1 15 30 20
60 1 15 30 31
61 1 20 30 31
62 1 29 31 30
63 1 29 31 32
64 1 30 31 32
65 1 17 19 20
66 1 19 20 30
67 1 35 33 34
68 1 33 34 36
69 1 51 49 50
70 1 49 50 52
71 1 33 35 37
72 1 34 36 51
73 1 34 36 38
74 1 38 36 51
75 1 37 39 41
76 1 35 37 39
77 1 35 37 38
78 1 39 37 38
79 1 36 38 37
80 1 36 38 40
81 1 37 38 40
82 1 38 40 55
83 1 38 40 42
84 1 42 40 55
85 1 41 43 45
86 1 39 41 43
87 1 39 41 42
88 1 43 41 42
89 1 40 42 41
90 1 40 42 44
91 1 41 42 44
92 1 42 44 59
93 1 42 44 46
94 1 46 44 59
95 1 43 45 47
96 1 43 45 46
97 1 47 45 46
98 1 44 46 45
99 1 44 46 48
100 1 45 46 48
101 1 36 51 49
102 1 36 51 53
103 1 49 51 53
104 1 50 52 54
105 1 40 55 53
106 1 40 55 57
107 1 53 55 57
108 1 51 53 55
109 1 51 53 54
110 1 55 53 54
111 1 52 54 53
112 1 52 54 56
113 1 53 54 56
114 1 54 56 58
115 1 44 59 61
116 1 44 59 57
117 1 57 59 61
118 1 55 57 59
119 1 55 57 58
120 1 59 57 58
121 1 56 58 57
122 1 56 58 60
123 1 57 58 60
124 1 58 60 62
125 1 59 61 63
126 1 59 61 62
127 1 63 61 62
128 1 60 62 61
129 1 60 62 64
130 1 61 62 64
131 1 46 48 63
132 1 48 63 61

Dihedrals

1 1 3 1 2 4
2 1 1 2 4 7
3 1 1 2 4 5
4 1 5 21 22 23
5 1 21 22 23 25
6 1 6 3 1 2
7 1 1 3 6 8
8 1 1 3 6 7
9 1 2 4 7 6
10 1 2 4 7 9
11 1 5 4 7 6
12 1 5 4 7 9
13 1 2 4 5 21
14 1 2 4 5 24
15 1 7 4 5 21
16 1 7 4 5 24
17 1 11 8 6 3
18 1 11 8 6 7
19 1 6 8 11 13
20 1 6 8 11 12
21 1 3 6 7 4
22 1 3 6 7 9
23 1 8 6 7 4
24 1 8 6 7 9
25 1 4 7 9 12
26 1 4 7 9 10
27 1 6 7 9 12
28 1 6 7 9 10
29 1 7 9 12 11
30 1 7 9 12 14
31 1 10 9 12 11
32 1 10 9 12 14
33 1 7 9 10 24
34 1 7 9 10 27
35 1 12 9 10 24
36 1 12 9 10 27
37 1 11 13 16 18
38 1 11 13 16 17
39 1 16 13 11 8
40 1 16 13 11 12
41 1 8 11 12 9
42 1 8 11 12 14
43 1 13 11 12 9
44 1 13 11 12 14
45 1 9 12 14 17
46 1 9 12 14 15
47 1 11 12 14 17
48 1 11 12 14 15
49 1 12 14 17 16
50 1 12 14 17 19
51 1 15 14 17 16
52 1 15 14 17 19
53 1 12 14 15 30
54 1 12 14 15 27
55 1 17 14 15 30
56 1 17 14 15 27
57 1 13 16 17 14
58 1 13 16 17 19
59 1 18 16 17 14
60 1 18 16 17 19
61 1 14 17 19 20
62 1 16 17 19 20
63 1 4 5 21 22
64 1 24 5 21 22
65 1 4 5 24 10
66 1 4 5 24 25
67 1 21 5 24 10
68 1 21 5 24 25
69 1 22 23 25 24
70 1 22 23 25 26
71 1 9 10 24 5
72 1 9 10 24 25
73 1 27 10 24 5
74 1 27 10 24 25
75 1 9 10 27 15
76 1 9 10 27 28
77 1 24 10 27 15
78 1 24 10 27 28
79 1 5 24 25 23
80 1 5 24 25 26
81 1 10 24 25 23
82 1 10 24 25 26
83 1 23 25 26 28
84 1 24 25 26 28
85 1 25 26 28 27
86 1 25 26 28 29
87 1 14 15 30 20
88 1 14 15 30 31
89 1 27 15 30 20
90 1 27 15 30 31
91 1 14 15 27 10
92 1 14 15 27 28
93 1 30 15 27 10
94 1 30 15 27 28
95 1 10 27 28 26
96 1 10 27 28 29
97 1 15 27 28 26
98 1 15 27 28 29
99 1 26 28 29 31
100 1 27 28 29 31
101 1 28 29 31 30
102 1 28 29 31 32
103 1 15 30 31 29
104 1 15 30 31 32
105 1 20 30 31 29
106 1 20 30 31 32
107 1 17 19 20 30
108 1 19 20 30 15
109 1 19 20 30 31
110 1 35 33 34 36
111 1 33 34 36 51
112 1 33 34 36 38
113 1 51 49 50 52
114 1 49 50 52 54
115 1 37 35 33 34
116 1 33 35 37 39
117 1 33 35 37 38
118 1 34 36 51 49
119 1 34 36 51 53
120 1 38 36 51 49
121 1 38 36 51 53
122 1 34 36 38 37
123 1 34 36 38 40
124 1 51 36 38 37
125 1 51 36 38 40
126 1 41 39 37 35
127 1 41 39 37 38
128 1 37 39 41 43
129 1 37 39 41 42
130 1 35 37 38 36
131 1 35 37 38 40
132 1 39 37 38 36
133 1 39 37 38 40
134 1 36 38 40 55
135 1 36 38 40 42
136 1 37 38 40 55
137 1 37 38 40 42
138 1 38 40 55 53
139 1 38 40 55 57
140 1 42 40 55 53
141 1 42 40 55 57
142 1 38 40 42 41
143 1 38 40 42 44
144 1 55 40 42 41
145 1 55 40 42 44
146 1 41 43 45 47
147 1 41 43 45 46
148 1 45 43 41 39
149 1 45 43 41 42
150 1 39 41 42 40
151 1 39 41 42 44
152 1 43 41 42 40
153 1 43 41 42 44
154 1 40 42 44 59
155 1 40 42 44 46
156 1 41 42 44 59
157 1 41 42 44 46
158 1 42 44 59 61
159 1 42 44 59 57
160 1 46 44 59 61
161 1 46 44 59 57
162 1 42 44 46 45
163 1 42 44 46 48
164 1 59 44 46 45
165 1 59 44 46 48
166 1 43 45 46 44
167 1 43 45 46 48
168 1 47 45 46 44
169 1 47 45 46 48
170 1 44 46 48 63
171 1 45 46 48 63
172 1 36 51 49 50
173 1 53 51 49 50
174 1 36 51 53 55
175 1 36 51 53 54
176 1 49 51 53 55
177 1 49 51 53 54
178 1 50 52 54 53
179 1 50 52 54 56
180 1 40 55 53 51
181 1 40 55 53 54
182 1 57 55 53 51
183 1 57 55 53 54
184 1 40 55 57 59
185 1 40 55 57 58
186 1 53 55 57 59
187 1 53 55 57 58
188 1 51 53 54 52
189 1 51 53 54 56
190 1 55 53 54 52
191 1 55 53 54 56
192 1 52 54 56 58
193 1 53 54 56 58
194 1 54 56 58 57
195 1 54 56 58 60
196 1 44 59 61 63
197 1 44 59 61 62
198 1 57 59 61 63
199 1 57 59 61 62
200 1 44 59 57 55
201 1 44 59 57 58
202 1 61 59 57 55
203 1 61 59 57 58
204 1 55 57 58 56
205 1 55 57 58 60
206 1 59 57 58 56
207 1 59 57 58 60
208 1 56 58 60 62
209 1 57 58 60 62
210 1 58 60 62 61
211 1 58 60 62 64
212 1 59 61 62 60
213 1 59 61 62 64
214 1 63 61 62 60
215 1 63 61 62 64
216 1 46 48 63 61
217 1 48 63 61 59
218 1 48 63 61 62

Impropers

1 1 4 2 7 5
2 1 6 3 8 7
3 1 7 4 6 9
4 1 5 4 21 24
5 1 11 8 13 12
6 1 9 7 12 10
7 1 12 9 11 14
8 1 10 9 24 27
9 1 16 13 18 17
10 1 14 12 17 15
11 1 17 14 16 19
12 1 15 14 30 27
13 1 24 5 10 25
14 1 25 23 24 26
15 1 27 10 15 28
16 1 28 26 27 29
17 1 30 15 20 31
18 1 31 29 30 32
19 1 36 34 51 38
20 1 37 35 39 38
21 1 38 36 37 40
22 1 51 36 49 53
23 1 41 39 43 42
24 1 40 38 55 42
25 1 42 40 41 44
26 1 55 40 53 57
27 1 45 43 47 46
28 1 44 42 59 46
29 1 46 44 45 48
30 1 59 44 61 57
31 1 53 51 55 54
32 1 54 52 53 56
33 1 57 55 59 58
34 1 58 56 57 60
35 1 61 59 63 62
36 1 62 60 61 64
