ITEM: TIMESTEP
0
ITEM: NUMBER OF ATOMS
64
ITEM: BOX BOUNDS pp pp pp
-3.0000000000000000e+01 3.0000000000000000e+01
-3.0000000000000000e+01 3.0000000000000000e+01
-1.5000000000000000e+01 1.5000000000000000e+01
ITEM: ATOMS id type xs ys zs
1 1 0.428365 0.440917 0.25
2 1 0.428365 0.46455 0.25
21 1 0.428365 0.511817 0.25
22 1 0.428365 0.53545 0.25
3 1 0.448832 0.4291 0.25
4 1 0.448832 0.476367 0.25
8 1 0.489766 0.4291 0.25
6 1 0.469299 0.440917 0.25
7 1 0.469299 0.46455 0.25
9 1 0.489766 0.476367 0.25
13 1 0.530701 0.4291 0.25
11 1 0.510234 0.440917 0.25
12 1 0.510234 0.46455 0.25
14 1 0.530701 0.476367 0.25
16 1 0.551168 0.440917 0.25
17 1 0.551168 0.46455 0.25
5 1 0.448832 0.5 0.25
23 1 0.448832 0.547267 0.25
10 1 0.489766 0.5 0.25
24 1 0.469299 0.511817 0.25
25 1 0.469299 0.53545 0.25
26 1 0.489766 0.547267 0.25
15 1 0.530701 0.5 0.25
27 1 0.510234 0.511817 0.25
28 1 0.510234 0.53545 0.25
29 1 0.530701 0.547267 0.25
30 1 0.551168 0.511817 0.25
31 1 0.551168 0.53545 0.25
18 1 0.571635 0.4291 0.25
19 1 0.571635 0.476367 0.25
20 1 0.571635 0.5 0.25
32 1 0.571635 0.547267 0.25
33 1 0.428365 0.46455 0.75
34 1 0.428365 0.488183 0.75
49 1 0.428365 0.53545 0.75
50 1 0.428365 0.559083 0.75
35 1 0.448832 0.452733 0.75
36 1 0.448832 0.5 0.75
39 1 0.489766 0.452733 0.75
37 1 0.469299 0.46455 0.75
38 1 0.469299 0.488183 0.75
40 1 0.489766 0.5 0.75
43 1 0.530701 0.452733 0.75
41 1 0.510234 0.46455 0.75
42 1 0.510234 0.488183 0.75
44 1 0.530701 0.5 0.75
45 1 0.551168 0.46455 0.75
46 1 0.551168 0.488183 0.75
51 1 0.448832 0.523633 0.75
52 1 0.448832 0.5709 0.75
55 1 0.489766 0.523633 0.75
53 1 0.469299 0.53545 0.75
54 1 0.469299 0.559083 0.75
56 1 0.489766 0.5709 0.75
59 1 0.530701 0.523633 0.75
57 1 0.510234 0.53545 0.75
58 1 0.510234 0.559083 0.75
60 1 0.530701 0.5709 0.75
61 1 0.551168 0.53545 0.75
62 1 0.551168 0.559083 0.75
47 1 0.571635 0.452733 0.75
48 1 0.571635 0.5 0.75
63 1 0.571635 0.523633 0.75
64 1 0.571635 0.5709 0.75
ITEM: TIMESTEP
5
ITEM: NUMBER OF ATOMS
64
ITEM: BOX BOUNDS pp pp pp
-3.0000000000000000e+01 3.0000000000000000e+01
-3.0000000000000000e+01 3.0000000000000000e+01
-1.5000000000000000e+01 1.5000000000000000e+01
ITEM: ATOMS id type xs ys zs
1 1 0.428911 0.441073 0.25
2 1 0.428869 0.464501 0.25
21 1 0.428869 0.511865 0.25
22 1 0.428911 0.535293 0.25
3 1 0.449253 0.429478 0.25
4 1 0.449049 0.476438 0.25
8 1 0.48984 0.42964 0.25
6 1 0.46951 0.441279 0.25
7 1 0.469452 0.464774 0.25
9 1 0.489825 0.476468 0.25
13 1 0.530552 0.429637 0.25
11 1 0.510189 0.441288 0.25
12 1 0.510182 0.464756 0.25
14 1 0.530548 0.476443 0.25
16 1 0.550898 0.441203 0.25
17 1 0.550906 0.464694 0.25
5 1 0.449049 0.499929 0.25
23 1 0.449253 0.546889 0.25
10 1 0.489825 0.499898 0.25
24 1 0.469452 0.511593 0.25
25 1 0.46951 0.535088 0.25
26 1 0.48984 0.546727 0.25
15 1 0.530548 0.499924 0.25
27 1 0.510182 0.51161 0.25
28 1 0.510189 0.535079 0.25
29 1 0.530552 0.546729 0.25
30 1 0.550906 0.511672 0.25
31 1 0.550898 0.535164 0.25
18 1 0.570909 0.429108 0.25
19 1 0.571107 0.476516 0.25
20 1 0.571107 0.49985 0.25
32 1 0.570909 0.547259 0.25
33 1 0.428911 0.464707 0.75
34 1 0.428869 0.488135 0.75
49 1 0.428869 0.535499 0.75
50 1 0.428911 0.558927 0.75
35 1 0.449253 0.453111 0.75
36 1 0.449049 0.500071 0.75
39 1 0.48984 0.453273 0.75
37 1 0.46951 0.464912 0.75
38 1 0.469452 0.488407 0.75
40 1 0.489825 0.500102 0.75
43 1 0.530552 0.453271 0.75
41 1 0.510189 0.464921 0.75
42 1 0.510182 0.48839 0.75
44 1 0.530548 0.500076 0.75
45 1 0.550898 0.464836 0.75
46 1 0.550906 0.488328 0.75
51 1 0.449049 0.523562 0.75
52 1 0.449253 0.570522 0.75
55 1 0.489825 0.523532 0.75
53 1 0.469452 0.535226 0.75
54 1 0.46951 0.558721 0.75
56 1 0.48984 0.57036 0.75
59 1 0.530548 0.523557 0.75
57 1 0.510182 0.535244 0.75
58 1 0.510189 0.558712 0.75
60 1 0.530552 0.570363 0.75
61 1 0.550906 0.535306 0.75
62 1 0.550898 0.558797 0.75
47 1 0.570909 0.452741 0.75
48 1 0.571107 0.50015 0.75
63 1 0.571107 0.523484 0.75
64 1 0.570909 0.570892 0.75
ITEM: TIMESTEP
100
ITEM: NUMBER OF ATOMS
64
ITEM: BOX BOUNDS pp pp pp
-3.0000000000000000e+01 3.0000000000000000e+01
-3.0000000000000000e+01 3.0000000000000000e+01
-1.5000000000000000e+01 1.5000000000000000e+01
ITEM: ATOMS id type xs ys zs
1 1 0.428911 0.441073 0.25
2 1 0.428869 0.464501 0.25
21 1 0.428869 0.511865 0.25
22 1 0.428911 0.535293 0.25
3 1 0.449253 0.429478 0.25
4 1 0.449049 0.476438 0.25
8 1 0.48984 0.42964 0.25
6 1 0.46951 0.441279 0.25
7 1 0.469452 0.464774 0.25
9 1 0.489825 0.476468 0.25
13 1 0.530552 0.429637 0.25
11 1 0.510189 0.441288 0.25
12 1 0.510182 0.464756 0.25
14 1 0.530548 0.476443 0.25
16 1 0.550898 0.441203 0.25
17 1 0.550906 0.464694 0.25
5 1 0.449049 0.499929 0.25
23 1 0.449253 0.546889 0.25
10 1 0.489825 0.499898 0.25
24 1 0.469452 0.511593 0.25
25 1 0.46951 0.535088 0.25
26 1 0.48984 0.546727 0.25
15 1 0.530548 0.499924 0.25
27 1 0.510182 0.51161 0.25
28 1 0.510189 0.535079 0.25
29 1 0.530552 0.546729 0.25
30 1 0.550906 0.511672 0.25
31 1 0.550898 0.535164 0.25
18 1 0.570909 0.429108 0.25
19 1 0.571107 0.476516 0.25
20 1 0.571107 0.49985 0.25
32 1 0.570909 0.547259 0.25
33 1 0.428911 0.464707 0.75
34 1 0.428869 0.488135 0.75
49 1 0.428869 0.535499 0.75
50 1 0.428911 0.558927 0.75
35 1 0.449253 0.453111 0.75
36 1 0.449049 0.500071 0.75
39 1 0.48984 0.453273 0.75
37 1 0.46951 0.464912 0.75
38 1 0.469452 0.488407 0.75
40 1 0.489825 0.500102 0.75
43 1 0.530552 0.453271 0.75
41 1 0.510189 0.464921 0.75
42 1 0.510182 0.48839 0.75
44 1 0.530548 0.500076 0.75
45 1 0.550898 0.464836 0.75
46 1 0.550906 0.488328 0.75
51 1 0.449049 0.523562 0.75
52 1 0.449253 0.570522 0.75
55 1 0.489825 0.523532 0.75
53 1 0.469452 0.535226 0.75
54 1 0.46951 0.558721 0.75
56 1 0.48984 0.57036 0.75
59 1 0.530548 0.523557 0.75
57 1 0.510182 0.535244 0.75
58 1 0.510189 0.558712 0.75
60 1 0.530552 0.570363 0.75
61 1 0.550906 0.535306 0.75
62 1 0.550898 0.558797 0.75
47 1 0.570909 0.452741 0.75
48 1 0.571107 0.50015 0.75
63 1 0.571107 0.523484 0.75
64 1 0.570909 0.570892 0.75
ITEM: TIMESTEP
200
ITEM: NUMBER OF ATOMS
64
ITEM: BOX BOUNDS pp pp pp
-3.0000000000000000e+01 3.0000000000000000e+01
-3.0000000000000000e+01 3.0000000000000000e+01
-1.5000000000000000e+01 1.5000000000000000e+01
ITEM: ATOMS id type xs ys zs
1 1 0.428911 0.441073 0.25
2 1 0.428869 0.464501 0.25
21 1 0.428869 0.511865 0.25
22 1 0.428911 0.535293 0.25
3 1 0.449253 0.429478 0.25
4 1 0.449049 0.476438 0.25
8 1 0.48984 0.42964 0.25
6 1 0.46951 0.441279 0.25
7 1 0.469452 0.464774 0.25
9 1 0.489825 0.476468 0.25
13 1 0.530552 0.429637 0.25
11 1 0.510189 0.441288 0.25
12 1 0.510182 0.464756 0.25
14 1 0.530548 0.476443 0.25
16 1 0.550898 0.441203 0.25
17 1 0.550906 0.464694 0.25
5 1 0.449049 0.499929 0.25
23 1 0.449253 0.546889 0.25
10 1 0.489825 0.499898 0.25
24 1 0.469452 0.511593 0.25
25 1 0.46951 0.535088 0.25
26 1 0.48984 0.546727 0.25
15 1 0.530548 0.499924 0.25
27 1 0.510182 0.51161 0.25
28 1 0.510189 0.535079 0.25
29 1 0.530552 0.546729 0.25
30 1 0.550906 0.511672 0.25
31 1 0.550898 0.535164 0.25
18 1 0.570909 0.429108 0.25
19 1 0.571107 0.476516 0.25
20 1 0.571107 0.49985 0.25
32 1 0.570909 0.547259 0.25
33 1 0.428911 0.464707 0.75
34 1 0.428869 0.488135 0.75
49 1 0.428869 0.535499 0.75
50 1 0.428911 0.558927 0.75
35 1 0.449253 0.453111 0.75
36 1 0.449049 0.500071 0.75
39 1 0.48984 0.453273 0.75
37 1 0.46951 0.464912 0.75
38 1 0.469452 0.488407 0.75
40 1 0.489825 0.500102 0.75
43 1 0.530552 0.453271 0.75
41 1 0.510189 0.464921 0.75
42 1 0.510182 0.48839 0.75
44 1 0.530548 0.500076 0.75
45 1 0.550898 0.464836 0.75
46 1 0.550906 0.488328 0.75
51 1 0.449049 0.523562 0.75
52 1 0.449253 0.570522 0.75
55 1 0.489825 0.523532 0.75
53 1 0.469452 0.535226 0.75
54 1 0.46951 0.558721 0.75
56 1 0.48984 0.57036 0.75
59 1 0.530548 0.523557 0.75
57 1 0.510182 0.535244 0.75
58 1 0.510189 0.558712 0.75
60 1 0.530552 0.570363 0.75
61 1 0.550906 0.535306 0.75
62 1 0.550898 0.558797 0.75
47 1 0.570909 0.452741 0.75
48 1 0.571107 0.50015 0.75
63 1 0.571107 0.523484 0.75
64 1 0.570909 0.570892 0.75
ITEM: TIMESTEP
300
ITEM: NUMBER OF ATOMS
64
ITEM: BOX BOUNDS pp pp pp
-3.0000000000000000e+01 3.0000000000000000e+01
-3.0000000000000000e+01 3.0000000000000000e+01
-1.5000000000000000e+01 1.5000000000000000e+01
ITEM: ATOMS id type xs ys zs
1 1 0.428911 0.441073 0.25
2 1 0.428869 0.464501 0.25
21 1 0.428869 0.511865 0.25
22 1 0.428911 0.535293 0.25
3 1 0.449253 0.429478 0.25
4 1 0.449049 0.476438 0.25
8 1 0.48984 0.42964 0.25
6 1 0.46951 0.441279 0.25
7 1 0.469452 0.464774 0.25
9 1 0.489825 0.476468 0.25
13 1 0.530552 0.429637 0.25
11 1 0.510189 0.441288 0.25
12 1 0.510182 0.464756 0.25
14 1 0.530548 0.476443 0.25
16 1 0.550898 0.441203 0.25
17 1 0.550906 0.464694 0.25
5 1 0.449049 0.499929 0.25
23 1 0.449253 0.546889 0.25
10 1 0.489825 0.499898 0.25
24 1 0.469452 0.511593 0.25
25 1 0.46951 0.535088 0.25
26 1 0.48984 0.546727 0.25
15 1 0.530548 0.499924 0.25
27 1 0.510182 0.51161 0.25
28 1 0.510189 0.535079 0.25
29 1 0.530552 0.546729 0.25
30 1 0.550906 0.511672 0.25
31 1 0.550898 0.535164 0.25
18 1 0.570909 0.429108 0.25
19 1 0.571107 0.476516 0.25
20 1 0.571107 0.49985 0.25
32 1 0.570909 0.547259 0.25
33 1 0.428911 0.464707 0.75
34 1 0.428869 0.488135 0.75
49 1 0.428869 0.535499 0.75
50 1 0.428911 0.558927 0.75
35 1 0.449253 0.453111 0.75
36 1 0.449049 0.500071 0.75
39 1 0.48984 0.453273 0.75
37 1 0.46951 0.464912 0.75
38 1 0.469452 0.488407 0.75
40 1 0.489825 0.500102 0.75
43 1 0.530552 0.453271 0.75
41 1 0.510189 0.464921 0.75
42 1 0.510182 0.48839 0.75
44 1 0.530548 0.500076 0.75
45 1 0.550898 0.464836 0.75
46 1 0.550906 0.488328 0.75
51 1 0.449049 0.523562 0.75
52 1 0.449253 0.570522 0.75
55 1 0.489825 0.523532 0.75
53 1 0.469452 0.535226 0.75
54 1 0.46951 0.558721 0.75
56 1 0.48984 0.57036 0.75
59 1 0.530548 0.523557 0.75
57 1 0.510182 0.535244 0.75
58 1 0.510189 0.558712 0.75
60 1 0.530552 0.570363 0.75
61 1 0.550906 0.535306 0.75
62 1 0.550898 0.558797 0.75
47 1 0.570909 0.452741 0.75
48 1 0.571107 0.50015 0.75
63 1 0.571107 0.523484 0.75
64 1 0.570909 0.570892 0.75
ITEM: TIMESTEP
400
ITEM: NUMBER OF ATOMS
64
ITEM: BOX BOUNDS pp pp pp
-3.0000000000000000e+01 3.0000000000000000e+01
-3.0000000000000000e+01 3.0000000000000000e+01
-1.5000000000000000e+01 1.5000000000000000e+01
ITEM: ATOMS id type xs ys zs
1 1 0.428911 0.441073 0.25
2 1 0.428869 0.464501 0.25
21 1 0.428869 0.511865 0.25
22 1 0.428911 0.535293 0.25
3 1 0.449253 0.429478 0.25
4 1 0.449049 0.476438 0.25
8 1 0.48984 0.42964 0.25
6 1 0.46951 0.441279 0.25
7 1 0.469452 0.464774 0.25
9 1 0.489825 0.476468 0.25
13 1 0.530552 0.429637 0.25
11 1 0.510189 0.441288 0.25
12 1 0.510182 0.464756 0.25
14 1 0.530548 0.476443 0.25
16 1 0.550898 0.441203 0.25
17 1 0.550906 0.464694 0.25
5 1 0.449049 0.499929 0.25
23 1 0.449253 0.546889 0.25
10 1 0.489825 0.499898 0.25
24 1 0.469452 0.511593 0.25
25 1 0.46951 0.535088 0.25
26 1 0.48984 0.546727 0.25
15 1 0.530548 0.499924 0.25
27 1 0.510182 0.51161 0.25
28 1 0.510189 0.535079 0.25
29 1 0.530552 0.546729 0.25
30 1 0.550906 0.511672 0.25
31 1 0.550898 0.535164 0.25
18 1 0.570909 0.429108 0.25
19 1 0.571107 0.476516 0.25
20 1 0.571107 0.49985 0.25
32 1 0.570909 0.547259 0.25
33 1 0.428911 0.464707 0.75
34 1 0.428869 0.488135 0.75
49 1 0.428869 0.535499 0.75
50 1 0.428911 0.558927 0.75
35 1 0.449253 0.453111 0.75
36 1 0.449049 0.500071 0.75
39 1 0.48984 0.453273 0.75
37 1 0.46951 0.464912 0.75
38 1 0.469452 0.488407 0.75
40 1 0.489825 0.500102 0.75
43 1 0.530552 0.453271 0.75
41 1 0.510189 0.464921 0.75
42 1 0.510182 0.48839 0.75
44 1 0.530548 0.500076 0.75
45 1 0.550898 0.464836 0.75
46 1 0.550906 0.488328 0.75
51 1 0.449049 0.523562 0.75
52 1 0.449253 0.570522 0.75
55 1 0.489825 0.523532 0.75
53 1 0.469452 0.535226 0.75
54 1 0.46951 0.558721 0.75
56 1 0.48984 0.57036 0.75
59 1 0.530548 0.523557 0.75
57 1 0.510182 0.535244 0.75
58 1 0.510189 0.558712 0.75
60 1 0.530552 0.570363 0.75
61 1 0.550906 0.535306 0.75
62 1 0.550898 0.558797 0.75
47 1 0.570909 0.452741 0.75
48 1 0.571107 0.50015 0.75
63 1 0.571107 0.523484 0.75
64 1 0.570909 0.570892 0.75
ITEM: TIMESTEP
500
ITEM: NUMBER OF ATOMS
64
ITEM: BOX BOUNDS pp pp pp
-3.0000000000000000e+01 3.0000000000000000e+01
-3.0000000000000000e+01 3.0000000000000000e+01
-1.5000000000000000e+01 1.5000000000000000e+01
ITEM: ATOMS id type xs ys zs
1 1 0.428911 0.441073 0.25
2 1 0.428869 0.464501 0.25
21 1 0.428869 0.511865 0.25
22 1 0.428911 0.535293 0.25
3 1 0.449253 0.429478 0.25
4 1 0.449049 0.476438 0.25
8 1 0.48984 0.42964 0.25
6 1 0.46951 0.441279 0.25
7 1 0.469452 0.464774 0.25
9 1 0.489825 0.476468 0.25
13 1 0.530552 0.429637 0.25
11 1 0.510189 0.441288 0.25
12 1 0.510182 0.464756 0.25
14 1 0.530548 0.476443 0.25
16 1 0.550898 0.441203 0.25
17 1 0.550906 0.464694 0.25
5 1 0.449049 0.499929 0.25
23 1 0.449253 0.546889 0.25
10 1 0.489825 0.499898 0.25
24 1 0.469452 0.511593 0.25
25 1 0.46951 0.535088 0.25
26 1 0.48984 0.546727 0.25
15 1 0.530548 0.499924 0.25
27 1 0.510182 0.51161 0.25
28 1 0.510189 0.535079 0.25
29 1 0.530552 0.546729 0.25
30 1 0.550906 0.511672 0.25
31 1 0.550898 0.535164 0.25
18 1 0.570909 0.429108 0.25
19 1 0.571107 0.476516 0.25
20 1 0.571107 0.49985 0.25
32 1 0.570909 0.547259 0.25
33 1 0.428911 0.464707 0.75
34 1 0.428869 0.488135 0.75
49 1 0.428869 0.535499 0.75
50 1 0.428911 0.558927 0.75
35 1 0.449253 0.453111 0.75
36 1 0.449049 0.500071 0.75
39 1 0.48984 0.453273 0.75
37 1 0.46951 0.464912 0.75
38 1 0.469452 0.488407 0.75
40 1 0.489825 0.500102 0.75
43 1 0.530552 0.453271 0.75
41 1 0.510189 0.464921 0.75
42 1 0.510182 0.48839 0.75
44 1 0.530548 0.500076 0.75
45 1 0.550898 0.464836 0.75
46 1 0.550906 0.488328 0.75
51 1 0.449049 0.523562 0.75
52 1 0.449253 0.570522 0.75
55 1 0.489825 0.523532 0.75
53 1 0.469452 0.535226 0.75
54 1 0.46951 0.558721 0.75
56 1 0.48984 0.57036 0.75
59 1 0.530548 0.523557 0.75
57 1 0.510182 0.535244 0.75
58 1 0.510189 0.558712 0.75
60 1 0.530552 0.570363 0.75
61 1 0.550906 0.535306 0.75
62 1 0.550898 0.558797 0.75
47 1 0.570909 0.452741 0.75
48 1 0.571107 0.50015 0.75
63 1 0.571107 0.523484 0.75
64 1 0.570909 0.570892 0.75
ITEM: TIMESTEP
506
ITEM: NUMBER OF ATOMS
64
ITEM: BOX BOUNDS pp pp pp
-3.0000000000000000e+01 3.0000000000000000e+01
-3.0000000000000000e+01 3.0000000000000000e+01
-1.5000000000000000e+01 1.5000000000000000e+01
ITEM: ATOMS id type xs ys zs
1 1 0.428925 0.441085 0.25
2 1 0.428862 0.464486 0.25
21 1 0.428862 0.511881 0.25
22 1 0.428925 0.535281 0.25
3 1 0.449264 0.429484 0.25
4 1 0.449055 0.476455 0.25
8 1 0.489854 0.429632 0.25
6 1 0.469508 0.441275 0.25
7 1 0.469454 0.464756 0.25
9 1 0.48982 0.476463 0.25
13 1 0.530519 0.429628 0.25
11 1 0.510193 0.441286 0.25
12 1 0.510182 0.464746 0.25
14 1 0.530549 0.476447 0.25
16 1 0.550891 0.441214 0.25
17 1 0.550905 0.464671 0.25
5 1 0.449055 0.499912 0.25
23 1 0.449264 0.546883 0.25
10 1 0.48982 0.499904 0.25
24 1 0.469454 0.511611 0.25
25 1 0.469508 0.535092 0.25
26 1 0.489854 0.546734 0.25
15 1 0.530549 0.49992 0.25
27 1 0.510182 0.51162 0.25
28 1 0.510193 0.53508 0.25
29 1 0.530519 0.546739 0.25
30 1 0.550905 0.511696 0.25
31 1 0.550891 0.535153 0.25
18 1 0.5709 0.429109 0.25
19 1 0.571118 0.476501 0.25
20 1 0.571118 0.499866 0.25
32 1 0.5709 0.547257 0.25
33 1 0.428925 0.464719 0.75
34 1 0.428862 0.488119 0.75
49 1 0.428862 0.535514 0.75
50 1 0.428925 0.558915 0.75
35 1 0.449264 0.453117 0.75
36 1 0.449055 0.500088 0.75
39 1 0.489854 0.453266 0.75
37 1 0.469508 0.464908 0.75
38 1 0.469454 0.488389 0.75
40 1 0.48982 0.500096 0.75
43 1 0.530519 0.453261 0.75
41 1 0.510193 0.46492 0.75
42 1 0.510182 0.48838 0.75
44 1 0.530549 0.50008 0.75
45 1 0.550891 0.464847 0.75
46 1 0.550905 0.488304 0.75
51 1 0.449055 0.523545 0.75
52 1 0.449264 0.570516 0.75
55 1 0.48982 0.523537 0.75
53 1 0.469454 0.535244 0.75
54 1 0.469508 0.558725 0.75
56 1 0.489854 0.570368 0.75
59 1 0.530549 0.523553 0.75
57 1 0.510182 0.535254 0.75
58 1 0.510193 0.558714 0.75
60 1 0.530519 0.570372 0.75
61 1 0.550905 0.535329 0.75
62 1 0.550891 0.558786 0.75
47 1 0.5709 0.452743 0.75
48 1 0.571118 0.500134 0.75
63 1 0.571118 0.523499 0.75
64 1 0.5709 0.570891 0.75
ITEM: TIMESTEP
600
ITEM: NUMBER OF ATOMS
64
ITEM: BOX BOUNDS pp pp pp
-3.0000000000000000e+01 3.0000000000000000e+01
-3.0000000000000000e+01 3.0000000000000000e+01
-1.5000000000000000e+01 1.5000000000000000e+01
ITEM: ATOMS id type xs ys zs
1 1 0.428925 0.441085 0.25
2 1 0.428862 0.464486 0.25
21 1 0.428862 0.511881 0.25
22 1 0.428925 0.535281 0.25
3 1 0.449264 0.429484 0.25
4 1 0.449055 0.476455 0.25
8 1 0.489854 0.429632 0.25
6 1 0.469508 0.441275 0.25
7 1 0.469454 0.464756 0.25
9 1 0.48982 0.476463 0.25
13 1 0.530519 0.429628 0.25
11 1 0.510193 0.441286 0.25
12 1 0.510182 0.464746 0.25
14 1 0.530549 0.476447 0.25
16 1 0.550891 0.441214 0.25
17 1 0.550905 0.464671 0.25
5 1 0.449055 0.499912 0.25
23 1 0.449264 0.546883 0.25
10 1 0.48982 0.499904 0.25
24 1 0.469454 0.511611 0.25
25 1 0.469508 0.535092 0.25
26 1 0.489854 0.546734 0.25
15 1 0.530549 0.49992 0.25
27 1 0.510182 0.51162 0.25
28 1 0.510193 0.53508 0.25
29 1 0.530519 0.546739 0.25
30 1 0.550905 0.511696 0.25
31 1 0.550891 0.535153 0.25
18 1 0.5709 0.429109 0.25
19 1 0.571118 0.476501 0.25
20 1 0.571118 0.499866 0.25
32 1 0.5709 0.547257 0.25
33 1 0.428925 0.464719 0.75
34 1 0.428862 0.488119 0.75
49 1 0.428862 0.535514 0.75
50 1 0.428925 0.558915 0.75
35 1 0.449264 0.453117 0.75
36 1 0.449055 0.500088 0.75
39 1 0.489854 0.453266 0.75
37 1 0.469508 0.464908 0.75
38 1 0.469454 0.488389 0.75
40 1 0.48982 0.500096 0.75
43 1 0.530519 0.453261 0.75
41 1 0.510193 0.46492 0.75
42 1 0.510182 0.48838 0.75
44 1 0.530549 0.50008 0.75
45 1 0.550891 0.464847 0.75
46 1 0.550905 0.488304 0.75
51 1 0.449055 0.523545 0.75
52 1 0.449264 0.570516 0.75
55 1 0.48982 0.523537 0.75
53 1 0.469454 0.535244 0.75
54 1 0.469508 0.558725 0.75
56 1 0.489854 0.570368 0.75
59 1 0.530549 0.523553 0.75
57 1 0.510182 0.535254 0.75
58 1 0.510193 0.558714 0.75
60 1 0.530519 0.570372 0.75
61 1 0.550905 0.535329 0.75
62 1 0.550891 0.558786 0.75
47 1 0.5709 0.452743 0.75
48 1 0.571118 0.500134 0.75
63 1 0.571118 0.523499 0.75
64 1 0.5709 0.570891 0.75
ITEM: TIMESTEP
700
ITEM: NUMBER OF ATOMS
64
ITEM: BOX BOUNDS pp pp pp
-3.0000000000000000e+01 3.0000000000000000e+01
-3.0000000000000000e+01 3.0000000000000000e+01
-1.5000000000000000e+01 1.5000000000000000e+01
ITEM: ATOMS id type xs ys zs
1 1 0.428925 0.441085 0.25
2 1 0.428862 0.464486 0.25
21 1 0.428862 0.511881 0.25
22 1 0.428925 0.535281 0.25
3 1 0.449264 0.429484 0.25
4 1 0.449055 0.476455 0.25
8 1 0.489854 0.429632 0.25
6 1 0.469508 0.441275 0.25
7 1 0.469454 0.464756 0.25
9 1 0.48982 0.476463 0.25
13 1 0.530519 0.429628 0.25
11 1 0.510193 0.441286 0.25
12 1 0.510182 0.464746 0.25
14 1 0.530549 0.476447 0.25
16 1 0.550891 0.441214 0.25
17 1 0.550905 0.464671 0.25
5 1 0.449055 0.499912 0.25
23 1 0.449264 0.546883 0.25
10 1 0.48982 0.499904 0.25
24 1 0.469454 0.511611 0.25
25 1 0.469508 0.535092 0.25
26 1 0.489854 0.546734 0.25
15 1 0.530549 0.49992 0.25
27 1 0.510182 0.51162 0.25
28 1 0.510193 0.53508 0.25
29 1 0.530519 0.546739 0.25
30 1 0.550905 0.511696 0.25
31 1 0.550891 0.535153 0.25
18 1 0.5709 0.429109 0.25
19 1 0.571118 0.476501 0.25
20 1 0.571118 0.499866 0.25
32 1 0.5709 0.547257 0.25
33 1 0.428925 0.464719 0.75
34 1 0.428862 0.488119 0.75
49 1 0.428862 0.535514 0.75
50 1 0.428925 0.558915 0.75
35 1 0.449264 0.453117 0.75
36 1 0.449055 0.500088 0.75
39 1 0.489854 0.453266 0.75
37 1 0.469508 0.464908 0.75
38 1 0.469454 0.488389 0.75
40 1 0.48982 0.500096 0.75
43 1 0.530519 0.453261 0.75
41 1 0.510193 0.46492 0.75
42 1 0.510182 0.48838 0.75
44 1 0.530549 0.50008 0.75
45 1 0.550891 0.464847 0.75
46 1 0.550905 0.488304 0.75
51 1 0.449055 0.523545 0.75
52 1 0.449264 0.570516 0.75
55 1 0.48982 0.523537 0.75
53 1 0.469454 0.535244 0.75
54 1 0.469508 0.558725 0.75
56 1 0.489854 0.570368 0.75
59 1 0.530549 0.523553 0.75
57 1 0.510182 0.535254 0.75
58 1 0.510193 0.558714 0.75
60 1 0.530519 0.570372 0.75
61 1 0.550905 0.535329 0.75
62 1 0.550891 0.558786 0.75
47 1 0.5709 0.452743 0.75
48 1 0.571118 0.500134 0.75
63 1 0.571118 0.523499 0.75
64 1 0.5709 0.570891 0.75
ITEM: TIMESTEP
800
ITEM: NUMBER OF ATOMS
64
ITEM: BOX BOUNDS pp pp pp
-3.0000000000000000e+01 3.0000000000000000e+01
-3.0000000000000000e+01 3.0000000000000000e+01
-1.5000000000000000e+01 1.5000000000000000e+01
ITEM: ATOMS id type xs ys zs
1 1 0.428925 0.441085 0.25
2 1 0.428862 0.464486 0.25
21 1 0.428862 0.511881 0.25
22 1 0.428925 0.535281 0.25
3 1 0.449264 0.429484 0.25
4 1 0.449055 0.476455 0.25
8 1 0.489854 0.429632 0.25
6 1 0.469508 0.441275 0.25
7 1 0.469454 0.464756 0.25
9 1 0.48982 0.476463 0.25
13 1 0.530519 0.429628 0.25
11 1 0.510193 0.441286 0.25
12 1 0.510182 0.464746 0.25
14 1 0.530549 0.476447 0.25
16 1 0.550891 0.441214 0.25
17 1 0.550905 0.464671 0.25
5 1 0.449055 0.499912 0.25
23 1 0.449264 0.546883 0.25
10 1 0.48982 0.499904 0.25
24 1 0.469454 0.511611 0.25
25 1 0.469508 0.535092 0.25
26 1 0.489854 0.546734 0.25
15 1 0.530549 0.49992 0.25
27 1 0.510182 0.51162 0.25
28 1 0.510193 0.53508 0.25
29 1 0.530519 0.546739 0.25
30 1 0.550905 0.511696 0.25
31 1 0.550891 0.535153 0.25
18 1 0.5709 0.429109 0.25
19 1 0.571118 0.476501 0.25
20 1 0.571118 0.499866 0.25
32 1 0.5709 0.547257 0.25
33 1 0.428925 0.464719 0.75
34 1 0.428862 0.488119 0.75
49 1 0.428862 0.535514 0.75
50 1 0.428925 0.558915 0.75
35 1 0.449264 0.453117 0.75
36 1 0.449055 0.500088 0.75
39 1 0.489854 0.453266 0.75
37 1 0.469508 0.464908 0.75
38 1 0.469454 0.488389 0.75
40 1 0.48982 0.500096 0.75
43 1 0.530519 0.453261 0.75
41 1 0.510193 0.46492 0.75
42 1 0.510182 0.48838 0.75
44 1 0.530549 0.50008 0.75
45 1 0.550891 0.464847 0.75
46 1 0.550905 0.488304 0.75
51 1 0.449055 0.523545 0.75
52 1 0.449264 0.570516 0.75
55 1 0.48982 0.523537 0.75
53 1 0.469454 0.535244 0.75
54 1 0.469508 0.558725 0.75
56 1 0.489854 0.570368 0.75
59 1 0.530549 0.523553 0.75
57 1 0.510182 0.535254 0.75
58 1 0.510193 0.558714 0.75
60 1 0.530519 0.570372 0.75
61 1 0.550905 0.535329 0.75
62 1 0.550891 0.558786 0.75
47 1 0.5709 0.452743 0.75
48 1 0.571118 0.500134 0.75
63 1 0.571118 0.523499 0.75
64 1 0.5709 0.570891 0.75
ITEM: TIMESTEP
900
ITEM: NUMBER OF ATOMS
64
ITEM: BOX BOUNDS pp pp pp
-3.0000000000000000e+01 3.0000000000000000e+01
-3.0000000000000000e+01 3.0000000000000000e+01
-1.5000000000000000e+01 1.5000000000000000e+01
ITEM: ATOMS id type xs ys zs
1 1 0.428925 0.441085 0.25
2 1 0.428862 0.464486 0.25
21 1 0.428862 0.511881 0.25
22 1 0.428925 0.535281 0.25
3 1 0.449264 0.429484 0.25
4 1 0.449055 0.476455 0.25
8 1 0.489854 0.429632 0.25
6 1 0.469508 0.441275 0.25
7 1 0.469454 0.464756 0.25
9 1 0.48982 0.476463 0.25
13 1 0.530519 0.429628 0.25
11 1 0.510193 0.441286 0.25
12 1 0.510182 0.464746 0.25
14 1 0.530549 0.476447 0.25
16 1 0.550891 0.441214 0.25
17 1 0.550905 0.464671 0.25
5 1 0.449055 0.499912 0.25
23 1 0.449264 0.546883 0.25
10 1 0.48982 0.499904 0.25
24 1 0.469454 0.511611 0.25
25 1 0.469508 0.535092 0.25
26 1 0.489854 0.546734 0.25
15 1 0.530549 0.49992 0.25
27 1 0.510182 0.51162 0.25
28 1 0.510193 0.53508 0.25
29 1 0.530519 0.546739 0.25
30 1 0.550905 0.511696 0.25
31 1 0.550891 0.535153 0.25
18 1 0.5709 0.429109 0.25
19 1 0.571118 0.476501 0.25
20 1 0.571118 0.499866 0.25
32 1 0.5709 0.547257 0.25
33 1 0.428925 0.464719 0.75
34 1 0.428862 0.488119 0.75
49 1 0.428862 0.535514 0.75
50 1 0.428925 0.558915 0.75
35 1 0.449264 0.453117 0.75
36 1 0.449055 0.500088 0.75
39 1 0.489854 0.453266 0.75
37 1 0.469508 0.464908 0.75
38 1 0.469454 0.488389 0.75
40 1 0.48982 0.500096 0.75
43 1 0.530519 0.453261 0.75
41 1 0.510193 0.46492 0.75
42 1 0.510182 0.48838 0.75
44 1 0.530549 0.50008 0.75
45 1 0.550891 0.464847 0.75
46 1 0.550905 0.488304 0.75
51 1 0.449055 0.523545 0.75
52 1 0.449264 0.570516 0.75
55 1 0.48982 0.523537 0.75
53 1 0.469454 0.535244 0.75
54 1 0.469508 0.558725 0.75
56 1 0.489854 0.570368 0.75
59 1 0.530549 0.523553 0.75
57 1 0.510182 0.535254 0.75
58 1 0.510193 0.558714 0.75
60 1 0.530519 0.570372 0.75
61 1 0.550905 0.535329 0.75
62 1 0.550891 0.558786 0.75
47 1 0.5709 0.452743 0.75
48 1 0.571118 0.500134 0.75
63 1 0.571118 0.523499 0.75
64 1 0.5709 0.570891 0.75
ITEM: TIMESTEP
1000
ITEM: NUMBER OF ATOMS
64
ITEM: BOX BOUNDS pp pp pp
-3.0000000000000000e+01 3.0000000000000000e+01
-3.0000000000000000e+01 3.0000000000000000e+01
-1.5000000000000000e+01 1.5000000000000000e+01
ITEM: ATOMS id type xs ys zs
1 1 0.428925 0.441085 0.25
2 1 0.428862 0.464486 0.25
21 1 0.428862 0.511881 0.25
22 1 0.428925 0.535281 0.25
3 1 0.449264 0.429484 0.25
4 1 0.449055 0.476455 0.25
8 1 0.489854 0.429632 0.25
6 1 0.469508 0.441275 0.25
7 1 0.469454 0.464756 0.25
9 1 0.48982 0.476463 0.25
13 1 0.530519 0.429628 0.25
11 1 0.510193 0.441286 0.25
12 1 0.510182 0.464746 0.25
14 1 0.530549 0.476447 0.25
16 1 0.550891 0.441214 0.25
17 1 0.550905 0.464671 0.25
5 1 0.449055 0.499912 0.25
23 1 0.449264 0.546883 0.25
10 1 0.48982 0.499904 0.25
24 1 0.469454 0.511611 0.25
25 1 0.469508 0.535092 0.25
26 1 0.489854 0.546734 0.25
15 1 0.530549 0.49992 0.25
27 1 0.510182 0.51162 0.25
28 1 0.510193 0.53508 0.25
29 1 0.530519 0.546739 0.25
30 1 0.550905 0.511696 0.25
31 1 0.550891 0.535153 0.25
18 1 0.5709 0.429109 0.25
19 1 0.571118 0.476501 0.25
20 1 0.571118 0.499866 0.25
32 1 0.5709 0.547257 0.25
33 1 0.428925 0.464719 0.75
34 1 0.428862 0.488119 0.75
49 1 0.428862 0.535514 0.75
50 1 0.428925 0.558915 0.75
35 1 0.449264 0.453117 0.75
36 1 0.449055 0.500088 0.75
39 1 0.489854 0.453266 0.75
37 1 0.469508 0.464908 0.75
38 1 0.469454 0.488389 0.75
40 1 0.48982 0.500096 0.75
43 1 0.530519 0.453261 0.75
41 1 0.510193 0.46492 0.75
42 1 0.510182 0.48838 0.75
44 1 0.530549 0.50008 0.75
45 1 0.550891 0.464847 0.75
46 1 0.550905 0.488304 0.75
51 1 0.449055 0.523545 0.75
52 1 0.449264 0.570516 0.75
55 1 0.48982 0.523537 0.75
53 1 0.469454 0.535244 0.75
54 1 0.469508 0.558725 0.75
56 1 0.489854 0.570368 0.75
59 1 0.530549 0.523553 0.75
57 1 0.510182 0.535254 0.75
58 1 0.510193 0.558714 0.75
60 1 0.530519 0.570372 0.75
61 1 0.550905 0.535329 0.75
62 1 0.550891 0.558786 0.75
47 1 0.5709 0.452743 0.75
48 1 0.571118 0.500134 0.75
63 1 0.571118 0.523499 0.75
64 1 0.5709 0.570891 0.75
ITEM: TIMESTEP
1007
ITEM: NUMBER OF ATOMS
64
ITEM: BOX BOUNDS pp pp pp
-3.0000000000000000e+01 3.0000000000000000e+01
-3.0000000000000000e+01 3.0000000000000000e+01
-1.5000000000000000e+01 1.5000000000000000e+01
ITEM: ATOMS id type xs ys zs
1 1 0.428938 0.441082 0.25
2 1 0.428867 0.464494 0.25
21 1 0.428867 0.511872 0.25
22 1 0.428938 0.535284 0.25
3 1 0.449269 0.429487 0.25
4 1 0.449053 0.476436 0.25
8 1 0.489858 0.429628 0.25
6 1 0.46952 0.441264 0.25
7 1 0.469451 0.464757 0.25
9 1 0.489819 0.476457 0.25
13 1 0.530513 0.429624 0.25
11 1 0.510186 0.441285 0.25
12 1 0.510183 0.464748 0.25
14 1 0.530552 0.476436 0.25
16 1 0.550871 0.441196 0.25
17 1 0.550907 0.464676 0.25
5 1 0.449053 0.499931 0.25
23 1 0.449269 0.54688 0.25
10 1 0.489819 0.49991 0.25
24 1 0.469451 0.51161 0.25
25 1 0.46952 0.535102 0.25
26 1 0.489858 0.546738 0.25
15 1 0.530552 0.49993 0.25
27 1 0.510183 0.511619 0.25
28 1 0.510186 0.535082 0.25
29 1 0.530513 0.546742 0.25
30 1 0.550907 0.51169 0.25
31 1 0.550871 0.535171 0.25
18 1 0.57089 0.429112 0.25
19 1 0.571123 0.476497 0.25
20 1 0.571123 0.49987 0.25
32 1 0.57089 0.547254 0.25
33 1 0.428938 0.464716 0.75
34 1 0.428867 0.488128 0.75
49 1 0.428867 0.535506 0.75
50 1 0.428938 0.558918 0.75
35 1 0.449269 0.45312 0.75
36 1 0.449053 0.500069 0.75
39 1 0.489858 0.453262 0.75
37 1 0.46952 0.464898 0.75
38 1 0.469451 0.48839 0.75
40 1 0.489819 0.50009 0.75
43 1 0.530513 0.453258 0.75
41 1 0.510186 0.464918 0.75
42 1 0.510183 0.488381 0.75
44 1 0.530552 0.50007 0.75
45 1 0.550871 0.464829 0.75
46 1 0.550907 0.48831 0.75
51 1 0.449053 0.523564 0.75
52 1 0.449269 0.570513 0.75
55 1 0.489819 0.523543 0.75
53 1 0.469451 0.535243 0.75
54 1 0.46952 0.558736 0.75
56 1 0.489858 0.570372 0.75
59 1 0.530552 0.523564 0.75
57 1 0.510183 0.535252 0.75
58 1 0.510186 0.558715 0.75
60 1 0.530513 0.570376 0.75
61 1 0.550907 0.535324 0.75
62 1 0.550871 0.558804 0.75
47 1 0.57089 0.452746 0.75
48 1 0.571123 0.50013 0.75
63 1 0.571123 0.523503 0.75
64 1 0.57089 0.570888 0.75
ITEM: TIMESTEP
1100
ITEM: NUMBER OF ATOMS
64
ITEM: BOX BOUNDS pp pp pp
-3.0000000000000000e+01 3.0000000000000000e+01
-3.0000000000000000e+01 3.0000000000000000e+01
-1.5000000000000000e+01 1.5000000000000000e+01
ITEM: ATOMS id type xs ys zs
1 1 0.428938 0.441082 0.25
2 1 0.428867 0.464494 0.25
21 1 0.428867 0.511872 0.25
22 1 0.428938 0.535284 0.25
3 1 0.449269 0.429487 0.25
4 1 0.449053 0.476436 0.25
8 1 0.489858 0.429628 0.25
6 1 0.46952 0.441264 0.25
7 1 0.469451 0.464757 0.25
9 1 0.489819 0.476457 0.25
13 1 0.530513 0.429624 0.25
11 1 0.510186 0.441285 0.25
12 1 0.510183 0.464748 0.25
14 1 0.530552 0.476436 0.25
16 1 0.550871 0.441196 0.25
17 1 0.550907 0.464676 0.25
5 1 0.449053 0.499931 0.25
23 1 0.449269 0.54688 0.25
10 1 0.489819 0.49991 0.25
24 1 0.469451 0.51161 0.25
25 1 0.46952 0.535102 0.25
26 1 0.489858 0.546738 0.25
15 1 0.530552 0.49993 0.25
27 1 0.510183 0.511619 0.25
28 1 0.510186 0.535082 0.25
29 1 0.530513 0.546742 0.25
30 1 0.550907 0.51169 0.25
31 1 0.550871 0.535171 0.25
18 1 0.57089 0.429112 0.25
19 1 0.571123 0.476497 0.25
20 1 0.571123 0.49987 0.25
32 1 0.57089 0.547254 0.25
33 1 0.428938 0.464716 0.75
34 1 0.428867 0.488128 0.75
49 1 0.428867 0.535506 0.75
50 1 0.428938 0.558918 0.75
35 1 0.449269 0.45312 0.75
36 1 0.449053 0.500069 0.75
39 1 0.489858 0.453262 0.75
37 1 0.46952 0.464898 0.75
38 1 0.469451 0.48839 0.75
40 1 0.489819 0.50009 0.75
43 1 0.530513 0.453258 0.75
41 1 0.510186 0.464918 0.75
42 1 0.510183 0.488381 0.75
44 1 0.530552 0.50007 0.75
45 1 0.550871 0.464829 0.75
46 1 0.550907 0.48831 0.75
51 1 0.449053 0.523564 0.75
52 1 0.449269 0.570513 0.75
55 1 0.489819 0.523543 0.75
53 1 0.469451 0.535243 0.75
54 1 0.46952 0.558736 0.75
56 1 0.489858 0.570372 0.75
59 1 0.530552 0.523564 0.75
57 1 0.510183 0.535252 0.75
58 1 0.510186 0.558715 0.75
60 1 0.530513 0.570376 0.75
61 1 0.550907 0.535324 0.75
62 1 0.550871 0.558804 0.75
47 1 0.57089 0.452746 0.75
48 1 0.571123 0.50013 0.75