ITEM: TIMESTEP
0
ITEM: NUMBER OF ATOMS
64
ITEM: BOX BOUNDS pp pp pp
-1.2500000000000000e+01 1.2500000000000000e+01
-1.2500000000000000e+01 1.2500000000000000e+01
-1.5000000000000000e+01 1.5000000000000000e+01
ITEM: ATOMS id type xs ys zs
3 1 0.377198 0.32984 0.25
8 1 0.47544 0.32984 0.25
13 1 0.573681 0.32984 0.25
18 1 0.671923 0.32984 0.25
1 1 0.328077 0.3582 0.25
2 1 0.328077 0.41492 0.25
21 1 0.328077 0.52836 0.25
22 1 0.328077 0.58508 0.25
4 1 0.377198 0.44328 0.25
6 1 0.426319 0.3582 0.25
7 1 0.426319 0.41492 0.25
9 1 0.47544 0.44328 0.25
11 1 0.52456 0.3582 0.25
12 1 0.52456 0.41492 0.25
14 1 0.573681 0.44328 0.25
16 1 0.622802 0.3582 0.25
17 1 0.622802 0.41492 0.25
5 1 0.377198 0.5 0.25
23 1 0.377198 0.61344 0.25
10 1 0.47544 0.5 0.25
24 1 0.426319 0.52836 0.25
25 1 0.426319 0.58508 0.25
26 1 0.47544 0.61344 0.25
15 1 0.573681 0.5 0.25
27 1 0.52456 0.52836 0.25
28 1 0.52456 0.58508 0.25
29 1 0.573681 0.61344 0.25
30 1 0.622802 0.52836 0.25
31 1 0.622802 0.58508 0.25
19 1 0.671923 0.44328 0.25
20 1 0.671923 0.5 0.25
32 1 0.671923 0.61344 0.25
33 1 0.328077 0.41492 0.75
34 1 0.328077 0.47164 0.75
49 1 0.328077 0.58508 0.75
50 1 0.328077 0.6418 0.75
35 1 0.377198 0.38656 0.75
36 1 0.377198 0.5 0.75
39 1 0.47544 0.38656 0.75
37 1 0.426319 0.41492 0.75
38 1 0.426319 0.47164 0.75
40 1 0.47544 0.5 0.75
43 1 0.573681 0.38656 0.75
41 1 0.52456 0.41492 0.75
42 1 0.52456 0.47164 0.75
44 1 0.573681 0.5 0.75
45 1 0.622802 0.41492 0.75
46 1 0.622802 0.47164 0.75
51 1 0.377198 0.55672 0.75
55 1 0.47544 0.55672 0.75
53 1 0.426319 0.58508 0.75
54 1 0.426319 0.6418 0.75
59 1 0.573681 0.55672 0.75
57 1 0.52456 0.58508 0.75
58 1 0.52456 0.6418 0.75
61 1 0.622802 0.58508 0.75
62 1 0.622802 0.6418 0.75
47 1 0.671923 0.38656 0.75
48 1 0.671923 0.5 0.75
63 1 0.671923 0.55672 0.75
52 1 0.377198 0.67016 0.75
56 1 0.47544 0.67016 0.75
60 1 0.573681 0.67016 0.75
64 1 0.671923 0.67016 0.75
ITEM: TIMESTEP
5
ITEM: NUMBER OF ATOMS
64
ITEM: BOX BOUNDS pp pp pp
-1.2500000000000000e+01 1.2500000000000000e+01
-1.2500000000000000e+01 1.2500000000000000e+01
-1.5000000000000000e+01 1.5000000000000000e+01
ITEM: ATOMS id type xs ys zs
3 1 0.378207 0.330746 0.25
8 1 0.475617 0.331135 0.25
13 1 0.573325 0.33113 0.25
18 1 0.670181 0.329858 0.25
1 1 0.329385 0.358576 0.25
2 1 0.329286 0.414803 0.25
21 1 0.329286 0.528477 0.25
22 1 0.329385 0.584704 0.25
4 1 0.377718 0.443451 0.25
6 1 0.426824 0.359069 0.25
7 1 0.426685 0.415458 0.25
9 1 0.47558 0.443524 0.25
11 1 0.524454 0.359091 0.25
12 1 0.524436 0.415415 0.25
14 1 0.573314 0.443462 0.25
16 1 0.622155 0.358887 0.25
17 1 0.622176 0.415266 0.25
5 1 0.377718 0.499829 0.25
23 1 0.378207 0.612534 0.25
10 1 0.47558 0.499756 0.25
24 1 0.426685 0.527822 0.25
25 1 0.426824 0.584211 0.25
26 1 0.475617 0.612145 0.25
15 1 0.573314 0.499818 0.25
27 1 0.524436 0.527865 0.25
28 1 0.524454 0.584189 0.25
29 1 0.573325 0.61215 0.25
30 1 0.622176 0.528014 0.25
31 1 0.622155 0.584393 0.25
19 1 0.670656 0.443639 0.25
20 1 0.670656 0.499641 0.25
32 1 0.670181 0.613422 0.25
33 1 0.329385 0.415296 0.75
34 1 0.329286 0.471523 0.75
49 1 0.329286 0.585197 0.75
50 1 0.329385 0.641424 0.75
35 1 0.378207 0.387466 0.75
36 1 0.377718 0.500171 0.75
39 1 0.475617 0.387855 0.75
37 1 0.426824 0.415789 0.75
38 1 0.426685 0.472178 0.75
40 1 0.47558 0.500244 0.75
43 1 0.573325 0.38785 0.75
41 1 0.524454 0.415811 0.75
42 1 0.524436 0.472135 0.75
44 1 0.573314 0.500182 0.75
45 1 0.622155 0.415607 0.75
46 1 0.622176 0.471986 0.75
51 1 0.377718 0.556549 0.75
55 1 0.47558 0.556476 0.75
53 1 0.426685 0.584542 0.75
54 1 0.426824 0.640931 0.75
59 1 0.573314 0.556538 0.75
57 1 0.524436 0.584585 0.75
58 1 0.524454 0.640909 0.75
61 1 0.622176 0.584734 0.75
62 1 0.622155 0.641113 0.75
47 1 0.670181 0.386578 0.75
48 1 0.670656 0.500359 0.75
63 1 0.670656 0.556361 0.75
52 1 0.378207 0.669254 0.75
56 1 0.475617 0.668865 0.75
60 1 0.573325 0.66887 0.75
64 1 0.670181 0.670142 0.75
ITEM: TIMESTEP
100
ITEM: NUMBER OF ATOMS
64
ITEM: BOX BOUNDS pp pp pp
-1.2500000000000000e+01 1.2500000000000000e+01
-1.2500000000000000e+01 1.2500000000000000e+01
-1.5000000000000000e+01 1.5000000000000000e+01
ITEM: ATOMS id type xs ys zs
3 1 0.378207 0.330746 0.25
8 1 0.475617 0.331135 0.25
13 1 0.573325 0.33113 0.25
18 1 0.670181 0.329858 0.25
1 1 0.329385 0.358576 0.25
2 1 0.329286 0.414803 0.25
21 1 0.329286 0.528477 0.25
22 1 0.329385 0.584704 0.25
4 1 0.377718 0.443451 0.25
6 1 0.426824 0.359069 0.25
7 1 0.426685 0.415458 0.25
9 1 0.47558 0.443524 0.25
11 1 0.524454 0.359091 0.25
12 1 0.524436 0.415415 0.25
14 1 0.573314 0.443462 0.25
16 1 0.622155 0.358887 0.25
17 1 0.622176 0.415266 0.25
5 1 0.377718 0.499829 0.25
23 1 0.378207 0.612534 0.25
10 1 0.47558 0.499756 0.25
24 1 0.426685 0.527822 0.25
25 1 0.426824 0.584211 0.25
26 1 0.475617 0.612145 0.25
15 1 0.573314 0.499818 0.25
27 1 0.524436 0.527865 0.25
28 1 0.524454 0.584189 0.25
29 1 0.573325 0.61215 0.25
30 1 0.622176 0.528014 0.25
31 1 0.622155 0.584393 0.25
19 1 0.670656 0.443639 0.25
20 1 0.670656 0.499641 0.25
32 1 0.670181 0.613422 0.25
33 1 0.329385 0.415296 0.75
34 1 0.329286 0.471523 0.75
49 1 0.329286 0.585197 0.75
50 1 0.329385 0.641424 0.75
35 1 0.378207 0.387466 0.75
36 1 0.377718 0.500171 0.75
39 1 0.475617 0.387855 0.75
37 1 0.426824 0.415789 0.75
38 1 0.426685 0.472178 0.75
40 1 0.47558 0.500244 0.75
43 1 0.573325 0.38785 0.75
41 1 0.524454 0.415811 0.75
42 1 0.524436 0.472135 0.75
44 1 0.573314 0.500182 0.75
45 1 0.622155 0.415607 0.75
46 1 0.622176 0.471986 0.75
51 1 0.377718 0.556549 0.75
55 1 0.47558 0.556476 0.75
53 1 0.426685 0.584542 0.75
54 1 0.426824 0.640931 0.75
59 1 0.573314 0.556538 0.75
57 1 0.524436 0.584585 0.75
58 1 0.524454 0.640909 0.75
61 1 0.622176 0.584734 0.75
62 1 0.622155 0.641113 0.75
47 1 0.670181 0.386578 0.75
48 1 0.670656 0.500359 0.75
63 1 0.670656 0.556361 0.75
52 1 0.378207 0.669254 0.75
56 1 0.475617 0.668865 0.75
60 1 0.573325 0.66887 0.75
64 1 0.670181 0.670142 0.75
ITEM: TIMESTEP
200
ITEM: NUMBER OF ATOMS
64
ITEM: BOX BOUNDS pp pp pp
-1.2500000000000000e+01 1.2500000000000000e+01
-1.2500000000000000e+01 1.2500000000000000e+01
-1.5000000000000000e+01 1.5000000000000000e+01
ITEM: ATOMS id type xs ys zs
3 1 0.378207 0.330746 0.25
8 1 0.475617 0.331135 0.25
13 1 0.573325 0.33113 0.25
18 1 0.670181 0.329858 0.25
1 1 0.329385 0.358576 0.25
2 1 0.329286 0.414803 0.25
21 1 0.329286 0.528477 0.25
22 1 0.329385 0.584704 0.25
4 1 0.377718 0.443451 0.25
6 1 0.426824 0.359069 0.25
7 1 0.426685 0.415458 0.25
9 1 0.47558 0.443524 0.25
11 1 0.524454 0.359091 0.25
12 1 0.524436 0.415415 0.25
14 1 0.573314 0.443462 0.25
16 1 0.622155 0.358887 0.25
17 1 0.622176 0.415266 0.25
5 1 0.377718 0.499829 0.25
23 1 0.378207 0.612534 0.25
10 1 0.47558 0.499756 0.25
24 1 0.426685 0.527822 0.25
25 1 0.426824 0.584211 0.25
26 1 0.475617 0.612145 0.25
15 1 0.573314 0.499818 0.25
27 1 0.524436 0.527865 0.25
28 1 0.524454 0.584189 0.25
29 1 0.573325 0.61215 0.25
30 1 0.622176 0.528014 0.25
31 1 0.622155 0.584393 0.25
19 1 0.670656 0.443639 0.25
20 1 0.670656 0.499641 0.25
32 1 0.670181 0.613422 0.25
33 1 0.329385 0.415296 0.75
34 1 0.329286 0.471523 0.75
49 1 0.329286 0.585197 0.75
50 1 0.329385 0.641424 0.75
35 1 0.378207 0.387466 0.75
36 1 0.377718 0.500171 0.75
39 1 0.475617 0.387855 0.75
37 1 0.426824 0.415789 0.75
38 1 0.426685 0.472178 0.75
40 1 0.47558 0.500244 0.75
43 1 0.573325 0.38785 0.75
41 1 0.524454 0.415811 0.75
42 1 0.524436 0.472135 0.75
44 1 0.573314 0.500182 0.75
45 1 0.622155 0.415607 0.75
46 1 0.622176 0.471986 0.75
51 1 0.377718 0.556549 0.75
55 1 0.47558 0.556476 0.75
53 1 0.426685 0.584542 0.75
54 1 0.426824 0.640931 0.75
59 1 0.573314 0.556538 0.75
57 1 0.524436 0.584585 0.75
58 1 0.524454 0.640909 0.75
61 1 0.622176 0.584734 0.75
62 1 0.622155 0.641113 0.75
47 1 0.670181 0.386578 0.75
48 1 0.670656 0.500359 0.75
63 1 0.670656 0.556361 0.75
52 1 0.378207 0.669254 0.75
56 1 0.475617 0.668865 0.75
60 1 0.573325 0.66887 0.75
64 1 0.670181 0.670142 0.75
ITEM: TIMESTEP
300
ITEM: NUMBER OF ATOMS
64
ITEM: BOX BOUNDS pp pp pp
-1.2500000000000000e+01 1.2500000000000000e+01
-1.2500000000000000e+01 1.2500000000000000e+01
-1.5000000000000000e+01 1.5000000000000000e+01
ITEM: ATOMS id type xs ys zs
3 1 0.378207 0.330746 0.25
8 1 0.475617 0.331135 0.25
13 1 0.573325 0.33113 0.25
18 1 0.670181 0.329858 0.25
1 1 0.329385 0.358576 0.25
2 1 0.329286 0.414803 0.25
21 1 0.329286 0.528477 0.25
22 1 0.329385 0.584704 0.25
4 1 0.377718 0.443451 0.25
6 1 0.426824 0.359069 0.25
7 1 0.426685 0.415458 0.25
9 1 0.47558 0.443524 0.25
11 1 0.524454 0.359091 0.25
12 1 0.524436 0.415415 0.25
14 1 0.573314 0.443462 0.25
16 1 0.622155 0.358887 0.25
17 1 0.622176 0.415266 0.25
5 1 0.377718 0.499829 0.25
23 1 0.378207 0.612534 0.25
10 1 0.47558 0.499756 0.25
24 1 0.426685 0.527822 0.25
25 1 0.426824 0.584211 0.25
26 1 0.475617 0.612145 0.25
15 1 0.573314 0.499818 0.25
27 1 0.524436 0.527865 0.25
28 1 0.524454 0.584189 0.25
29 1 0.573325 0.61215 0.25
30 1 0.622176 0.528014 0.25
31 1 0.622155 0.584393 0.25
19 1 0.670656 0.443639 0.25
20 1 0.670656 0.499641 0.25
32 1 0.670181 0.613422 0.25
33 1 0.329385 0.415296 0.75
34 1 0.329286 0.471523 0.75
49 1 0.329286 0.585197 0.75
50 1 0.329385 0.641424 0.75
35 1 0.378207 0.387466 0.75
36 1 0.377718 0.500171 0.75
39 1 0.475617 0.387855 0.75
37 1 0.426824 0.415789 0.75
38 1 0.426685 0.472178 0.75
40 1 0.47558 0.500244 0.75
43 1 0.573325 0.38785 0.75
41 1 0.524454 0.415811 0.75
42 1 0.524436 0.472135 0.75
44 1 0.573314 0.500182 0.75
45 1 0.622155 0.415607 0.75
46 1 0.622176 0.471986 0.75
51 1 0.377718 0.556549 0.75
55 1 0.47558 0.556476 0.75
53 1 0.426685 0.584542 0.75
54 1 0.426824 0.640931 0.75
59 1 0.573314 0.556538 0.75
57 1 0.524436 0.584585 0.75
58 1 0.524454 0.640909 0.75
61 1 0.622176 0.584734 0.75
62 1 0.622155 0.641113 0.75
47 1 0.670181 0.386578 0.75
48 1 0.670656 0.500359 0.75
63 1 0.670656 0.556361 0.75
52 1 0.378207 0.669254 0.75
56 1 0.475617 0.668865 0.75
60 1 0.573325 0.66887 0.75
64 1 0.670181 0.670142 0.75
ITEM: TIMESTEP
400
ITEM: NUMBER OF ATOMS
64
ITEM: BOX BOUNDS pp pp pp
-1.2500000000000000e+01 1.2500000000000000e+01
-1.2500000000000000e+01 1.2500000000000000e+01
-1.5000000000000000e+01 1.5000000000000000e+01
ITEM: ATOMS id type xs ys zs
3 1 0.378207 0.330746 0.25
8 1 0.475617 0.331135 0.25
13 1 0.573325 0.33113 0.25
18 1 0.670181 0.329858 0.25
1 1 0.329385 0.358576 0.25
2 1 0.329286 0.414803 0.25
21 1 0.329286 0.528477 0.25
22 1 0.329385 0.584704 0.25
4 1 0.377718 0.443451 0.25
6 1 0.426824 0.359069 0.25
7 1 0.426685 0.415458 0.25
9 1 0.47558 0.443524 0.25
11 1 0.524454 0.359091 0.25
12 1 0.524436 0.415415 0.25
14 1 0.573314 0.443462 0.25
16 1 0.622155 0.358887 0.25
17 1 0.622176 0.415266 0.25
5 1 0.377718 0.499829 0.25
23 1 0.378207 0.612534 0.25
10 1 0.47558 0.499756 0.25
24 1 0.426685 0.527822 0.25
25 1 0.426824 0.584211 0.25
26 1 0.475617 0.612145 0.25
15 1 0.573314 0.499818 0.25
27 1 0.524436 0.527865 0.25
28 1 0.524454 0.584189 0.25
29 1 0.573325 0.61215 0.25
30 1 0.622176 0.528014 0.25
31 1 0.622155 0.584393 0.25
19 1 0.670656 0.443639 0.25
20 1 0.670656 0.499641 0.25
32 1 0.670181 0.613422 0.25
33 1 0.329385 0.415296 0.75
34 1 0.329286 0.471523 0.75
49 1 0.329286 0.585197 0.75
50 1 0.329385 0.641424 0.75
35 1 0.378207 0.387466 0.75
36 1 0.377718 0.500171 0.75
39 1 0.475617 0.387855 0.75
37 1 0.426824 0.415789 0.75
38 1 0.426685 0.472178 0.75
40 1 0.47558 0.500244 0.75
43 1 0.573325 0.38785 0.75
41 1 0.524454 0.415811 0.75
42 1 0.524436 0.472135 0.75
44 1 0.573314 0.500182 0.75
45 1 0.622155 0.415607 0.75
46 1 0.622176 0.471986 0.75
51 1 0.377718 0.556549 0.75
55 1 0.47558 0.556476 0.75
53 1 0.426685 0.584542 0.75
54 1 0.426824 0.640931 0.75
59 1 0.573314 0.556538 0.75
57 1 0.524436 0.584585 0.75
58 1 0.524454 0.640909 0.75
61 1 0.622176 0.584734 0.75
62 1 0.622155 0.641113 0.75
47 1 0.670181 0.386578 0.75
48 1 0.670656 0.500359 0.75
63 1 0.670656 0.556361 0.75
52 1 0.378207 0.669254 0.75
56 1 0.475617 0.668865 0.75
60 1 0.573325 0.66887 0.75
64 1 0.670181 0.670142 0.75
ITEM: TIMESTEP
500
ITEM: NUMBER OF ATOMS
64
ITEM: BOX BOUNDS pp pp pp
-1.2500000000000000e+01 1.2500000000000000e+01
-1.2500000000000000e+01 1.2500000000000000e+01
-1.5000000000000000e+01 1.5000000000000000e+01
ITEM: ATOMS id type xs ys zs
3 1 0.378207 0.330746 0.25
8 1 0.475617 0.331135 0.25
13 1 0.573325 0.33113 0.25
18 1 0.670181 0.329858 0.25
1 1 0.329385 0.358576 0.25
2 1 0.329286 0.414803 0.25
21 1 0.329286 0.528477 0.25
22 1 0.329385 0.584704 0.25
4 1 0.377718 0.443451 0.25
6 1 0.426824 0.359069 0.25
7 1 0.426685 0.415458 0.25
9 1 0.47558 0.443524 0.25
11 1 0.524454 0.359091 0.25
12 1 0.524436 0.415415 0.25
14 1 0.573314 0.443462 0.25
16 1 0.622155 0.358887 0.25
17 1 0.622176 0.415266 0.25
5 1 0.377718 0.499829 0.25
23 1 0.378207 0.612534 0.25
10 1 0.47558 0.499756 0.25
24 1 0.426685 0.527822 0.25
25 1 0.426824 0.584211 0.25
26 1 0.475617 0.612145 0.25
15 1 0.573314 0.499818 0.25
27 1 0.524436 0.527865 0.25
28 1 0.524454 0.584189 0.25
29 1 0.573325 0.61215 0.25
30 1 0.622176 0.528014 0.25
31 1 0.622155 0.584393 0.25
19 1 0.670656 0.443639 0.25
20 1 0.670656 0.499641 0.25
32 1 0.670181 0.613422 0.25
33 1 0.329385 0.415296 0.75
34 1 0.329286 0.471523 0.75
49 1 0.329286 0.585197 0.75
50 1 0.329385 0.641424 0.75
35 1 0.378207 0.387466 0.75
36 1 0.377718 0.500171 0.75
39 1 0.475617 0.387855 0.75
37 1 0.426824 0.415789 0.75
38 1 0.426685 0.472178 0.75
40 1 0.47558 0.500244 0.75
43 1 0.573325 0.38785 0.75
41 1 0.524454 0.415811 0.75
42 1 0.524436 0.472135 0.75
44 1 0.573314 0.500182 0.75
45 1 0.622155 0.415607 0.75
46 1 0.622176 0.471986 0.75
51 1 0.377718 0.556549 0.75
55 1 0.47558 0.556476 0.75
53 1 0.426685 0.584542 0.75
54 1 0.426824 0.640931 0.75
59 1 0.573314 0.556538 0.75
57 1 0.524436 0.584585 0.75
58 1 0.524454 0.640909 0.75
61 1 0.622176 0.584734 0.75
62 1 0.622155 0.641113 0.75
47 1 0.670181 0.386578 0.75
48 1 0.670656 0.500359 0.75
63 1 0.670656 0.556361 0.75
52 1 0.378207 0.669254 0.75
56 1 0.475617 0.668865 0.75
60 1 0.573325 0.66887 0.75
64 1 0.670181 0.670142 0.75
ITEM: TIMESTEP
506
ITEM: NUMBER OF ATOMS
64
ITEM: BOX BOUNDS pp pp pp
-1.2500000000000000e+01 1.2500000000000000e+01
-1.2500000000000000e+01 1.2500000000000000e+01
-1.5000000000000000e+01 1.5000000000000000e+01
ITEM: ATOMS id type xs ys zs
3 1 0.378234 0.330761 0.25
8 1 0.47565 0.331117 0.25
13 1 0.573245 0.331108 0.25
18 1 0.670161 0.329862 0.25
1 1 0.32942 0.358605 0.25
2 1 0.32927 0.414766 0.25
21 1 0.32927 0.528514 0.25
22 1 0.32942 0.584675 0.25
4 1 0.377731 0.443492 0.25
6 1 0.426819 0.35906 0.25
7 1 0.426691 0.415413 0.25
9 1 0.475568 0.443511 0.25
11 1 0.524464 0.359087 0.25
12 1 0.524437 0.415391 0.25
14 1 0.573318 0.443472 0.25
16 1 0.622137 0.358913 0.25
17 1 0.622172 0.41521 0.25
5 1 0.377731 0.499788 0.25
23 1 0.378234 0.612519 0.25
10 1 0.475568 0.499769 0.25
24 1 0.426691 0.527867 0.25
25 1 0.426819 0.58422 0.25
26 1 0.47565 0.612163 0.25
15 1 0.573318 0.499808 0.25
27 1 0.524437 0.527889 0.25
28 1 0.524464 0.584193 0.25
29 1 0.573245 0.612172 0.25
30 1 0.622172 0.52807 0.25
31 1 0.622137 0.584367 0.25
19 1 0.670683 0.443602 0.25
20 1 0.670683 0.499678 0.25
32 1 0.670161 0.613418 0.25
33 1 0.32942 0.415325 0.75
34 1 0.32927 0.471486 0.75
49 1 0.32927 0.585234 0.75
50 1 0.32942 0.641395 0.75
35 1 0.378234 0.387481 0.75
36 1 0.377731 0.500212 0.75
39 1 0.47565 0.387837 0.75
37 1 0.426819 0.41578 0.75
38 1 0.426691 0.472133 0.75
40 1 0.475568 0.500231 0.75
43 1 0.573245 0.387828 0.75
41 1 0.524464 0.415807 0.75
42 1 0.524437 0.472111 0.75
44 1 0.573318 0.500192 0.75
45 1 0.622137 0.415633 0.75
46 1 0.622172 0.47193 0.75
51 1 0.377731 0.556508 0.75
55 1 0.475568 0.556489 0.75
53 1 0.426691 0.584587 0.75
54 1 0.426819 0.64094 0.75
59 1 0.573318 0.556528 0.75
57 1 0.524437 0.584609 0.75
58 1 0.524464 0.640913 0.75
61 1 0.622172 0.58479 0.75
62 1 0.622137 0.641087 0.75
47 1 0.670161 0.386582 0.75
48 1 0.670683 0.500322 0.75
63 1 0.670683 0.556398 0.75
52 1 0.378234 0.669239 0.75
56 1 0.47565 0.668883 0.75
60 1 0.573245 0.668892 0.75
64 1 0.670161 0.670138 0.75
ITEM: TIMESTEP
600
ITEM: NUMBER OF ATOMS
64
ITEM: BOX BOUNDS pp pp pp
-1.2500000000000000e+01 1.2500000000000000e+01
-1.2500000000000000e+01 1.2500000000000000e+01
-1.5000000000000000e+01 1.5000000000000000e+01
ITEM: ATOMS id type xs ys zs
3 1 0.378234 0.330761 0.25
8 1 0.47565 0.331117 0.25
13 1 0.573245 0.331108 0.25
18 1 0.670161 0.329862 0.25
1 1 0.32942 0.358605 0.25
2 1 0.32927 0.414766 0.25
21 1 0.32927 0.528514 0.25
22 1 0.32942 0.584675 0.25
4 1 0.377731 0.443492 0.25
6 1 0.426819 0.35906 0.25
7 1 0.426691 0.415413 0.25
9 1 0.475568 0.443511 0.25
11 1 0.524464 0.359087 0.25
12 1 0.524437 0.415391 0.25
14 1 0.573318 0.443472 0.25
16 1 0.622137 0.358913 0.25
17 1 0.622172 0.41521 0.25
5 1 0.377731 0.499788 0.25
23 1 0.378234 0.612519 0.25
10 1 0.475568 0.499769 0.25
24 1 0.426691 0.527867 0.25
25 1 0.426819 0.58422 0.25
26 1 0.47565 0.612163 0.25
15 1 0.573318 0.499808 0.25
27 1 0.524437 0.527889 0.25
28 1 0.524464 0.584193 0.25
29 1 0.573245 0.612172 0.25
30 1 0.622172 0.52807 0.25
31 1 0.622137 0.584367 0.25
19 1 0.670683 0.443602 0.25
20 1 0.670683 0.499678 0.25
32 1 0.670161 0.613418 0.25
33 1 0.32942 0.415325 0.75
34 1 0.32927 0.471486 0.75
49 1 0.32927 0.585234 0.75
50 1 0.32942 0.641395 0.75
35 1 0.378234 0.387481 0.75
36 1 0.377731 0.500212 0.75
39 1 0.47565 0.387837 0.75
37 1 0.426819 0.41578 0.75
38 1 0.426691 0.472133 0.75
40 1 0.475568 0.500231 0.75
43 1 0.573245 0.387828 0.75
41 1 0.524464 0.415807 0.75
42 1 0.524437 0.472111 0.75
44 1 0.573318 0.500192 0.75
45 1 0.622137 0.415633 0.75
46 1 0.622172 0.47193 0.75
51 1 0.377731 0.556508 0.75
55 1 0.475568 0.556489 0.75
53 1 0.426691 0.584587 0.75
54 1 0.426819 0.64094 0.75
59 1 0.573318 0.556528 0.75
57 1 0.524437 0.584609 0.75
58 1 0.524464 0.640913 0.75
61 1 0.622172 0.58479 0.75
62 1 0.622137 0.641087 0.75
47 1 0.670161 0.386582 0.75
48 1 0.670683 0.500322 0.75
63 1 0.670683 0.556398 0.75
52 1 0.378234 0.669239 0.75
56 1 0.47565 0.668883 0.75
60 1 0.573245 0.668892 0.75
64 1 0.670161 0.670138 0.75
ITEM: TIMESTEP
700
ITEM: NUMBER OF ATOMS
64
ITEM: BOX BOUNDS pp pp pp
-1.2500000000000000e+01 1.2500000000000000e+01
-1.2500000000000000e+01 1.2500000000000000e+01
-1.5000000000000000e+01 1.5000000000000000e+01
ITEM: ATOMS id type xs ys zs
3 1 0.378234 0.330761 0.25
8 1 0.47565 0.331117 0.25
13 1 0.573245 0.331108 0.25
18 1 0.670161 0.329862 0.25
1 1 0.32942 0.358605 0.25
2 1 0.32927 0.414766 0.25
21 1 0.32927 0.528514 0.25
22 1 0.32942 0.584675 0.25
4 1 0.377731 0.443492 0.25
6 1 0.426819 0.35906 0.25
7 1 0.426691 0.415413 0.25
9 1 0.475568 0.443511 0.25
11 1 0.524464 0.359087 0.25
12 1 0.524437 0.415391 0.25
14 1 0.573318 0.443472 0.25
16 1 0.622137 0.358913 0.25
17 1 0.622172 0.41521 0.25
5 1 0.377731 0.499788 0.25
23 1 0.378234 0.612519 0.25
10 1 0.475568 0.499769 0.25
24 1 0.426691 0.527867 0.25
25 1 0.426819 0.58422 0.25
26 1 0.47565 0.612163 0.25
15 1 0.573318 0.499808 0.25
27 1 0.524437 0.527889 0.25
28 1 0.524464 0.584193 0.25
29 1 0.573245 0.612172 0.25
30 1 0.622172 0.52807 0.25
31 1 0.622137 0.584367 0.25
19 1 0.670683 0.443602 0.25
20 1 0.670683 0.499678 0.25
32 1 0.670161 0.613418 0.25
33 1 0.32942 0.415325 0.75
34 1 0.32927 0.471486 0.75
49 1 0.32927 0.585234 0.75
50 1 0.32942 0.641395 0.75
35 1 0.378234 0.387481 0.75
36 1 0.377731 0.500212 0.75
39 1 0.47565 0.387837 0.75
37 1 0.426819 0.41578 0.75
38 1 0.426691 0.472133 0.75
40 1 0.475568 0.500231 0.75
43 1 0.573245 0.387828 0.75
41 1 0.524464 0.415807 0.75
42 1 0.524437 0.472111 0.75
44 1 0.573318 0.500192 0.75
45 1 0.622137 0.415633 0.75
46 1 0.622172 0.47193 0.75
51 1 0.377731 0.556508 0.75
55 1 0.475568 0.556489 0.75
53 1 0.426691 0.584587 0.75
54 1 0.426819 0.64094 0.75
59 1 0.573318 0.556528 0.75
57 1 0.524437 0.584609 0.75
58 1 0.524464 0.640913 0.75
61 1 0.622172 0.58479 0.75
62 1 0.622137 0.641087 0.75
47 1 0.670161 0.386582 0.75
48 1 0.670683 0.500322 0.75
63 1 0.670683 0.556398 0.75
52 1 0.378234 0.669239 0.75
56 1 0.47565 0.668883 0.75
60 1 0.573245 0.668892 0.75
64 1 0.670161 0.670138 0.75
ITEM: TIMESTEP
800
ITEM: NUMBER OF ATOMS
64
ITEM: BOX BOUNDS pp pp pp
-1.2500000000000000e+01 1.2500000000000000e+01
-1.2500000000000000e+01 1.2500000000000000e+01
-1.5000000000000000e+01 1.5000000000000000e+01
ITEM: ATOMS id type xs ys zs
3 1 0.378234 0.330761 0.25
8 1 0.47565 0.331117 0.25
13 1 0.573245 0.331108 0.25
18 1 0.670161 0.329862 0.25
1 1 0.32942 0.358605 0.25
2 1 0.32927 0.414766 0.25
21 1 0.32927 0.528514 0.25
22 1 0.32942 0.584675 0.25
4 1 0.377731 0.443492 0.25
6 1 0.426819 0.35906 0.25
7 1 0.426691 0.415413 0.25
9 1 0.475568 0.443511 0.25
11 1 0.524464 0.359087 0.25
12 1 0.524437 0.415391 0.25
14 1 0.573318 0.443472 0.25
16 1 0.622137 0.358913 0.25
17 1 0.622172 0.41521 0.25
5 1 0.377731 0.499788 0.25
23 1 0.378234 0.612519 0.25
10 1 0.475568 0.499769 0.25
24 1 0.426691 0.527867 0.25
25 1 0.426819 0.58422 0.25
26 1 0.47565 0.612163 0.25
15 1 0.573318 0.499808 0.25
27 1 0.524437 0.527889 0.25
28 1 0.524464 0.584193 0.25
29 1 0.573245 0.612172 0.25
30 1 0.622172 0.52807 0.25
31 1 0.622137 0.584367 0.25
19 1 0.670683 0.443602 0.25
20 1 0.670683 0.499678 0.25
32 1 0.670161 0.613418 0.25
33 1 0.32942 0.415325 0.75
34 1 0.32927 0.471486 0.75
49 1 0.32927 0.585234 0.75
50 1 0.32942 0.641395 0.75
35 1 0.378234 0.387481 0.75
36 1 0.377731 0.500212 0.75
39 1 0.47565 0.387837 0.75
37 1 0.426819 0.41578 0.75
38 1 0.426691 0.472133 0.75
40 1 0.475568 0.500231 0.75
43 1 0.573245 0.387828 0.75
41 1 0.524464 0.415807 0.75
42 1 0.524437 0.472111 0.75
44 1 0.573318 0.500192 0.75
45 1 0.622137 0.415633 0.75
46 1 0.622172 0.47193 0.75
51 1 0.377731 0.556508 0.75
55 1 0.475568 0.556489 0.75
53 1 0.426691 0.584587 0.75
54 1 0.426819 0.64094 0.75
59 1 0.573318 0.556528 0.75
57 1 0.524437 0.584609 0.75
58 1 0.524464 0.640913 0.75
61 1 0.622172 0.58479 0.75
62 1 0.622137 0.641087 0.75
47 1 0.670161 0.386582 0.75
48 1 0.670683 0.500322 0.75
63 1 0.670683 0.556398 0.75
52 1 0.378234 0.669239 0.75
56 1 0.47565 0.668883 0.75
60 1 0.573245 0.668892 0.75
64 1 0.670161 0.670138 0.75
ITEM: TIMESTEP
900
ITEM: NUMBER OF ATOMS
64
ITEM: BOX BOUNDS pp pp pp
-1.2500000000000000e+01 1.2500000000000000e+01
-1.2500000000000000e+01 1.2500000000000000e+01
-1.5000000000000000e+01 1.5000000000000000e+01
ITEM: ATOMS id type xs ys zs
3 1 0.378234 0.330761 0.25
8 1 0.47565 0.331117 0.25
13 1 0.573245 0.331108 0.25
18 1 0.670161 0.329862 0.25
1 1 0.32942 0.358605 0.25
2 1 0.32927 0.414766 0.25
21 1 0.32927 0.528514 0.25
22 1 0.32942 0.584675 0.25
4 1 0.377731 0.443492 0.25
6 1 0.426819 0.35906 0.25
7 1 0.426691 0.415413 0.25
9 1 0.475568 0.443511 0.25
11 1 0.524464 0.359087 0.25
12 1 0.524437 0.415391 0.25
14 1 0.573318 0.443472 0.25
16 1 0.622137 0.358913 0.25
17 1 0.622172 0.41521 0.25
5 1 0.377731 0.499788 0.25
23 1 0.378234 0.612519 0.25
10 1 0.475568 0.499769 0.25
24 1 0.426691 0.527867 0.25
25 1 0.426819 0.58422 0.25
26 1 0.47565 0.612163 0.25
15 1 0.573318 0.499808 0.25
27 1 0.524437 0.527889 0.25
28 1 0.524464 0.584193 0.25
29 1 0.573245 0.612172 0.25
30 1 0.622172 0.52807 0.25
31 1 0.622137 0.584367 0.25
19 1 0.670683 0.443602 0.25
20 1 0.670683 0.499678 0.25
32 1 0.670161 0.613418 0.25
33 1 0.32942 0.415325 0.75
34 1 0.32927 0.471486 0.75
49 1 0.32927 0.585234 0.75
50 1 0.32942 0.641395 0.75
35 1 0.378234 0.387481 0.75
36 1 0.377731 0.500212 0.75
39 1 0.47565 0.387837 0.75
37 1 0.426819 0.41578 0.75
38 1 0.426691 0.472133 0.75
40 1 0.475568 0.500231 0.75
43 1 0.573245 0.387828 0.75
41 1 0.524464 0.415807 0.75
42 1 0.524437 0.472111 0.75
44 1 0.573318 0.500192 0.75
45 1 0.622137 0.415633 0.75
46 1 0.622172 0.47193 0.75
51 1 0.377731 0.556508 0.75
55 1 0.475568 0.556489 0.75
53 1 0.426691 0.584587 0.75
54 1 0.426819 0.64094 0.75
59 1 0.573318 0.556528 0.75
57 1 0.524437 0.584609 0.75
58 1 0.524464 0.640913 0.75
61 1 0.622172 0.58479 0.75
62 1 0.622137 0.641087 0.75
47 1 0.670161 0.386582 0.75
48 1 0.670683 0.500322 0.75
63 1 0.670683 0.556398 0.75
52 1 0.378234 0.669239 0.75
56 1 0.47565 0.668883 0.75
60 1 0.573245 0.668892 0.75
64 1 0.670161 0.670138 0.75
ITEM: TIMESTEP
1000
ITEM: NUMBER OF ATOMS
64
ITEM: BOX BOUNDS pp pp pp
-1.2500000000000000e+01 1.2500000000000000e+01
-1.2500000000000000e+01 1.2500000000000000e+01
-1.5000000000000000e+01 1.5000000000000000e+01
ITEM: ATOMS id type xs ys zs
3 1 0.378234 0.330761 0.25
8 1 0.47565 0.331117 0.25
13 1 0.573245 0.331108 0.25
18 1 0.670161 0.329862 0.25
1 1 0.32942 0.358605 0.25
2 1 0.32927 0.414766 0.25
21 1 0.32927 0.528514 0.25
22 1 0.32942 0.584675 0.25
4 1 0.377731 0.443492 0.25
6 1 0.426819 0.35906 0.25
7 1 0.426691 0.415413 0.25
9 1 0.475568 0.443511 0.25
11 1 0.524464 0.359087 0.25
12 1 0.524437 0.415391 0.25
14 1 0.573318 0.443472 0.25
16 1 0.622137 0.358913 0.25
17 1 0.622172 0.41521 0.25
5 1 0.377731 0.499788 0.25
23 1 0.378234 0.612519 0.25
10 1 0.475568 0.499769 0.25
24 1 0.426691 0.527867 0.25
25 1 0.426819 0.58422 0.25
26 1 0.47565 0.612163 0.25
15 1 0.573318 0.499808 0.25
27 1 0.524437 0.527889 0.25
28 1 0.524464 0.584193 0.25
29 1 0.573245 0.612172 0.25
30 1 0.622172 0.52807 0.25
31 1 0.622137 0.584367 0.25
19 1 0.670683 0.443602 0.25
20 1 0.670683 0.499678 0.25
32 1 0.670161 0.613418 0.25
33 1 0.32942 0.415325 0.75
34 1 0.32927 0.471486 0.75
49 1 0.32927 0.585234 0.75
50 1 0.32942 0.641395 0.75
35 1 0.378234 0.387481 0.75
36 1 0.377731 0.500212 0.75
39 1 0.47565 0.387837 0.75
37 1 0.426819 0.41578 0.75
38 1 0.426691 0.472133 0.75
40 1 0.475568 0.500231 0.75
43 1 0.573245 0.387828 0.75
41 1 0.524464 0.415807 0.75
42 1 0.524437 0.472111 0.75
44 1 0.573318 0.500192 0.75
45 1 0.622137 0.415633 0.75
46 1 0.622172 0.47193 0.75
51 1 0.377731 0.556508 0.75
55 1 0.475568 0.556489 0.75
53 1 0.426691 0.584587 0.75
54 1 0.426819 0.64094 0.75
59 1 0.573318 0.556528 0.75
57 1 0.524437 0.584609 0.75
58 1 0.524464 0.640913 0.75
61 1 0.622172 0.58479 0.75
62 1 0.622137 0.641087 0.75
47 1 0.670161 0.386582 0.75
48 1 0.670683 0.500322 0.75
63 1 0.670683 0.556398 0.75
52 1 0.378234 0.669239 0.75
56 1 0.47565 0.668883 0.75
60 1 0.573245 0.668892 0.75
64 1 0.670161 0.670138 0.75
ITEM: TIMESTEP
1007
ITEM: NUMBER OF ATOMS
64
ITEM: BOX BOUNDS pp pp pp
-1.2500000000000000e+01 1.2500000000000000e+01
-1.2500000000000000e+01 1.2500000000000000e+01
-1.5000000000000000e+01 1.5000000000000000e+01
ITEM: ATOMS id type xs ys zs
3 1 0.378245 0.330768 0.25
8 1 0.475659 0.331108 0.25
13 1 0.573232 0.331099 0.25
18 1 0.670137 0.329869 0.25
1 1 0.329451 0.358598 0.25
2 1 0.329281 0.414786 0.25
21 1 0.329281 0.528494 0.25
22 1 0.329451 0.584682 0.25
4 1 0.377727 0.443447 0.25
6 1 0.426849 0.359034 0.25
7 1 0.426683 0.415417 0.25
9 1 0.475566 0.443497 0.25
11 1 0.524445 0.359083 0.25
12 1 0.524439 0.415395 0.25
14 1 0.573324 0.443447 0.25
16 1 0.62209 0.358869 0.25
17 1 0.622176 0.415223 0.25
5 1 0.377727 0.499833 0.25
23 1 0.378245 0.612512 0.25
10 1 0.475566 0.499783 0.25
24 1 0.426683 0.527863 0.25
25 1 0.426849 0.584246 0.25
26 1 0.475659 0.612172 0.25
15 1 0.573324 0.499833 0.25
27 1 0.524439 0.527885 0.25
28 1 0.524445 0.584197 0.25
29 1 0.573232 0.612181 0.25
30 1 0.622176 0.528057 0.25
31 1 0.62209 0.584411 0.25
19 1 0.670694 0.443592 0.25
20 1 0.670694 0.499688 0.25
32 1 0.670137 0.613411 0.25
33 1 0.329451 0.415318 0.75
34 1 0.329281 0.471506 0.75
49 1 0.329281 0.585214 0.75
50 1 0.329451 0.641402 0.75
35 1 0.378245 0.387488 0.75
36 1 0.377727 0.500167 0.75
39 1 0.475659 0.387828 0.75
37 1 0.426849 0.415754 0.75
38 1 0.426683 0.472137 0.75
40 1 0.475566 0.500217 0.75
43 1 0.573232 0.387819 0.75
41 1 0.524445 0.415803 0.75
42 1 0.524439 0.472115 0.75
44 1 0.573324 0.500167 0.75
45 1 0.62209 0.415589 0.75
46 1 0.622176 0.471943 0.75
51 1 0.377727 0.556553 0.75
55 1 0.475566 0.556503 0.75
53 1 0.426683 0.584583 0.75
54 1 0.426849 0.640966 0.75
59 1 0.573324 0.556553 0.75
57 1 0.524439 0.584605 0.75
58 1 0.524445 0.640917 0.75
61 1 0.622176 0.584777 0.75
62 1 0.62209 0.641131 0.75
47 1 0.670137 0.386589 0.75
48 1 0.670694 0.500312 0.75
63 1 0.670694 0.556408 0.75
52 1 0.378245 0.669232 0.75
56 1 0.475659 0.668892 0.75
60 1 0.573232 0.668901 0.75
64 1 0.670137 0.670131 0.75
ITEM: TIMESTEP
1100
ITEM: NUMBER OF ATOMS
64
ITEM: BOX BOUNDS pp pp pp
-1.2500000000000000e+01 1.2500000000000000e+01
-1.2500000000000000e+01 1.2500000000000000e+01
-1.5000000000000000e+01 1.5000000000000000e+01
ITEM: ATOMS id type xs ys zs
3 1 0.378245 0.330768 0.25
8 1 0.475659 0.331108 0.25
13 1 0.573232 0.331099 0.25
18 1 0.670137 0.329869 0.25
1 1 0.329451 0.358598 0.25
2 1 0.329281 0.414786 0.25
21 1 0.329281 0.528494 0.25
22 1 0.329451 0.584682 0.25
4 1 0.377727 0.443447 0.25
6 1 0.426849 0.359034 0.25
7 1 0.426683 0.415417 0.25
9 1 0.475566 0.443497 0.25
11 1 0.524445 0.359083 0.25
12 1 0.524439 0.415395 0.25
14 1 0.573324 0.443447 0.25
16 1 0.62209 0.358869 0.25
17 1 0.622176 0.415223 0.25
5 1 0.377727 0.499833 0.25
23 1 0.378245 0.612512 0.25
10 1 0.475566 0.499783 0.25
24 1 0.426683 0.527863 0.25
25 1 0.426849 0.584246 0.25
26 1 0.475659 0.612172 0.25
15 1 0.573324 0.499833 0.25
27 1 0.524439 0.527885 0.25
28 1 0.524445 0.584197 0.25
29 1 0.573232 0.612181 0.25
30 1 0.622176 0.528057 0.25
31 1 0.62209 0.584411 0.25
19 1 0.670694 0.443592 0.25
20 1 0.670694 0.499688 0.25
32 1 0.670137 0.613411 0.25
33 1 0.329451 0.415318 0.75
34 1 0.329281 0.471506 0.75
49 1 0.329281 0.585214 0.75
50 1 0.329451 0.641402 0.75
35 1 0.378245 0.387488 0.75
36 1 0.377727 0.500167 0.75
39 1 0.475659 0.387828 0.75
37 1 0.426849 0.415754 0.75
38 1 0.426683 0.472137 0.75
40 1 0.475566 0.500217 0.75
43 1 0.573232 0.387819 0.75
41 1 0.524445 0.415803 0.75
42 1 0.524439 0.472115 0.75
44 1 0.573324 0.500167 0.75
45 1 0.62209 0.415589 0.75
46 1 0.622176 0.471943 0.75
51 1 0.377727 0.556553 0.75
55 1 0.475566 0.556503 0.75
53 1 0.426683 0.584583 0.75
54 1 0.426849 0.640966 0.75
59 1 0.573324 0.556553 0.75
57 1 0.524439 0.584605 0.75
58 1 0.524445 0.640917 0.75
61 1 0.622176 0.584777 0.75
62 1 0.62209 0.641131 0.75
47 1 0.670137 0.386589 0.75
48 1 0.670694 0.500312 0.75
63 1 0.670694 0.556408 0.75
52 1 0.378245 0.669232 0.75
56 1 0.475659 0.668892 0.75