LAMMPS data file via write_data, version 27 Jun 2024, timestep = 1507, units = real

64 atoms
1 atom types
80 bonds
1 bond types
132 angles
1 angle types
218 dihedrals
1 dihedral types
36 impropers
1 improper types

-12.5 12.5 xlo xhi
-12.5 12.5 ylo yhi
-15 15 zlo zhi

Masses

1 12.0107

Atoms # molecular

3 1 1 -3.04387660330445 -4.230791264747781 -7.5 0 0 0
8 5 1 -0.608537171695702 -4.222295591150306 -7.5 0 0 0
13 9 1 1.8307925046603983 -4.222535569780389 -7.5 0 0 0
18 13 1 4.25342587166918 -4.25326996956069 -7.5 0 0 0
1 2 1 -4.263722011640973 -3.5350588439878656 -7.5 0 0 0
2 3 1 -4.267974279406628 -2.130341431073695 -7.5 0 0 0
21 18 1 -4.267974279406662 0.712341431073718 -7.5 0 0 0
22 19 1 -4.263722011640987 2.117058843987864 -7.5 0 0 0
4 4 1 -3.056821847482504 -1.4138365326095121 -7.5 0 0 0
6 6 1 -1.8287708351762064 -3.524139489244541 -7.5 0 0 0
7 7 1 -1.8329184455672571 -2.1145751898345124 -7.5 0 0 0
9 8 1 -0.6108517660414701 -1.4125708272298234 -7.5 0 0 0
11 10 1 0.6111338515182488 -3.522927419408732 -7.5 0 0 0
12 11 1 0.6109868685458213 -2.115121612354083 -7.5 0 0 0
14 12 1 1.8331074452839136 -1.413824416058474 -7.5 0 0 0
16 14 1 3.05225983911307 -3.528265853277089 -7.5 0 0 0
17 15 1 3.0544082097197105 -2.1194173067542237 -7.5 0 0 0
5 17 1 -3.0568218474824396 -0.004163467390482843 -7.5 0 0 0
23 20 1 -3.0438766033044655 2.8127912647478226 -7.5 0 0 0
10 21 1 -0.6108517660414554 -0.005429172770175692 -7.5 0 0 0
24 22 1 -1.8329184455672767 0.6965751898345114 -7.5 0 0 0
25 23 1 -1.8287708351762024 2.106139489244588 -7.5 0 0 0
26 24 1 -0.6085371716956792 2.8042955911502876 -7.5 0 0 0
15 25 1 1.833107445283841 -0.00417558394152391 -7.5 0 0 0
27 26 1 0.6109868685458911 0.6971216123540102 -7.5 0 0 0
28 27 1 0.611133851518211 2.1049274194087224 -7.5 0 0 0
29 28 1 1.8307925046604057 2.804535569780416 -7.5 0 0 0
30 30 1 3.0544082097197873 0.7014173067542048 -7.5 0 0 0
31 31 1 3.0522598391129763 2.1102658532770344 -7.5 0 0 0
19 16 1 4.267358369804905 -1.410204035528048 -7.5 0 0 0
20 29 1 4.2673583698048745 -0.007795964471945907 -7.5 0 0 0
32 32 1 4.2534258716691316 2.835269969560724 -7.5 0 0 0
33 34 1 -4.263722011641035 -2.117058843987819 7.5 0 0 0
34 35 1 -4.267974279406641 -0.7123414310736841 7.5 0 0 0
49 50 1 -4.267974279406648 2.130341431073704 7.5 0 0 0
50 51 1 -4.263722011640996 3.5350588439878474 7.5 0 0 0
35 33 1 -3.043876603304476 -2.8127912647477302 7.5 0 0 0
36 36 1 -3.0568218474825284 0.004163467390556026 7.5 0 0 0
39 37 1 -0.6085371716956472 -2.8042955911502543 7.5 0 0 0
37 38 1 -1.8287708351762257 -2.106139489244595 7.5 0 0 0
38 39 1 -1.8329184455672263 -0.6965751898345175 7.5 0 0 0
40 40 1 -0.610851766041479 0.005429172770187687 7.5 0 0 0
43 41 1 1.8307925046604572 -2.804535569780352 7.5 0 0 0
41 42 1 0.6111338515182726 -2.1049274194087757 7.5 0 0 0
42 43 1 0.6109868685458606 -0.6971216123541092 7.5 0 0 0
44 44 1 1.8331074452838485 0.004175583941543764 7.5 0 0 0
45 46 1 3.052259839113031 -2.110265853277057 7.5 0 0 0
46 47 1 3.0544082097197665 -0.7014173067541832 7.5 0 0 0
51 49 1 -3.05682184748247 1.413836532609472 7.5 0 0 0
55 53 1 -0.6108517660414993 1.41257082722978 7.5 0 0 0
53 54 1 -1.8329184455672516 2.114575189834541 7.5 0 0 0
54 55 1 -1.8287708351762113 3.5241394892445563 7.5 0 0 0
59 57 1 1.8331074452838878 1.4138244160584872 7.5 0 0 0
57 58 1 0.6109868685458109 2.1151216123540246 7.5 0 0 0
58 59 1 0.6111338515182214 3.5229274194087337 7.5 0 0 0
61 62 1 3.05440820971973 2.119417306754183 7.5 0 0 0
62 63 1 3.052259839113065 3.5282658532770803 7.5 0 0 0
47 45 1 4.2534258716691555 -2.835269969560727 7.5 0 0 0
48 48 1 4.267358369804925 0.007795964471969283 7.5 0 0 0
63 61 1 4.26735836980491 1.4102040355280625 7.5 0 0 0
52 52 1 -3.0438766033044686 4.230791264747765 7.5 0 0 0
56 56 1 -0.6085371716956659 4.222295591150274 7.5 0 0 0
60 60 1 1.830792504660397 4.222535569780341 7.5 0 0 0
64 64 1 4.253425871669141 4.253269969560705 7.5 0 0 0

Velocities

3 0.0006829041575851429 0.00867521545112292 -0.0027656525295079964
8 0.004738701927636377 0.0015265882111003088 -0.005309845071364816
13 0.007742898603973609 -0.0025393927551687024 0.0009529822695563036
18 -0.0006991236648529953 -0.003629399251630535 -0.0016099732995082119
1 -0.0053417677237593926 0.0020323934916938323 0.0020234694113383913
2 0.005840424757273686 -0.004350456339767553 0.0021955918144815146
21 0.002451640528521341 0.006623337527504986 0.007102456001016246
22 0.00016829033671003873 -0.00150843843114281 0.0030181783653630847
4 -0.003684579326343422 -0.004625209427054348 0.0006901433520507022
6 -0.0034342860586371476 0.006497384818545261 -0.0026938860108921604
7 -0.0017325925342942339 -0.0026221557638778795 0.0004673293468140231
9 -0.0006739798246376555 -0.0006970293020621395 0.00904407694320765
11 0.004515108582930511 0.009347734176786882 0.0019058098971604688
12 0.01388600009372737 -0.0018778828577115053 0.0035991900238316436
14 0.007572581227877805 -0.007379164445069229 0.0036544940600775704
16 0.00246910255857587 0.008597288158869062 -0.0024586299610417635
17 -0.0031971554352188316 0.002850200704289526 0.0005945449253751877
5 -0.002750424964308531 -0.004354604082023552 0.001710229415615127
23 0.000681959524917679 0.005597817847905109 -0.010737263167654342
10 -0.005880120482768208 -0.010275384908166096 0.0071303820836170215
24 0.008827407060388114 -0.008883369794026597 0.0001278084686360795
25 -0.0013029281754507653 -0.004877043240020341 0.0010500971685477693
26 0.0028725642335758997 0.0024476672156058003 -0.0023437560667396965
15 -0.004002479436987339 0.004376991592323503 -0.0007362272802707058
27 -0.011123687939517164 0.0004393516717329892 -0.004689582609400911
28 -0.0025020747901356383 -0.00996251472836342 -0.005534725486400179
29 -0.005392287693428672 -0.0028142474820514562 -0.0020912633172636705
30 0.00019127906959627873 -0.0031101763265995726 -0.002100283352469899
31 -0.004520728579909609 0.0014258154508999968 0.006312119767787501
19 -0.0037828333532089146 -0.005163596400219898 -0.007787900871679105
20 0.0016987070273281285 0.0031902904076939746 0.0009190076385685191
32 -0.004201358385654243 0.004803250582931543 -0.001893503299721907
33 -0.0013601206042267876 -0.0013928673999579987 -0.00024787827986089996
34 -0.003248451558145457 0.004105419156611897 0.000979265494328379
49 -0.0005624336942354947 0.0007933477212254114 0.002414766149687972
50 0.002227154091877987 0.0018563432116946478 0.003141010733200767
35 0.0004562447939414658 -0.0039102842952228305 0.0009623990201222263
36 0.002221183024203527 -0.00014568389285914745 -0.005771433643098254
39 -0.0049044837283673814 0.00690148199629027 0.00074778700920128
37 -0.0034930343461589378 -0.0028658566381772935 -0.008655314681171377
38 -0.003516203501989311 -0.004833983048412084 -0.000693180041967918
40 -0.0002677226935008191 0.010618815513384514 0.0010068250124476987
43 0.0008752509379205373 0.0007522951547685273 0.003448486655756283
41 0.009268963890128691 0.0032997660611527122 -0.0057444004961514
42 -0.002282022589229909 0.0020718798919976294 0.003271452091175024
44 0.0064478960558606415 0.005962489250014991 -0.007529684144048477
45 0.003796489382453159 0.0037460906128670038 -0.007697817715380136
46 0.0009501899839028231 -0.004528281865469959 -0.001975588650837034
51 -0.003145813709903288 -0.0032345087270192405 -0.0051194172121319026
55 -0.0005018800097758262 0.0007104490238880109 0.0036299682195741236
53 -0.00364163238879602 -2.948696044215984e-05 0.0024755532394885415
54 -0.00494936423308012 0.0021777505076964613 -0.003515157602567233
59 0.0019484204741793175 -0.007511606668581236 0.0027647236610962712
57 -0.0022556507997600708 -0.008611870772278814 0.005632604143448754
58 0.004801483514640338 -0.00036731111473834615 0.004211855909696146
61 0.0025501406466347225 0.0011542116668566578 -0.0021813743574751127
62 0.00011408441550272205 0.005902532705944702 0.005654540268994953
47 -0.006074222169593521 -0.0028454144585111085 0.0030167834490662858
48 4.967799554019214e-05 -0.00040800175490193183 -0.0020480622671961023
63 0.004861138526857158 -0.0008082307764403782 0.00908766464637566
52 0.006623588434547325 -0.005676358149938737 -0.0005179771396792186
56 0.000745988172660287 0.0024515270702800056 -0.0026329090281347533
60 -0.0030189153803430553 0.0034518636935028583 0.002082890237549328
64 -0.004833104255249966 0.0014522215107248989 5.620068936070564e-05

Bonds

1 1 3 1
2 1 3 6
3 1 8 6
4 1 8 11
5 1 13 16
6 1 13 11
7 1 18 16
8 1 1 2
9 1 2 4
10 1 21 22
11 1 22 23
12 1 4 7
13 1 4 5
14 1 6 7
15 1 7 9
16 1 9 12
17 1 9 10
18 1 11 12
19 1 12 14
20 1 14 17
21 1 14 15
22 1 16 17
23 1 17 19
24 1 5 21
25 1 5 24
26 1 23 25
27 1 10 24
28 1 10 27
29 1 24 25
30 1 25 26
31 1 26 28
32 1 15 30
33 1 15 27
34 1 27 28
35 1 28 29
36 1 29 31
37 1 30 31
38 1 31 32
39 1 19 20
40 1 20 30
41 1 33 34
42 1 34 36
43 1 49 50
44 1 50 52
45 1 35 33
46 1 35 37
47 1 36 51
48 1 36 38
49 1 39 37
50 1 39 41
51 1 37 38
52 1 38 40
53 1 40 55
54 1 40 42
55 1 43 45
56 1 43 41
57 1 41 42
58 1 42 44
59 1 44 59
60 1 44 46
61 1 45 46
62 1 46 48
63 1 51 49
64 1 51 53
65 1 55 53
66 1 55 57
67 1 53 54
68 1 54 56
69 1 59 61
70 1 59 57
71 1 57 58
72 1 58 60
73 1 61 62
74 1 62 64
75 1 47 45
76 1 48 63
77 1 63 61
78 1 52 54
79 1 56 58
80 1 60 62

Angles

1 1 1 3 6
2 1 6 8 11
3 1 11 13 16
4 1 3 1 2
5 1 1 2 4
6 1 5 21 22
7 1 21 22 23
8 1 2 4 7
9 1 2 4 5
10 1 7 4 5
11 1 3 6 8
12 1 3 6 7
13 1 8 6 7
14 1 4 7 6
15 1 4 7 9
16 1 6 7 9
17 1 7 9 12
18 1 7 9 10
19 1 12 9 10
20 1 8 11 13
21 1 8 11 12
22 1 13 11 12
23 1 9 12 11
24 1 9 12 14
25 1 11 12 14
26 1 12 14 17
27 1 12 14 15
28 1 17 14 15
29 1 13 16 18
30 1 13 16 17
31 1 18 16 17
32 1 14 17 16
33 1 14 17 19
34 1 16 17 19
35 1 4 5 21
36 1 4 5 24
37 1 21 5 24
38 1 22 23 25
39 1 9 10 24
40 1 9 10 27
41 1 24 10 27
42 1 5 24 10
43 1 5 24 25
44 1 10 24 25
45 1 23 25 24
46 1 23 25 26
47 1 24 25 26
48 1 25 26 28
49 1 14 15 30
50 1 14 15 27
51 1 27 15 30
52 1 10 27 15
53 1 10 27 28
54 1 15 27 28
55 1 26 28 27
56 1 26 28 29
57 1 27 28 29
58 1 28 29 31
59 1 15 30 20
60 1 15 30 31
61 1 20 30 31
62 1 29 31 30
63 1 29 31 32
64 1 30 31 32
65 1 17 19 20
66 1 19 20 30
67 1 35 33 34
68 1 33 34 36
69 1 51 49 50
70 1 49 50 52
71 1 33 35 37
72 1 34 36 51
73 1 34 36 38
74 1 38 36 51
75 1 37 39 41
76 1 35 37 39
77 1 35 37 38
78 1 39 37 38
79 1 36 38 37
80 1 36 38 40
81 1 37 38 40
82 1 38 40 55
83 1 38 40 42
84 1 42 40 55
85 1 41 43 45
86 1 39 41 43
87 1 39 41 42
88 1 43 41 42
89 1 40 42 41
90 1 40 42 44
91 1 41 42 44
92 1 42 44 59
93 1 42 44 46
94 1 46 44 59
95 1 43 45 47
96 1 43 45 46
97 1 47 45 46
98 1 44 46 45
99 1 44 46 48
100 1 45 46 48
101 1 36 51 49
102 1 36 51 53
103 1 49 51 53
104 1 40 55 53
105 1 40 55 57
106 1 53 55 57
107 1 51 53 55
108 1 51 53 54
109 1 55 53 54
110 1 52 54 53
111 1 52 54 56
112 1 53 54 56
113 1 44 59 61
114 1 44 59 57
115 1 57 59 61
116 1 55 57 59
117 1 55 57 58
118 1 59 57 58
119 1 56 58 57
120 1 56 58 60
121 1 57 58 60
122 1 59 61 63
123 1 59 61 62
124 1 63 61 62
125 1 60 62 61
126 1 60 62 64
127 1 61 62 64
128 1 46 48 63
129 1 48 63 61
130 1 50 52 54
131 1 54 56 58
132 1 58 60 62

Dihedrals

1 1 6 3 1 2
2 1 1 3 6 8
3 1 1 3 6 7
4 1 11 8 6 3
5 1 11 8 6 7
6 1 6 8 11 13
7 1 6 8 11 12
8 1 11 13 16 18
9 1 11 13 16 17
10 1 16 13 11 8
11 1 16 13 11 12
12 1 3 1 2 4
13 1 1 2 4 7
14 1 1 2 4 5
15 1 5 21 22 23
16 1 21 22 23 25
17 1 2 4 7 6
18 1 2 4 7 9
19 1 5 4 7 6
20 1 5 4 7 9
21 1 2 4 5 21
22 1 2 4 5 24
23 1 7 4 5 21
24 1 7 4 5 24
25 1 3 6 7 4
26 1 3 6 7 9
27 1 8 6 7 4
28 1 8 6 7 9
29 1 4 7 9 12
30 1 4 7 9 10
31 1 6 7 9 12
32 1 6 7 9 10
33 1 7 9 12 11
34 1 7 9 12 14
35 1 10 9 12 11
36 1 10 9 12 14
37 1 7 9 10 24
38 1 7 9 10 27
39 1 12 9 10 24
40 1 12 9 10 27
41 1 8 11 12 9
42 1 8 11 12 14
43 1 13 11 12 9
44 1 13 11 12 14
45 1 9 12 14 17
46 1 9 12 14 15
47 1 11 12 14 17
48 1 11 12 14 15
49 1 12 14 17 16
50 1 12 14 17 19
51 1 15 14 17 16
52 1 15 14 17 19
53 1 12 14 15 30
54 1 12 14 15 27
55 1 17 14 15 30
56 1 17 14 15 27
57 1 13 16 17 14
58 1 13 16 17 19
59 1 18 16 17 14
60 1 18 16 17 19
61 1 14 17 19 20
62 1 16 17 19 20
63 1 4 5 21 22
64 1 24 5 21 22
65 1 4 5 24 10
66 1 4 5 24 25
67 1 21 5 24 10
68 1 21 5 24 25
69 1 22 23 25 24
70 1 22 23 25 26
71 1 9 10 24 5
72 1 9 10 24 25
73 1 27 10 24 5
74 1 27 10 24 25
75 1 9 10 27 15
76 1 9 10 27 28
77 1 24 10 27 15
78 1 24 10 27 28
79 1 5 24 25 23
80 1 5 24 25 26
81 1 10 24 25 23
82 1 10 24 25 26
83 1 23 25 26 28
84 1 24 25 26 28
85 1 25 26 28 27
86 1 25 26 28 29
87 1 14 15 30 20
88 1 14 15 30 31
89 1 27 15 30 20
90 1 27 15 30 31
91 1 14 15 27 10
92 1 14 15 27 28
93 1 30 15 27 10
94 1 30 15 27 28
95 1 10 27 28 26
96 1 10 27 28 29
97 1 15 27 28 26
98 1 15 27 28 29
99 1 26 28 29 31
100 1 27 28 29 31
101 1 28 29 31 30
102 1 28 29 31 32
103 1 15 30 31 29
104 1 15 30 31 32
105 1 20 30 31 29
106 1 20 30 31 32
107 1 17 19 20 30
108 1 19 20 30 15
109 1 19 20 30 31
110 1 35 33 34 36
111 1 33 34 36 51
112 1 33 34 36 38
113 1 51 49 50 52
114 1 49 50 52 54
115 1 37 35 33 34
116 1 33 35 37 39
117 1 33 35 37 38
118 1 34 36 51 49
119 1 34 36 51 53
120 1 38 36 51 49
121 1 38 36 51 53
122 1 34 36 38 37
123 1 34 36 38 40
124 1 51 36 38 37
125 1 51 36 38 40
126 1 41 39 37 35
127 1 41 39 37 38
128 1 37 39 41 43
129 1 37 39 41 42
130 1 35 37 38 36
131 1 35 37 38 40
132 1 39 37 38 36
133 1 39 37 38 40
134 1 36 38 40 55
135 1 36 38 40 42
136 1 37 38 40 55
137 1 37 38 40 42
138 1 38 40 55 53
139 1 38 40 55 57
140 1 42 40 55 53
141 1 42 40 55 57
142 1 38 40 42 41
143 1 38 40 42 44
144 1 55 40 42 41
145 1 55 40 42 44
146 1 41 43 45 47
147 1 41 43 45 46
148 1 45 43 41 39
149 1 45 43 41 42
150 1 39 41 42 40
151 1 39 41 42 44
152 1 43 41 42 40
153 1 43 41 42 44
154 1 40 42 44 59
155 1 40 42 44 46
156 1 41 42 44 59
157 1 41 42 44 46
158 1 42 44 59 61
159 1 42 44 59 57
160 1 46 44 59 61
161 1 46 44 59 57
162 1 42 44 46 45
163 1 42 44 46 48
164 1 59 44 46 45
165 1 59 44 46 48
166 1 43 45 46 44
167 1 43 45 46 48
168 1 47 45 46 44
169 1 47 45 46 48
170 1 44 46 48 63
171 1 45 46 48 63
172 1 36 51 49 50
173 1 53 51 49 50
174 1 36 51 53 55
175 1 36 51 53 54
176 1 49 51 53 55
177 1 49 51 53 54
178 1 40 55 53 51
179 1 40 55 53 54
180 1 57 55 53 51
181 1 57 55 53 54
182 1 40 55 57 59
183 1 40 55 57 58
184 1 53 55 57 59
185 1 53 55 57 58
186 1 51 53 54 52
187 1 51 53 54 56
188 1 55 53 54 52
189 1 55 53 54 56
190 1 52 54 56 58
191 1 53 54 56 58
192 1 44 59 61 63
193 1 44 59 61 62
194 1 57 59 61 63
195 1 57 59 61 62
196 1 44 59 57 55
197 1 44 59 57 58
198 1 61 59 57 55
199 1 61 59 57 58
200 1 55 57 58 56
201 1 55 57 58 60
202 1 59 57 58 56
203 1 59 57 58 60
204 1 56 58 60 62
205 1 57 58 60 62
206 1 59 61 62 60
207 1 59 61 62 64
208 1 63 61 62 60
209 1 63 61 62 64
210 1 46 48 63 61
211 1 48 63 61 59
212 1 48 63 61 62
213 1 50 52 54 53
214 1 50 52 54 56
215 1 54 56 58 57
216 1 54 56 58 60
217 1 58 60 62 61
218 1 58 60 62 64

Impropers

1 1 6 3 8 7
2 1 11 8 13 12
3 1 16 13 18 17
4 1 4 2 7 5
5 1 7 4 6 9
6 1 5 4 21 24
7 1 9 7 12 10
8 1 12 9 11 14
9 1 10 9 24 27
10 1 14 12 17 15
11 1 17 14 16 19
12 1 15 14 30 27
13 1 24 5 10 25
14 1 25 23 24 26
15 1 27 10 15 28
16 1 28 26 27 29
17 1 30 15 20 31
18 1 31 29 30 32
19 1 36 34 51 38
20 1 37 35 39 38
21 1 38 36 37 40
22 1 51 36 49 53
23 1 41 39 43 42
24 1 40 38 55 42
25 1 42 40 41 44
26 1 55 40 53 57
27 1 45 43 47 46
28 1 44 42 59 46
29 1 46 44 45 48
30 1 59 44 61 57
31 1 53 51 55 54
32 1 57 55 59 58
33 1 61 59 63 62
34 1 54 52 53 56
35 1 58 56 57 60
36 1 62 60 61 64
