ITEM: TIMESTEP
150000
ITEM: NUMBER OF ATOMS
652
ITEM: BOX BOUNDS pp pp pp
-3.0000000000000000e+01 3.0000000000000000e+01
-3.0000000000000000e+01 3.0000000000000000e+01
-3.0000000000000000e+01 3.0000000000000000e+01
ITEM: ATOMS id type xs ys zs
10847 2 0.45534 0.157979 0.13931
10329 2 0.153706 0.267826 0.0524291
10178 2 0.991667 0.0520747 0.270445
10286 2 0.158959 0.308445 0.182056
10731 2 0.0529748 0.483972 0.0179142
10789 2 0.246901 0.29881 0.0323239
10884 2 0.290807 0.112388 0.0121992
10970 2 0.236824 0.0987611 0.251155
10742 2 0.241201 0.413973 0.127484
10830 2 0.78256 0.0324331 0.271121
10460 2 0.124567 0.196151 0.310651
10643 2 0.300655 0.0341689 0.288695
10855 2 0.0637555 0.200545 0.258359
10773 2 0.10228 0.349552 0.272742
10779 2 0.271612 0.298005 0.166742
10551 2 0.392078 0.342559 0.128687
11000 2 0.779287 0.163223 0.291063
10905 2 0.942999 0.432898 0.312041
10908 2 0.114219 0.0795148 0.207094
10804 2 0.225004 0.179622 0.135466
10818 2 0.0112902 0.449269 0.111405
10954 2 0.313009 0.324512 0.296789
10322 2 0.404291 0.437249 0.0456516
10924 2 0.511858 0.25122 0.0955841
10972 2 0.369065 0.297976 0.0481529
10911 2 0.51222 0.0742551 0.171433
10784 2 0.579378 0.159685 0.128871
10517 2 0.39749 0.0449601 0.247503
10728 2 0.39908 0.203405 0.232364
10957 2 0.863795 0.219406 0.222127
10782 2 0.858496 0.416342 0.0392408
10610 2 0.710024 0.0829203 0.230817
10758 2 0.941157 0.372685 0.0397646
10833 2 0.541867 0.017058 0.266118
11002 2 0.784503 0.147529 0.100571
10761 2 0.893463 0.319135 0.219212
10820 2 0.697273 0.235277 0.31622
10386 2 0.917964 0.484954 0.177825
10976 2 0.815786 0.35441 0.28318
10752 2 0.915778 0.0689224 0.314212
10800 2 0.987365 0.247388 0.188366
10902 2 0.170973 0.220015 0.24787
10364 2 0.81685 0.280419 0.164172
11006 2 0.514556 0.408601 0.0396435
10898 2 0.729619 0.377676 0.0508731
10934 2 0.501086 0.430308 0.171323
10808 2 0.566103 0.326473 0.260325
10482 2 0.467781 0.303697 0.00590526
10858 2 0.12602 0.443314 0.0866631
10876 2 0.280975 0.48906 0.252612
10880 2 0.685215 0.444426 0.179317
10883 2 0.0259572 0.118777 0.0570753
10891 2 0.722307 0.0890754 0.324104
10979 2 0.026192 0.357666 0.0713792
10981 2 0.291506 0.0587157 0.0783107
10987 2 0.630742 0.276245 0.312272
10996 2 0.0804179 0.177503 0.00753001
10998 2 0.374243 0.272095 0.171215
41 1 0.329334 0.301009 0.500758
36 1 0.308888 0.313113 0.501785
32 1 0.308985 0.335664 0.499706
37 1 0.328061 0.348237 0.49723
38 1 0.328772 0.37111 0.503576
33 1 0.308152 0.382696 0.499344
34 1 0.309231 0.40568 0.499312
39 1 0.328068 0.418565 0.503158
40 1 0.328061 0.442889 0.502822
35 1 0.308015 0.454123 0.49741
142 1 0.307293 0.477082 0.496972
148 1 0.327124 0.489294 0.498676
1288 2 0.259084 0.350303 0.493553
289 2 0.275686 0.432045 0.464186
4899 2 0.291131 0.266144 0.488783
8851 2 0.237241 0.383279 0.591158
10682 2 0.242713 0.155442 0.485858
9910 2 0.154885 0.391089 0.541293
3774 2 0.337907 0.493931 0.551335
10935 2 0.93432 0.231782 0.398456
9966 2 0.260968 0.304848 0.364782
10090 2 0.285814 0.223477 0.390065
10314 2 0.222678 0.246773 0.632554
10881 2 0.628409 0.497735 0.346991
10282 2 0.256516 0.0888646 0.59696
11001 2 0.636068 0.0644896 0.612945
10152 2 0.692208 0.41135 0.627809
10989 2 0.540856 0.146296 0.504038
10462 2 0.0668874 0.249129 0.654399
10427 2 0.0451456 0.212847 0.527945
10397 2 0.222011 0.382577 0.374992
10842 2 0.0938373 0.140661 0.547414
10913 2 0.182648 0.246629 0.35748
10766 2 0.0207302 0.379044 0.391494
10850 2 0.561989 0.288723 0.644598
10599 2 0.330791 0.41862 0.358048
10882 2 0.577781 0.378446 0.649124
10650 2 0.13895 0.307426 0.482323
10694 2 0.0195918 0.156892 0.396165
10929 2 0.837423 0.415908 0.356265
285 2 0.341963 0.48989 0.445881
1281 2 0.333055 0.404562 0.553989
10600 2 0.622961 0.18039 0.621243
891 2 0.674632 0.454375 0.551802
10518 2 0.353093 0.157785 0.467663
1460 2 0.337619 0.379049 0.444952
10872 2 0.908286 0.480558 0.429306
10897 2 0.208719 0.0528978 0.421204
300 2 0.417176 0.489545 0.442384
856 2 0.659088 0.491138 0.44823
826 2 0.491005 0.493132 0.444142
948 2 0.33393 0.324746 0.551727
291 2 0.395074 0.445465 0.561089
920 2 0.375404 0.252124 0.488747
2249 2 0.652673 0.41001 0.445732
942 2 0.458468 0.343933 0.446122
299 2 0.4163 0.374939 0.555838
51 1 0.37035 0.3022 0.501418
46 1 0.349702 0.312837 0.495467
42 1 0.348573 0.336544 0.498434
47 1 0.36947 0.347679 0.500972
61 1 0.410693 0.301939 0.500685
56 1 0.390271 0.312764 0.504361
55 1 0.38993 0.334923 0.498528
60 1 0.409425 0.347969 0.500623
66 1 0.429608 0.314062 0.495722
65 1 0.429456 0.33671 0.501115
48 1 0.369473 0.371281 0.498327
43 1 0.349881 0.382539 0.503143
44 1 0.348556 0.406497 0.499885
49 1 0.368995 0.417979 0.502126
59 1 0.409448 0.371647 0.497904
53 1 0.388905 0.382858 0.500099
54 1 0.389167 0.406395 0.498515
57 1 0.409848 0.418083 0.499152
62 1 0.429754 0.383294 0.498752
64 1 0.429257 0.406735 0.503935
71 1 0.450363 0.302371 0.494409
67 1 0.450064 0.347822 0.499318
77 1 0.491063 0.30222 0.49732
75 1 0.471324 0.313717 0.494278
73 1 0.470609 0.3366 0.500264
78 1 0.490809 0.348068 0.497583
91 1 0.530055 0.302519 0.505037
86 1 0.509902 0.314444 0.502804
85 1 0.511371 0.336431 0.497889
90 1 0.531461 0.347888 0.502692
97 1 0.551599 0.312065 0.505581
96 1 0.55127 0.335484 0.500556
70 1 0.449796 0.370766 0.503851
68 1 0.449682 0.418359 0.505751
79 1 0.490653 0.372183 0.49875
72 1 0.470098 0.383509 0.503118
74 1 0.47 0.406798 0.501826
80 1 0.490256 0.418607 0.503741
89 1 0.531227 0.371325 0.498924
84 1 0.510913 0.383154 0.503812
83 1 0.510515 0.406698 0.505379
88 1 0.530636 0.418194 0.499781
95 1 0.551492 0.382052 0.503472
94 1 0.550959 0.405432 0.500081
98 1 0.571668 0.299484 0.503426
102 1 0.571491 0.347565 0.499464
112 1 0.611988 0.300607 0.504208
107 1 0.591321 0.312556 0.506248
103 1 0.590965 0.335378 0.500358
109 1 0.610744 0.347375 0.504008
118 1 0.652513 0.301906 0.497572
113 1 0.632449 0.312311 0.505215
117 1 0.631154 0.33579 0.501096
122 1 0.651656 0.348662 0.500766
101 1 0.571456 0.37101 0.499676
100 1 0.571843 0.417876 0.499602
108 1 0.611518 0.37112 0.500682
106 1 0.591472 0.382996 0.5036
105 1 0.591359 0.40694 0.5043
111 1 0.611759 0.418833 0.503112
121 1 0.651976 0.372046 0.498176
116 1 0.631418 0.382979 0.502811
114 1 0.63119 0.406514 0.499299
120 1 0.651539 0.41879 0.499512
50 1 0.368768 0.441709 0.498474
45 1 0.348921 0.454453 0.502529
155 1 0.347854 0.477426 0.497322
163 1 0.368628 0.488532 0.499193
58 1 0.409371 0.441242 0.503629
52 1 0.38938 0.452684 0.49978
166 1 0.388942 0.475827 0.503604
175 1 0.409559 0.487664 0.504365
63 1 0.429684 0.453413 0.50494
182 1 0.429908 0.476721 0.501666
69 1 0.449528 0.441939 0.500942
190 1 0.449773 0.489182 0.501385
81 1 0.489898 0.441227 0.4984
76 1 0.469791 0.453514 0.500201
198 1 0.469953 0.477198 0.497095
205 1 0.490431 0.488441 0.499923
87 1 0.531537 0.441906 0.498142
82 1 0.510386 0.45307 0.500876
208 1 0.509729 0.476213 0.496559
214 1 0.530336 0.487978 0.497047
93 1 0.552233 0.453092 0.49738
222 1 0.550628 0.475991 0.500529
99 1 0.571834 0.441372 0.501723
229 1 0.571353 0.488181 0.501537
110 1 0.612507 0.442244 0.500278
104 1 0.592035 0.453152 0.502363
236 1 0.591487 0.476132 0.498883
244 1 0.611558 0.488252 0.499267
119 1 0.652066 0.441939 0.496713
115 1 0.632853 0.453746 0.500903
252 1 0.63227 0.477349 0.497895
258 1 0.652552 0.488603 0.503881
29 2 0.429512 0.303096 0.550049
284 2 0.584945 0.250075 0.488298
307 2 0.547407 0.430588 0.550604
16 2 0.503163 0.409737 0.450376
297 2 0.472263 0.435453 0.552941
360 2 0.544008 0.324762 0.445418
563 2 0.414485 0.411314 0.448295
595 2 0.581115 0.393642 0.451975
744 2 0.574746 0.33925 0.552157
290 2 0.620077 0.407418 0.556452
1807 2 0.496598 0.365039 0.553778
2151 2 0.521045 0.271243 0.54614
4463 2 0.493282 0.253633 0.476594
1190 2 0.579909 0.46249 0.449082
5958 2 0.386602 0.314813 0.451017
10904 2 0.892484 0.287314 0.339475
498 2 0.63217 0.263408 0.546473
9812 2 0.620606 0.0959283 0.534876
10874 2 0.948875 0.280899 0.500369
1748 2 0.636557 0.327777 0.4479
10312 2 0.459489 0.178488 0.507882
724 2 0.660127 0.349299 0.551298
10495 2 0.460273 0.0706679 0.405094
10378 2 0.778512 0.293285 0.386562
10750 2 0.64733 0.377112 0.373099
10629 2 0.85459 0.191682 0.621133
10815 2 0.969733 0.13256 0.480606
10984 2 0.982574 0.415658 0.53593
10729 2 0.858699 0.130072 0.392446
2701 2 0.679132 0.258742 0.467643
10953 2 0.538129 0.239662 0.36062
10448 2 0.870909 0.407951 0.477542
3018 2 0.734781 0.332831 0.515917
10671 2 0.828223 0.239071 0.469237
132 1 0.691282 0.348751 0.492664
3711 2 0.73009 0.398993 0.468152
123 1 0.672605 0.45337 0.494743
124 1 0.671874 0.406395 0.497529
427 2 0.735146 0.466649 0.489044
126 1 0.672344 0.383334 0.500231
131 1 0.691968 0.371438 0.496054
264 1 0.672411 0.476047 0.502251
271 1 0.690745 0.489086 0.498433
130 1 0.693078 0.442421 0.49583
127 1 0.671995 0.336567 0.498837
10140 2 0.716607 0.00395162 0.653553
10873 2 0.899306 0.364612 0.378207
129 1 0.691801 0.41873 0.497082
128 1 0.691844 0.304319 0.494406
125 1 0.671583 0.313753 0.491847
10966 2 0.770762 0.366286 0.394612
10977 2 0.0816163 0.0518196 0.539795
10730 2 0.409752 0.00648453 0.665518
10358 2 0.432064 0.288853 0.334398
10983 2 0.771779 0.467293 0.583229
9860 2 0.075515 0.330075 0.856787
10656 2 0.226424 0.258908 0.891848
10942 2 0.690904 0.315121 0.841528
10950 2 0.935364 0.477359 0.74785
9876 2 0.147728 0.438949 0.793125
10381 2 0.127365 0.0392083 0.810756
10451 2 0.122127 0.0695843 0.908703
10895 2 0.128658 0.269464 0.910451
10436 2 0.185496 0.466198 0.960144
10764 2 0.179708 0.486079 0.688061
10542 2 0.0589624 0.194088 0.861294
10961 2 0.976979 0.188433 0.905145
10861 2 0.587003 0.470224 0.940254
10590 2 0.161045 0.37338 0.929775
10591 2 0.0734102 0.219346 0.761235
10879 2 0.211015 0.0813333 0.672106
10967 2 0.41932 0.0385148 0.893143
10875 2 0.518509 0.137054 0.793531
10556 2 0.618723 0.226227 0.800779
10797 2 0.959909 0.434685 0.963226
10114 2 0.442691 0.427528 0.94413
10450 2 0.602031 0.26005 0.993175
10933 2 0.200601 0.172332 0.870786
10796 2 0.967177 0.0260668 0.810359
10124 2 0.58954 0.176157 0.89342
10137 2 0.478984 0.437338 0.72606
10258 2 0.502846 0.361529 0.890544
10974 2 0.836854 0.434719 0.940932
10810 2 0.991729 0.0521231 0.716554
10577 2 0.493486 0.116863 0.98279
10467 2 0.31774 0.0110778 0.924246
10506 2 0.717108 0.051003 0.945974
10670 2 0.941588 0.29989 0.732106
10646 2 0.737878 0.348073 0.713405
10793 2 0.978523 0.403416 0.711946
10843 2 0.0277891 0.352468 0.961296
10921 2 0.883827 0.368847 0.962087
10172 2 0.76523 0.300553 0.962418
10943 2 0.379146 0.105814 0.774779
10075 2 0.778206 0.267118 0.775226
10637 2 0.806843 0.0545479 0.757134
10982 2 0.533254 0.0878154 0.889747
10711 2 0.902915 0.0264593 0.898531
10469 2 0.840904 0.148712 0.773635
10490 2 0.78276 0.0867936 0.858175
10273 2 0.984426 0.139734 0.774797
10857 2 0.795281 0.449639 0.83615
10823 2 0.408527 0.356552 0.871452
10854 2 0.599883 0.00519324 0.81036
10811 2 0.600521 0.103848 0.727727
10737 2 0.00157998 0.275165 0.884089
10837 2 0.0807601 0.463248 0.725601
10851 2 0.0842454 0.0674558 0.695562
10993 2 0.313672 0.230033 0.679815
11003 2 0.286697 0.136242 0.767856
10399 2 0.653752 0.348195 0.998014
9878 2 0.0301612 0.945816 0.245954
10912 2 0.501592 0.649851 0.00369958
10119 2 0.0424871 0.844867 0.202196
10900 2 0.126131 0.654444 0.127023
10856 2 0.87879 0.752797 0.130187
10691 2 0.183362 0.948154 0.332186
10514 2 0.238741 0.576009 0.0547308
10919 2 0.503474 0.723196 0.292908
10835 2 0.559057 0.79854 0.312654
10189 2 0.92642 0.706095 0.0324457
10889 2 0.589027 0.502641 0.265068
10747 2 0.00448378 0.7266 0.133045
10848 2 0.609128 0.704164 0.269746
10892 2 0.744151 0.756825 0.278721
10896 2 0.913 0.868284 0.233284
10668 2 0.642876 0.925586 0.273855
10736 2 0.463147 0.633831 0.107213
10870 2 0.196629 0.838258 0.00731655
10841 2 0.93511 0.977246 0.261929
10999 2 0.680084 0.916874 0.158064
10546 2 0.566432 0.673831 0.189192
10547 2 0.48196 0.997627 0.0552015
10819 2 0.317935 0.675813 0.243287
10906 2 0.506536 0.54409 0.17438
10584 2 0.557034 0.592377 0.255704
9702 2 0.512721 0.528265 0.0547118
10062 2 0.332612 0.704232 0.0727812
10032 2 0.478387 0.745152 0.130408
10227 2 0.650883 0.579276 0.269383
10888 2 0.27937 0.844742 0.259045
10507 2 0.559238 0.619185 0.115118
10907 2 0.65807 0.636514 0.128273
10633 2 0.339867 0.572228 0.249646
10705 2 0.448713 0.59966 0.327004
10995 2 0.871947 0.835838 0.0841731
10781 2 0.465111 0.9592 0.268595
10947 2 0.599031 0.516182 0.106141
10579 2 0.944192 0.625961 0.134408
10928 2 0.828242 0.648901 0.306455
10778 2 0.738589 0.999022 0.0258097
10627 2 0.797946 0.90937 0.107574
10745 2 0.835593 0.780938 0.317232
10910 2 0.253976 0.772903 0.0680716
10713 2 0.767399 0.561384 0.291448
10620 2 0.128517 0.998071 0.136758
10952 2 0.784888 0.9107 0.0143082
10709 2 0.781436 0.858156 0.253742
10968 2 0.39815 0.684568 0.233596
10973 2 0.543023 0.787614 0.0552574
10866 2 0.172596 0.992343 0.0105203
10868 2 0.270722 0.677271 0.0160961
10936 2 0.0167544 0.917177 0.00261661
10937 2 0.806626 0.548913 0.0527723
10944 2 0.738643 0.511811 0.187185
10946 2 0.553909 0.719794 0.00700511
10960 2 0.415343 0.809307 0.152467
10975 2 0.744333 0.700817 0.174667
10978 2 0.285428 0.913882 0.119041
10985 2 0.355324 0.909113 0.237872
10986 2 0.583243 0.736367 0.13141
10988 2 0.196336 0.897028 0.142911
10991 2 0.279644 0.65194 0.172083
10992 2 0.0547128 0.844303 0.046498
10994 2 0.739838 0.574526 0.104673
11007 2 0.923618 0.948315 0.0568462
11009 2 0.564933 0.891702 0.219743
147 1 0.328072 0.512505 0.497711
141 1 0.308385 0.525167 0.500085
140 1 0.307515 0.548573 0.50005
149 1 0.32849 0.558856 0.499649
146 1 0.328065 0.58257 0.505283
139 1 0.307796 0.595229 0.500412
138 1 0.307622 0.618707 0.501341
145 1 0.328753 0.629373 0.50201
144 1 0.328922 0.652776 0.495646
137 1 0.309196 0.665569 0.498745
143 1 0.308822 0.689023 0.499046
150 1 0.329452 0.700044 0.500307
1295 2 0.260517 0.632369 0.5156
1384 2 0.280273 0.734774 0.510232
4715 2 0.27 0.565252 0.468023
4947 2 0.308561 0.567873 0.553564
134 2 0.30644 0.640982 0.44217
10466 2 0.229237 0.580962 0.633335
10941 2 0.00487866 0.580204 0.568063
10580 2 0.114374 0.792144 0.660559
10374 2 0.0479685 0.977373 0.364249
10675 2 0.965757 0.672234 0.632712
10289 2 0.210874 0.697125 0.639526
10350 2 0.0856386 0.690848 0.550357
10958 2 0.359664 0.586607 0.64792
10552 2 0.223504 0.962022 0.615947
10893 2 0.257598 0.703269 0.417213
10963 2 0.132064 0.785125 0.376305
272 1 0.692194 0.512324 0.49981
10930 2 0.755351 0.877682 0.438435
11004 2 0.0338941 0.809726 0.657858
10951 2 0.811819 0.672936 0.641799
10788 2 0.549588 0.604036 0.636201
10522 2 0.64761 0.798185 0.606384
10281 2 0.961379 0.916778 0.349953
6301 2 0.348872 0.733483 0.459
1312 2 0.477982 0.500091 0.549183
5964 2 0.341572 0.671319 0.553384
1883 2 0.344212 0.579017 0.451439
294 2 0.554132 0.532941 0.446021
846 2 0.377823 0.606494 0.549814
625 2 0.386893 0.741668 0.526431
1035 2 0.469084 0.741088 0.469066
317 2 0.467209 0.578854 0.551042
278 2 0.464796 0.649203 0.449571
162 1 0.368253 0.511754 0.502339
156 1 0.348263 0.523763 0.499962
154 1 0.348445 0.5466 0.503977
161 1 0.369064 0.558105 0.504175
174 1 0.409757 0.511199 0.49938
167 1 0.389608 0.52274 0.503262
165 1 0.389261 0.546281 0.500823
173 1 0.409808 0.558232 0.503807
183 1 0.429883 0.523179 0.49749
180 1 0.430334 0.546114 0.502572
189 1 0.449921 0.512765 0.501319
188 1 0.450466 0.55881 0.50043
206 1 0.489996 0.512126 0.496356
199 1 0.470301 0.523823 0.501467
197 1 0.469674 0.546709 0.496156
204 1 0.490173 0.558003 0.4987
215 1 0.529443 0.511744 0.500984
207 1 0.509559 0.523517 0.497812
209 1 0.509436 0.545973 0.502355
216 1 0.528557 0.558029 0.503524
221 1 0.54992 0.523795 0.504414
223 1 0.548929 0.547179 0.500678
230 1 0.5704 0.512155 0.500798
231 1 0.570069 0.558445 0.503075
245 1 0.611113 0.511541 0.497517
237 1 0.591465 0.523041 0.502422
238 1 0.591145 0.546899 0.499568
246 1 0.611563 0.558514 0.500904
259 1 0.652132 0.51214 0.504076
251 1 0.63141 0.523066 0.500018
253 1 0.630899 0.546397 0.50486
257 1 0.651914 0.557819 0.505275
160 1 0.368325 0.581879 0.499507
153 1 0.349033 0.594099 0.5036
152 1 0.348339 0.616803 0.498123
159 1 0.368485 0.628398 0.49915
172 1 0.409338 0.582002 0.502601
169 1 0.389027 0.593116 0.496302
168 1 0.38861 0.617122 0.494104
176 1 0.409359 0.627519 0.498471
181 1 0.430015 0.593396 0.500966
179 1 0.42979 0.616273 0.497044
158 1 0.369457 0.652238 0.499956
151 1 0.349699 0.664887 0.497226
157 1 0.348679 0.688363 0.493201
164 1 0.369201 0.69847 0.497591
177 1 0.409756 0.650963 0.501235
170 1 0.389872 0.662766 0.497385
171 1 0.389689 0.686408 0.501073
178 1 0.409983 0.698357 0.500432
184 1 0.429855 0.663281 0.499461
185 1 0.429342 0.687009 0.503078
187 1 0.449647 0.581639 0.497911
191 1 0.450188 0.628011 0.498703
203 1 0.490084 0.581613 0.501558
195 1 0.469917 0.593366 0.497065
193 1 0.470336 0.616455 0.501121
202 1 0.490577 0.627983 0.502092
217 1 0.529427 0.58184 0.500245
210 1 0.509678 0.594205 0.501811
211 1 0.509653 0.617074 0.498501
218 1 0.530268 0.629347 0.49836
224 1 0.550056 0.593677 0.500911
225 1 0.550141 0.617149 0.498235
186 1 0.450778 0.651509 0.50262
192 1 0.449202 0.697969 0.498935
201 1 0.490328 0.651606 0.499233
194 1 0.470417 0.663487 0.50275
196 1 0.470002 0.68694 0.499679
200 1 0.489951 0.698512 0.49412
219 1 0.52999 0.652719 0.49332
212 1 0.510387 0.663838 0.496676
213 1 0.509849 0.686236 0.491253
220 1 0.529997 0.698146 0.49331
226 1 0.550468 0.664443 0.494169
227 1 0.550068 0.687643 0.498988
232 1 0.569944 0.581763 0.500507
233 1 0.570101 0.629047 0.498486
247 1 0.610753 0.58158 0.505107
239 1 0.59016 0.593875 0.501022
240 1 0.589998 0.618158 0.50351
242 1 0.610659 0.628984 0.503961
260 1 0.651831 0.581231 0.502465
250 1 0.63115 0.593805 0.505355
254 1 0.630367 0.61724 0.502233
261 1 0.650365 0.628353 0.504177
234 1 0.570232 0.652311 0.499416
228 1 0.570637 0.699219 0.495851
243 1 0.610061 0.652229 0.499669
235 1 0.590089 0.664167 0.496525
241 1 0.590131 0.686776 0.498626
248 1 0.610527 0.698391 0.496441
262 1 0.650003 0.651402 0.498984
255 1 0.630235 0.663426 0.501365
249 1 0.631299 0.686117 0.49599
256 1 0.651327 0.697911 0.496957
296 2 0.544776 0.576352 0.548578
136 2 0.386905 0.649845 0.446875
293 2 0.559425 0.609401 0.44785
26 2 0.493037 0.577358 0.448285
133 2 0.518516 0.64774 0.551248
295 2 0.403409 0.530488 0.553949
282 2 0.446055 0.678127 0.556952
15 2 0.418374 0.555846 0.446611
1410 2 0.591745 0.745702 0.507031
774 2 0.511155 0.726566 0.543498
3 2 0.58978 0.659377 0.548889
3159 2 0.550743 0.680405 0.44308
92 2 0.627892 0.63997 0.450543
1241 2 0.616917 0.508525 0.55129
916 2 0.639028 0.562499 0.447663
10909 2 0.84589 0.975466 0.346811
10240 2 0.540332 0.762156 0.659458
10592 2 0.580905 0.879348 0.643414
10474 2 0.641549 0.865181 0.445315
10407 2 0.360086 0.939653 0.465639
10095 2 0.354452 0.737532 0.607925
10628 2 0.375327 0.995563 0.384758
2731 2 0.642884 0.586186 0.556637
10707 2 0.504913 0.864151 0.390987
10832 2 0.741699 0.597734 0.37948
9038 2 0.648859 0.524174 0.65363
10693 2 0.936995 0.518927 0.334126
10777 2 0.937742 0.726786 0.387839
268 1 0.670557 0.61631 0.502008
10759 2 0.928156 0.819431 0.358266
267 1 0.671092 0.685952 0.49729
10997 2 0.876137 0.764883 0.65622
9802 2 0.681706 0.741094 0.458119
266 1 0.6718 0.593439 0.504859
335 2 0.260615 0.50271 0.511637
10971 2 0.0132658 0.943596 0.527527
10949 2 0.603715 0.977494 0.402064
273 1 0.692323 0.58216 0.505078
269 1 0.670483 0.663125 0.501701
10225 2 0.809158 0.595795 0.508094
10377 2 0.924083 0.90081 0.446884
10684 2 0.970495 0.51523 0.655065
10839 2 0.828917 0.902201 0.473874
10699 2 0.748426 0.584716 0.586067
10807 2 0.875679 0.55535 0.568815
4132 2 0.656645 0.695712 0.551372
10492 2 0.956444 0.821496 0.519006
10816 2 0.136454 0.795939 0.565291
8536 2 0.700524 0.536246 0.552273
10860 2 0.916016 0.736148 0.580053
265 1 0.671712 0.546817 0.500426
6822 2 0.747312 0.646166 0.497876
274 1 0.692644 0.558262 0.502209
6604 2 0.727518 0.556821 0.459192
276 1 0.691181 0.651792 0.503218
263 1 0.672038 0.52416 0.504553
275 1 0.690995 0.62822 0.501932
270 1 0.690111 0.69842 0.503693
10825 2 0.13799 0.688543 0.400793
10829 2 0.248138 0.864351 0.48654
10838 2 0.796134 0.715786 0.47551
10727 2 0.0403391 0.996821 0.659153
10877 2 0.171068 0.507421 0.564763
10886 2 0.500585 0.503705 0.63455
9978 2 0.926956 0.989046 0.401096
10964 2 0.396755 0.873308 0.590931
10903 2 0.640215 0.677272 0.367694
314 2 0.544713 0.503089 0.553381
10647 2 0.297927 0.511508 0.662088
10925 2 0.518463 0.543508 0.339133
10697 2 0.0209955 0.504079 0.406373
10969 2 0.20868 0.530379 0.750443
10459 2 0.743773 0.880237 0.906021
10029 2 0.20897 0.981469 0.816614
10271 2 0.137634 0.952672 0.879395
10014 2 0.341215 0.818305 0.759295
10801 2 0.486737 0.975164 0.921645
10692 2 0.82363 0.82525 0.875139
10836 2 0.00148789 0.79479 0.973432
10783 2 0.985312 0.837979 0.850298
10814 2 0.577352 0.675465 0.939652
10471 2 0.145206 0.640003 0.783472
10502 2 0.0615359 0.789671 0.830011
10608 2 0.243242 0.840131 0.738287
10965 2 0.51658 0.605973 0.899267
10845 2 0.343381 0.578431 0.771428
10864 2 0.933214 0.837142 0.745464
10915 2 0.500123 0.525189 0.836953
10690 2 0.266458 0.832324 0.967093
10916 2 0.202127 0.641336 0.72
10706 2 0.689709 0.907865 0.723637
10700 2 0.382068 0.802098 0.94909
10846 2 0.347865 0.536242 0.907946
10677 2 0.385371 0.681861 0.824435
10795 2 0.255592 0.643203 0.829334
10323 2 0.525741 0.962417 0.76523
10145 2 0.50244 0.670729 0.683155
10959 2 0.925226 0.687824 0.817413
10940 2 0.794963 0.524627 0.761028
10183 2 0.428874 0.700635 0.927721
10534 2 0.959516 0.70329 0.906736
10894 2 0.449407 0.586864 0.95895
10685 2 0.490872 0.853821 0.669422
10613 2 0.552198 0.827874 0.778047
10557 2 0.669339 0.696735 0.668101
10955 2 0.343399 0.883827 0.990631
10659 2 0.537667 0.983735 0.669589
10812 2 0.114733 0.576427 0.673944
10738 2 0.944062 0.609276 0.759888
10962 2 0.0914911 0.645485 0.981413
10867 2 0.165841 0.74091 0.973997
10817 2 0.100401 0.865452 0.942506
10724 2 0.690285 0.764893 0.724879
10118 2 0.756995 0.627729 0.7382
10380 2 0.682381 0.808979 0.810393
10931 2 0.788108 0.953393 0.703571
10932 2 0.851458 0.721442 0.840968
10938 2 0.662094 0.585114 0.84585
10939 2 0.433996 0.801198 0.777941
10980 2 0.102603 0.54603 0.816343
10990 2 0.0991006 0.533244 0.913973
11005 2 0.399115 0.792289 0.689273
11008 2 0.0291437 0.972731 0.803371
