ITEM: TIMESTEP
150000
ITEM: NUMBER OF ATOMS
1368
ITEM: BOX BOUNDS pp pp pp
-3.0000000000000000e+01 3.0000000000000000e+01
-3.0000000000000000e+01 3.0000000000000000e+01
-1.8000000000000000e+01 1.8000000000000000e+01
ITEM: ATOMS id type xs ys zs
3 1 0.328754 0.291525 0.128891
2 1 0.308448 0.303888 0.128185
23 1 0.306677 0.327062 0.124433
5 1 0.367829 0.291454 0.127024
4 1 0.34884 0.302833 0.131582
32 1 0.347694 0.325713 0.1192
7 1 0.408826 0.28981 0.118759
6 1 0.388654 0.302366 0.11654
45 1 0.388468 0.325352 0.124198
8 1 0.428816 0.301753 0.120253
54 1 0.429059 0.324895 0.128786
9 1 0.449761 0.291692 0.125579
11 1 0.489418 0.290996 0.129702
10 1 0.470139 0.302985 0.132095
59 1 0.469555 0.325158 0.123679
257 1 0.329042 0.314702 0.373161
273 1 0.307973 0.32438 0.37656
258 1 0.368553 0.314714 0.37965
282 1 0.348621 0.326172 0.369785
259 1 0.409252 0.314339 0.385295
291 1 0.388543 0.326003 0.384898
300 1 0.428708 0.325548 0.378235
260 1 0.449035 0.313772 0.383212
261 1 0.489829 0.314391 0.380368
308 1 0.469181 0.325855 0.382241
266 2 0.461077 0.271574 0.446428
255 2 0.364293 0.239214 0.149481
1205 2 0.291137 0.253242 0.0871324
1665 2 0.42397 0.283511 0.207518
2097 2 0.317659 0.263949 0.396286
2864 2 0.474067 0.248406 0.0814765
3499 2 0.399909 0.264184 0.382076
4575 2 0.403072 0.255239 0.0483449
7808 2 0.398476 0.108327 0.510407
4449 2 0.323002 0.317689 0.21435
7822 2 0.364116 0.156293 0.0725489
207 2 0.334798 0.311141 0.0411338
7395 2 0.0661586 0.20388 0.403123
7843 2 0.0570654 0.19666 0.252268
1132 2 0.488548 0.325545 0.213833
7836 2 0.455106 0.16118 0.127002
7776 2 0.0169409 0.0199531 0.0420522
7868 2 0.00382467 0.325398 0.0608778
7879 2 0.158925 0.112848 0.814778
7869 2 0.105867 0.0916179 0.203645
7812 2 0.230342 0.181391 0.163069
754 1 0.370172 0.312598 0.874293
7831 2 0.344243 0.139649 0.701682
7887 2 0.195649 0.318582 0.670744
7859 2 0.169583 0.184573 0.943024
7866 2 0.165715 0.225112 0.248625
7772 2 0.413499 0.020647 0.650568
7799 2 0.271394 0.0714994 0.702412
7856 2 0.285979 0.107655 0.041867
7894 2 0.211789 0.0471028 0.199548
7864 2 0.203527 0.0563591 0.430238
7753 2 0.397411 0.0674706 0.778858
7681 2 0.291338 0.184737 0.565223
7881 2 0.468362 0.139499 0.952821
511 1 0.368479 0.290074 0.622404
777 1 0.349796 0.323299 0.877293
560 1 0.429228 0.325617 0.626474
3353 2 0.426642 0.255322 0.563806
753 1 0.32956 0.312052 0.873274
5003 2 0.486219 0.238904 0.634154
768 1 0.309747 0.322701 0.870408
515 1 0.449581 0.290127 0.629301
7832 2 0.0916361 0.126322 0.542148
514 1 0.429139 0.301525 0.633151
7682 2 0.0995201 0.0504051 0.800616
7795 2 0.461865 0.146317 0.794543
538 1 0.347596 0.325535 0.622899
4205 2 0.289731 0.328269 0.703186
517 1 0.489422 0.290699 0.622521
551 1 0.388504 0.325089 0.622
516 1 0.469463 0.302674 0.621051
1369 2 0.378982 0.291543 0.711813
513 1 0.408685 0.290056 0.626917
1039 2 0.480486 0.302781 0.716573
1480 2 0.359638 0.31441 0.537048
756 1 0.409228 0.314941 0.867848
795 1 0.428933 0.326707 0.862154
508 1 0.307917 0.301384 0.621409
803 1 0.469667 0.326836 0.870604
5431 2 0.267555 0.303134 0.561804
786 1 0.389359 0.325199 0.876849
758 1 0.489627 0.31441 0.87401
1860 2 0.39121 0.264445 0.868102
3555 2 0.350634 0.237933 0.632575
757 1 0.449554 0.31558 0.865753
510 1 0.348078 0.301744 0.628076
1107 2 0.298417 0.266082 0.895628
512 1 0.388824 0.301704 0.619858
509 1 0.328591 0.289862 0.620025
565 1 0.469236 0.325512 0.6312
755 2 0.467666 0.278672 0.931103
529 1 0.30878 0.325353 0.621686
7916 2 0.0811743 0.177744 0.00955314
28 1 0.327942 0.338219 0.125633
37 1 0.368471 0.337832 0.118832
49 1 0.409105 0.33609 0.121376
29 1 0.327854 0.361325 0.120057
24 1 0.309165 0.373847 0.129565
25 1 0.308909 0.396972 0.1268
30 1 0.328486 0.408166 0.122089
38 1 0.369637 0.360361 0.125074
33 1 0.349095 0.371723 0.118712
34 1 0.348313 0.39599 0.125539
39 1 0.368738 0.408044 0.123511
48 1 0.409125 0.359968 0.122554
43 1 0.389622 0.371803 0.119012
44 1 0.388897 0.394949 0.125718
46 1 0.409099 0.406535 0.124184
50 1 0.42941 0.3714 0.115083
52 1 0.428924 0.395129 0.114848
55 1 0.449194 0.336979 0.127371
64 1 0.489621 0.337051 0.124346
58 1 0.449792 0.360452 0.124905
56 1 0.448877 0.406919 0.123216
65 1 0.489342 0.359812 0.126077
60 1 0.469387 0.371612 0.119853
61 1 0.469352 0.395284 0.121185
66 1 0.490075 0.406474 0.124659
31 1 0.327975 0.431004 0.126291
26 1 0.308338 0.44352 0.126363
27 1 0.308868 0.466322 0.132484
121 1 0.327993 0.477301 0.123896
40 1 0.368781 0.430838 0.131504
35 1 0.348784 0.442513 0.125126
36 1 0.348339 0.46606 0.130681
131 1 0.368585 0.477213 0.129763
47 1 0.408664 0.42975 0.120545
41 1 0.389143 0.441705 0.128365
42 1 0.387988 0.464716 0.121778
139 1 0.408309 0.476273 0.123178
51 1 0.42986 0.441024 0.125072
53 1 0.429139 0.464729 0.119054
122 1 0.32744 0.500436 0.127705
118 1 0.306945 0.511416 0.122988
117 1 0.307873 0.535027 0.120427
123 1 0.327571 0.546776 0.115875
132 1 0.368215 0.499893 0.119669
127 1 0.348061 0.512062 0.120112
126 1 0.347945 0.53554 0.124044
130 1 0.368299 0.546417 0.117031
140 1 0.408106 0.499499 0.120546
134 1 0.387776 0.511287 0.124544
133 1 0.388124 0.534712 0.124815
138 1 0.40873 0.546392 0.118511
145 1 0.428098 0.512272 0.128338
143 1 0.428501 0.535482 0.129001
120 1 0.32772 0.569513 0.124044
129 1 0.368209 0.569704 0.116459
137 1 0.40885 0.570065 0.116452
57 1 0.449918 0.430297 0.121583
148 1 0.448351 0.476793 0.122053
67 1 0.491043 0.429993 0.122993
62 1 0.470174 0.441985 0.125856
63 1 0.468839 0.465241 0.119342
158 1 0.489816 0.47628 0.126106
149 1 0.448439 0.500199 0.126197
147 1 0.449007 0.545693 0.120332
159 1 0.490044 0.499834 0.125959
154 1 0.469491 0.510607 0.133079
153 1 0.469631 0.534599 0.130435
157 1 0.490066 0.545548 0.126208
146 1 0.449073 0.56912 0.118074
156 1 0.489899 0.56906 0.128867
116 1 0.308971 0.582625 0.117111
115 1 0.30832 0.606067 0.120706
119 1 0.329051 0.616537 0.126321
125 1 0.348259 0.581062 0.12569
124 1 0.348482 0.604449 0.119712
128 1 0.368582 0.616385 0.123729
136 1 0.388136 0.581124 0.121428
135 1 0.388255 0.604684 0.118085
141 1 0.40869 0.61625 0.124765
144 1 0.428974 0.580798 0.124061
142 1 0.428852 0.604482 0.120015
210 1 0.328976 0.639932 0.122738
208 1 0.309295 0.651366 0.130279
214 1 0.368999 0.639131 0.122162
212 1 0.349187 0.65062 0.130007
218 1 0.409275 0.639325 0.120013
216 1 0.389277 0.650482 0.126361
220 1 0.429104 0.65058 0.122307
150 1 0.448514 0.615627 0.127204
152 1 0.470038 0.58051 0.12056
151 1 0.468979 0.603665 0.123977
155 1 0.489486 0.614929 0.130546
222 1 0.449155 0.639047 0.129528
227 1 0.48968 0.638551 0.123601
224 1 0.470332 0.651005 0.128541
269 1 0.307677 0.347642 0.378742
274 1 0.327597 0.359913 0.375608
278 1 0.347457 0.348746 0.379455
283 1 0.367643 0.360853 0.381621
290 1 0.388362 0.349243 0.37637
295 1 0.409039 0.360218 0.374707
299 1 0.428879 0.349122 0.381478
275 1 0.327386 0.382713 0.381159
270 1 0.308444 0.395497 0.374098
271 1 0.30868 0.418946 0.372744
284 1 0.368155 0.383366 0.379871
279 1 0.347487 0.394486 0.378709
280 1 0.348843 0.418232 0.381178
294 1 0.408858 0.383093 0.378886
288 1 0.388813 0.394379 0.372981
289 1 0.388443 0.418415 0.374547
296 1 0.428508 0.39579 0.37872
298 1 0.429969 0.418329 0.369135
301 1 0.449188 0.360731 0.375776
305 1 0.468628 0.348395 0.375401
310 1 0.489201 0.359725 0.37888
304 1 0.448913 0.384488 0.379423
311 1 0.489629 0.383043 0.374737
306 1 0.469279 0.39531 0.37468
307 1 0.470466 0.418495 0.379071
276 1 0.328131 0.430706 0.381256
285 1 0.368329 0.430915 0.370282
292 1 0.409306 0.430055 0.366369
277 1 0.328451 0.453212 0.372792
272 1 0.309802 0.465158 0.380608
363 1 0.309291 0.488129 0.37904
366 1 0.327717 0.501365 0.371073
286 1 0.368936 0.454602 0.372946
281 1 0.348971 0.466052 0.374618
372 1 0.348425 0.489759 0.371048
376 1 0.368899 0.501074 0.371926
293 1 0.40908 0.453691 0.36987
287 1 0.38871 0.465991 0.366099
379 1 0.388915 0.489445 0.365922
385 1 0.409017 0.500927 0.372532
297 1 0.429613 0.465227 0.366016
390 1 0.429219 0.489879 0.367906
365 1 0.329007 0.52426 0.376237
362 1 0.308416 0.535614 0.377857
361 1 0.30853 0.558928 0.380934
367 1 0.328689 0.571037 0.376056
375 1 0.369045 0.524279 0.364891
371 1 0.34852 0.535479 0.365891
370 1 0.349162 0.559004 0.373626
374 1 0.368719 0.572074 0.370904
384 1 0.409427 0.524633 0.374596
378 1 0.390029 0.536511 0.366496
377 1 0.389561 0.559402 0.373579
383 1 0.410076 0.570876 0.37082
389 1 0.429713 0.535978 0.375273
387 1 0.429824 0.559465 0.375639
302 1 0.45041 0.429985 0.376966
312 1 0.490002 0.430402 0.372399
303 1 0.449855 0.4528 0.371047
394 1 0.450036 0.500954 0.375586
313 1 0.490969 0.453889 0.377954
309 1 0.469328 0.465708 0.378118
399 1 0.46988 0.489146 0.371998
403 1 0.490054 0.501713 0.379484
393 1 0.450018 0.524342 0.371946
392 1 0.45019 0.569672 0.371617
402 1 0.490096 0.524755 0.371488
398 1 0.46956 0.536568 0.367711
397 1 0.470805 0.559371 0.374975
401 1 0.491203 0.570495 0.366823
364 1 0.32876 0.594649 0.3805
360 1 0.308658 0.605355 0.372788
359 1 0.308772 0.628496 0.366144
455 1 0.32721 0.641913 0.376079
373 1 0.368896 0.594568 0.377866
369 1 0.349235 0.607057 0.376692
368 1 0.347781 0.630699 0.380572
460 1 0.36787 0.641988 0.37431
382 1 0.409648 0.594368 0.376518
381 1 0.388818 0.606214 0.373502
380 1 0.387931 0.629793 0.379978
464 1 0.409007 0.640322 0.373609
388 1 0.429821 0.605535 0.373669
386 1 0.429055 0.628371 0.380286
454 1 0.328421 0.665205 0.369205
459 1 0.368336 0.664723 0.380956
465 1 0.409295 0.663478 0.381221
391 1 0.450056 0.593368 0.378883
470 1 0.449655 0.640468 0.375111
400 1 0.49064 0.593965 0.374987
396 1 0.469892 0.605303 0.373193
395 1 0.469494 0.628132 0.379997
476 1 0.490384 0.640206 0.374975
469 1 0.449573 0.663571 0.38072
475 1 0.490138 0.664064 0.380515
206 2 0.332723 0.595193 0.0381602
450 2 0.380695 0.564912 0.201677
503 2 0.481982 0.529273 0.461483
1330 2 0.259455 0.559279 0.091609
855 2 0.440425 0.415461 0.0358823
1018 2 0.435017 0.468605 0.452697
1376 2 0.463407 0.51486 0.045721
1045 2 0.333958 0.590356 0.292983
1038 2 0.370881 0.434065 0.033879
1213 2 0.260206 0.517544 0.365684
1328 2 0.446082 0.469309 0.210477
1384 2 0.413381 0.514996 0.286621
1491 2 0.342094 0.403959 0.212841
1503 2 0.417515 0.377616 0.203507
1516 2 0.397967 0.62786 0.0337638
1522 2 0.301756 0.45123 0.295282
1540 2 0.387214 0.441425 0.284247
1545 2 0.465369 0.414061 0.287805
1574 2 0.475641 0.622477 0.0442047
2517 2 0.300676 0.411626 0.0444958
1424 2 0.407043 0.618635 0.46343
1713 2 0.261925 0.440887 0.421245
1755 2 0.378132 0.523023 0.0387716
1836 2 0.349532 0.495787 0.207931
1972 2 0.366029 0.537422 0.452521
1850 2 0.364201 0.351338 0.291108
2211 2 0.266899 0.4714 0.182412
2571 2 0.319249 0.651669 0.221607
2414 2 0.281874 0.485562 0.0627206
2533 2 0.358012 0.449549 0.45669
2579 2 0.269292 0.592702 0.428402
2972 2 0.293788 0.562094 0.199741
3101 2 0.283847 0.370235 0.456724
1316 2 0.429888 0.589426 0.29231
4051 2 0.258596 0.636163 0.124856
2711 2 0.394226 0.369272 0.465349
1203 2 0.476632 0.394639 0.465961
2493 2 0.261382 0.640876 0.340212
2791 2 0.261404 0.356282 0.109495
5409 2 0.274617 0.37256 0.316926
250 2 0.471586 0.558234 0.21375
1157 2 0.420639 0.637615 0.204337
776 1 0.348588 0.46635 0.879979
1769 2 0.495522 0.622545 0.287976
7639 2 0.0739344 0.416508 0.259237
7432 2 0.208549 0.534685 0.215559
7827 2 0.0685729 0.462315 0.720281
7908 2 0.102763 0.546181 0.81396
7896 2 0.0997686 0.415243 0.833177
7853 2 0.176332 0.505104 0.550789
1088 2 0.439032 0.341133 0.544753
2385 2 0.374337 0.665265 0.290981
1433 2 0.393834 0.665189 0.79304
7666 2 0.191868 0.36529 0.947819
7613 2 0.24114 0.63336 0.717409
869 1 0.349992 0.48979 0.874705
7903 2 0.208592 0.533556 0.753048
7657 2 0.226137 0.334319 0.24234
7755 2 0.027702 0.337906 0.334765
2227 2 0.436754 0.336142 0.293953
528 2 0.487831 0.457964 0.537509
1613 2 0.499806 0.665544 0.960056
7709 2 0.0197751 0.41119 0.901637
782 1 0.388842 0.465726 0.883252
876 1 0.38898 0.48868 0.892704
951 1 0.329998 0.663846 0.87519
882 1 0.408851 0.500043 0.885504
7802 2 0.0705457 0.349979 0.742288
887 1 0.428331 0.488336 0.873671
862 1 0.328888 0.524652 0.876579
859 1 0.309577 0.536545 0.870379
792 1 0.428474 0.464909 0.871519
6676 2 0.326671 0.635275 0.730168
864 1 0.328487 0.571558 0.87807
868 1 0.349217 0.536142 0.882157
867 1 0.348873 0.559048 0.876597
858 1 0.309208 0.559671 0.86951
946 2 0.462443 0.364502 0.953467
534 1 0.327821 0.337796 0.625864
788 1 0.40953 0.453355 0.881769
875 1 0.389434 0.535499 0.882978
880 1 0.409688 0.569531 0.880644
2175 2 0.469239 0.657498 0.53601
872 1 0.369344 0.52431 0.877994
874 1 0.389064 0.558635 0.875935
871 1 0.369062 0.57044 0.881936
808 1 0.48983 0.453157 0.87459
886 1 0.430758 0.534418 0.883958
891 1 0.449038 0.499571 0.874043
807 1 0.489991 0.429947 0.873386
798 1 0.448114 0.453001 0.866701
896 1 0.469491 0.487891 0.875337
804 1 0.469259 0.464548 0.866937
797 1 0.448797 0.430562 0.877374
873 1 0.369345 0.501493 0.88775
900 1 0.490189 0.500195 0.872112
884 1 0.430254 0.55744 0.880119
890 1 0.45072 0.522113 0.882711
898 1 0.48951 0.569564 0.876444
894 1 0.470049 0.557102 0.88445
1283 2 0.26574 0.651307 0.915884
857 1 0.309045 0.606796 0.867194
889 1 0.449568 0.569061 0.887179
895 1 0.470289 0.534328 0.876158
881 1 0.409617 0.523285 0.880032
861 1 0.328971 0.59461 0.868367
957 1 0.370033 0.639337 0.876716
856 1 0.309712 0.630313 0.866486
879 1 0.410528 0.593346 0.876569
870 1 0.369745 0.593586 0.875528
865 1 0.349985 0.628676 0.866423
866 1 0.349421 0.605378 0.873508
1536 2 0.343862 0.656342 0.956791
961 1 0.409949 0.63952 0.883441
878 1 0.3904 0.604499 0.882239
877 1 0.390289 0.62739 0.875301
885 1 0.430274 0.604762 0.883923
1222 2 0.379872 0.484244 0.803624
1884 2 0.435782 0.362656 0.717489
1021 2 0.280789 0.64542 0.562186
1582 2 0.306036 0.496278 0.535565
1184 2 0.413915 0.502762 0.5464
1167 2 0.258576 0.506634 0.869578
2862 2 0.28066 0.40751 0.702284
1299 2 0.348206 0.469934 0.708754
1047 2 0.408996 0.539394 0.709212
1345 2 0.383411 0.410864 0.794678
2362 2 0.342735 0.395472 0.544495
952 1 0.330006 0.640837 0.865089
3317 2 0.254815 0.56964 0.616043
1195 2 0.461163 0.421087 0.786509
3225 2 0.270418 0.576545 0.928775
1154 2 0.257028 0.366249 0.871034
2979 2 0.274953 0.59107 0.812778
2964 2 0.374229 0.372534 0.96386
2761 2 0.327154 0.503068 0.965476
1156 2 0.422033 0.424737 0.544531
2425 2 0.261891 0.406589 0.588351
1215 2 0.447719 0.583579 0.53355
899 1 0.490064 0.523406 0.878759
1037 2 0.422298 0.621681 0.703256
1198 2 0.354589 0.365202 0.716287
1757 2 0.452236 0.467095 0.953241
1799 2 0.327557 0.579063 0.537348
1314 2 0.420638 0.460158 0.713685
1701 2 0.260233 0.483907 0.65022
1779 2 0.315006 0.543744 0.724444
1264 2 0.424942 0.561318 0.967493
4432 2 0.268225 0.445069 0.829978
1406 2 0.462573 0.587717 0.799975
883 1 0.431276 0.628125 0.885547
979 2 0.466552 0.50609 0.792883
956 1 0.371132 0.663221 0.873009
888 1 0.449863 0.592645 0.88078
967 1 0.451081 0.639619 0.883499
962 1 0.410274 0.662865 0.877739
897 1 0.490827 0.592668 0.883488
893 1 0.47025 0.6044 0.886119
892 1 0.470144 0.627226 0.877474
973 1 0.490608 0.638762 0.872906
966 1 0.450623 0.663103 0.876619
972 1 0.491297 0.662219 0.871839
205 2 0.372172 0.584252 0.792095
543 1 0.368479 0.336443 0.627218
555 1 0.408408 0.336261 0.629152
535 1 0.328101 0.360458 0.620847
530 1 0.307514 0.372208 0.626099
531 1 0.308525 0.39539 0.626682
536 1 0.328103 0.406827 0.630457
544 1 0.368142 0.360333 0.625209
539 1 0.347805 0.371301 0.631934
540 1 0.348384 0.395846 0.63568
545 1 0.368368 0.407195 0.634662
554 1 0.40847 0.359639 0.624288
549 1 0.388379 0.371656 0.629274
550 1 0.387768 0.394888 0.627029
552 1 0.40795 0.40643 0.629763
556 1 0.42864 0.372245 0.629774
558 1 0.428129 0.39534 0.624375
561 1 0.44913 0.337476 0.632424
570 1 0.489804 0.337302 0.626287
564 1 0.449034 0.360372 0.626685
562 1 0.4485 0.407031 0.627671
571 1 0.490109 0.360465 0.62127
566 1 0.469731 0.371259 0.62884
567 1 0.468842 0.394912 0.626385
572 1 0.49009 0.406285 0.628223
537 1 0.327735 0.430003 0.621962
532 1 0.308399 0.441715 0.627781
533 1 0.308337 0.464947 0.631309
625 1 0.327956 0.477308 0.621874
546 1 0.368329 0.429982 0.626463
541 1 0.347941 0.441768 0.626712
542 1 0.348193 0.465642 0.620343
635 1 0.367965 0.477759 0.624305
553 1 0.40819 0.429991 0.626396
547 1 0.388382 0.442201 0.629806
548 1 0.388338 0.465584 0.625083
643 1 0.409285 0.476589 0.630908
557 1 0.428756 0.44123 0.629185
559 1 0.429437 0.465093 0.624722
626 1 0.327565 0.501174 0.627361
622 1 0.30701 0.512753 0.625255
621 1 0.308754 0.536175 0.628561
627 1 0.32838 0.548537 0.624163
636 1 0.368834 0.501464 0.62179
631 1 0.347938 0.512899 0.621563
630 1 0.348026 0.536112 0.628509
634 1 0.368355 0.547307 0.623948
644 1 0.409986 0.500069 0.632557
638 1 0.389153 0.512108 0.630617
637 1 0.388713 0.534925 0.62382
642 1 0.409196 0.546084 0.625661
649 1 0.429621 0.512264 0.630052
647 1 0.429462 0.535323 0.623898
624 1 0.32745 0.57145 0.63037
633 1 0.3691 0.570268 0.627336
641 1 0.409337 0.569019 0.618506
563 1 0.44888 0.429871 0.624157
652 1 0.44994 0.476109 0.627836
573 1 0.490368 0.42897 0.620828
568 1 0.470076 0.440349 0.627307
569 1 0.469336 0.463508 0.62002
662 1 0.48948 0.476159 0.622392
653 1 0.44997 0.500534 0.624949
651 1 0.449426 0.546532 0.623923
663 1 0.4902 0.500314 0.620342
658 1 0.470437 0.51201 0.62512
657 1 0.469895 0.535502 0.627155
661 1 0.489832 0.547044 0.625942
650 1 0.449469 0.570277 0.627664
660 1 0.490423 0.570591 0.620144
620 1 0.30756 0.583492 0.629067
619 1 0.308681 0.606966 0.629718
623 1 0.328844 0.618102 0.627187
629 1 0.348841 0.582027 0.627175
628 1 0.34885 0.605521 0.630865
632 1 0.370105 0.616755 0.625425
640 1 0.389169 0.581759 0.620926
639 1 0.389874 0.604424 0.626881
645 1 0.409515 0.61528 0.617395
648 1 0.428721 0.581514 0.625213
646 1 0.430044 0.604656 0.618495
712 1 0.330013 0.640778 0.633175
710 1 0.310108 0.653009 0.632251
716 1 0.370309 0.640388 0.629265
714 1 0.349882 0.652164 0.627834
720 1 0.40943 0.639398 0.617326
718 1 0.390602 0.652098 0.622177
722 1 0.429779 0.651031 0.623255
654 1 0.450611 0.61688 0.62302
656 1 0.470039 0.582727 0.626619
655 1 0.469938 0.605693 0.617847
659 1 0.489866 0.616901 0.622091
724 1 0.450441 0.639965 0.618369
729 1 0.490529 0.640763 0.619065
726 1 0.470502 0.652255 0.624555
764 1 0.309824 0.345322 0.867675
769 1 0.329351 0.358942 0.87594
773 1 0.349234 0.346731 0.872741
778 1 0.368679 0.360056 0.876457
785 1 0.388506 0.349173 0.86756
790 1 0.408667 0.361794 0.866068
794 1 0.428518 0.349348 0.868102
770 1 0.328784 0.383186 0.873472
765 1 0.308693 0.394636 0.876965
766 1 0.308189 0.417662 0.87856
779 1 0.368909 0.384488 0.872724
774 1 0.348624 0.395537 0.880887
775 1 0.34756 0.418757 0.882397
789 1 0.408603 0.385436 0.875036
783 1 0.388919 0.396191 0.882361
784 1 0.38941 0.419573 0.882735
791 1 0.429588 0.395642 0.879938
793 1 0.429375 0.418551 0.875191
796 1 0.449414 0.361378 0.863164
800 1 0.470484 0.349345 0.861915
805 1 0.490524 0.360982 0.868319
799 1 0.450119 0.38403 0.871447
806 1 0.490521 0.383991 0.865581
801 1 0.469894 0.39555 0.86572
802 1 0.469949 0.418331 0.87568
771 1 0.327573 0.430832 0.881924
780 1 0.368065 0.430244 0.878035
787 1 0.409361 0.430329 0.876283
772 1 0.327971 0.454242 0.874411
767 1 0.308133 0.467261 0.878637
860 1 0.309377 0.490494 0.879493
863 1 0.329076 0.50136 0.872852
781 1 0.367838 0.454345 0.882888
1575 2 0.417239 0.336653 0.0362569
7819 2 0.162783 0.397163 0.21058
7895 2 0.130366 0.59758 0.691669
7915 2 0.0208516 0.51975 0.114516
209 1 0.308638 0.675147 0.128277
211 1 0.329985 0.686009 0.126288
213 1 0.350183 0.674369 0.128991
215 1 0.36957 0.685892 0.12009
217 1 0.389374 0.674015 0.115498
219 1 0.409615 0.685591 0.120942
221 1 0.428823 0.673451 0.128188
223 1 0.448723 0.684687 0.120866
225 1 0.469613 0.672989 0.115655
226 1 0.489551 0.68485 0.113882
452 1 0.30969 0.678444 0.367043
453 1 0.309231 0.700965 0.373452
456 1 0.329296 0.711937 0.374542
457 1 0.347519 0.676865 0.381054
458 1 0.348804 0.69924 0.371044
461 1 0.368969 0.709789 0.382316
462 1 0.389483 0.67485 0.376427
463 1 0.389347 0.697857 0.38567
466 1 0.408636 0.71028 0.381219
467 1 0.429206 0.674906 0.375519
468 1 0.428488 0.6983 0.373143
471 1 0.449713 0.709563 0.378837
472 1 0.469285 0.6751 0.376625
473 1 0.469728 0.698258 0.381717
474 1 0.489514 0.710116 0.371927
504 2 0.465741 0.760725 0.369907
1015 2 0.390042 0.712776 0.193955
1174 2 0.455891 0.685925 0.293238
2325 2 0.389003 0.759181 0.378303
1402 2 0.419501 0.699266 0.464048
3521 2 0.280123 0.714554 0.0956889
4259 2 0.333374 0.733676 0.284333
1623 2 0.371093 0.735203 0.0744501
5773 2 0.449689 0.732681 0.0878134
6991 2 0.420137 0.807983 0.0156699
7739 2 0.197412 0.990668 0.323683
7546 2 0.344991 0.852709 0.277444
7155 2 0.312284 0.757848 0.430465
7509 2 0.394558 0.917608 0.113789
7652 2 0.425842 0.781624 0.240639
964 1 0.430491 0.675394 0.880811
7900 2 0.394086 0.87902 0.584602
7893 2 0.343037 0.882578 0.985026
7906 2 0.286215 0.910492 0.124989
7707 2 0.182612 0.692195 0.145075
3403 2 0.342004 0.673409 0.468899
7851 2 0.191159 0.829584 0.999562
7662 2 0.175619 0.835058 0.686108
7796 2 0.46311 0.932096 0.607651
7861 2 0.252853 0.838575 0.806077
7902 2 0.311655 0.960807 0.376919
711 1 0.309881 0.676663 0.623932
968 1 0.450622 0.709985 0.877632
2744 2 0.258067 0.72076 0.835024
7732 2 0.473354 0.99051 0.9433
7587 2 0.479316 0.836375 0.530225
7874 2 0.474734 0.975216 0.348378
713 1 0.330058 0.687729 0.627063
3199 2 0.39521 0.725957 0.572035
7892 2 0.0466512 0.758571 0.119461
1610 2 0.343266 0.757036 0.921793
7835 2 0.121436 0.831293 0.337623
7855 2 0.232914 0.721059 0.313716
725 1 0.449793 0.687318 0.621979
949 1 0.309891 0.676087 0.87196
7833 2 0.245833 0.845389 0.159045
7219 2 0.373715 0.969493 0.772152
970 1 0.47088 0.699126 0.873674
7734 2 0.266127 0.797462 0.571331
953 1 0.329835 0.710114 0.885922
1260 2 0.427069 0.762202 0.854104
1895 2 0.420724 0.693624 0.962757
723 1 0.430193 0.674436 0.616632
721 1 0.41103 0.686511 0.622629
2192 2 0.397153 0.716492 0.699444
1933 2 0.468447 0.678088 0.787689
955 1 0.350282 0.697735 0.886439
1208 2 0.47172 0.737306 0.625234
717 1 0.369951 0.687042 0.629116
719 1 0.39057 0.674876 0.629844
715 1 0.349797 0.675531 0.63173
727 1 0.471076 0.676122 0.626552
950 1 0.30934 0.69936 0.878192
965 1 0.43094 0.698183 0.872453
959 1 0.390216 0.674767 0.879295
960 1 0.390329 0.698363 0.874199
728 1 0.491135 0.68747 0.619455
963 1 0.411012 0.709894 0.874185
958 1 0.370011 0.709825 0.880662
969 1 0.471448 0.67562 0.878619
954 1 0.350667 0.675995 0.873884
5433 2 0.335103 0.71793 0.790861
3685 2 0.294918 0.728529 0.640828
1794 2 0.479108 0.748535 0.929874
971 1 0.491281 0.710127 0.874089
7837 2 0.194644 0.905747 0.0931119
7821 2 0.130604 0.697195 0.395989
7823 2 0.248652 0.878845 0.466846
7912 2 0.0544177 0.845916 0.0452408
7919 2 0.0326823 0.810818 0.65805
7920 2 0.399145 0.790687 0.690473
7922 2 0.0235815 0.844975 0.512095
7923 2 0.0287413 0.972905 0.799499
13 1 0.530585 0.291175 0.122548
12 1 0.510021 0.301774 0.118883
72 1 0.510518 0.325794 0.124857
14 1 0.550937 0.302656 0.117944
81 1 0.551436 0.325773 0.123817
15 1 0.570618 0.290891 0.125735
17 1 0.611096 0.290602 0.123866
16 1 0.591007 0.302369 0.12968
86 1 0.590954 0.325703 0.125892
19 1 0.652916 0.289616 0.12022
18 1 0.632265 0.301333 0.119973
99 1 0.632034 0.32475 0.126438
21 1 0.692572 0.290132 0.128802
20 1 0.67317 0.301451 0.118563
108 1 0.672799 0.324844 0.124514
262 1 0.53091 0.315495 0.371721
318 1 0.510305 0.325955 0.373795
327 1 0.549975 0.326993 0.367463
263 1 0.570124 0.314783 0.37238
265 1 0.611129 0.315139 0.36776
336 1 0.590188 0.326752 0.373872
267 1 0.651187 0.314546 0.36864
341 1 0.631551 0.32614 0.363815
268 1 0.691371 0.31284 0.387178
352 1 0.672396 0.324694 0.372766
1052 2 0.648768 0.2993 0.210581
1130 2 0.602105 0.311457 0.0377208
1366 2 0.601929 0.241424 0.147862
3141 2 0.550095 0.284733 0.446763
2539 2 0.681555 0.244061 0.0793566
2928 2 0.661263 0.269599 0.427355
7811 2 0.620139 0.145312 0.30768
5140 2 0.741557 0.314961 0.142337
1430 2 0.569144 0.316622 0.213742
254 2 0.605009 0.260213 0.333716
1471 2 0.547597 0.257618 0.057051
2708 2 0.521668 0.253002 0.192654
7775 2 0.997979 0.267372 0.87377
525 1 0.651349 0.290799 0.622115
7918 2 0.783481 0.147146 0.0979443
6617 2 0.744449 0.298792 0.370578
7872 2 0.670786 0.180796 0.898411
7800 2 0.806332 0.194903 0.764652
847 1 0.672201 0.325371 0.87032
264 2 0.508649 0.270418 0.328244
7642 2 0.893115 0.292836 0.0304343
7609 2 0.520737 0.18232 0.258149
7860 2 0.710965 0.0825197 0.355642
7710 2 0.882331 0.0427724 0.0669941
7777 2 0.922625 0.201925 0.641624
7871 2 0.511895 0.0675596 0.17126
7669 2 0.785437 0.0939599 0.307323
2269 2 0.745848 0.331598 0.671652
7763 2 0.56888 0.168342 0.91575
7797 2 0.748395 0.288553 0.832348
822 1 0.550375 0.324934 0.865441
7713 2 0.882911 0.136781 0.522892
519 1 0.529215 0.289705 0.627922
7794 2 0.725441 0.116978 0.866318
7834 2 0.683072 0.134094 0.567297
7854 2 0.779102 0.0322332 0.937927
7760 2 0.915432 0.00789984 0.891307
763 1 0.692526 0.314192 0.874412
520 1 0.550169 0.300423 0.617196
836 1 0.631341 0.32593 0.881206
7742 2 0.756447 0.215112 0.929463
760 1 0.569953 0.314006 0.876171
761 1 0.611748 0.314701 0.880263
587 1 0.550226 0.323767 0.621679
831 1 0.590969 0.325129 0.879847
1118 2 0.633021 0.315656 0.537256
506 2 0.655815 0.310758 0.716447
521 1 0.571072 0.289211 0.618438
2242 2 0.517341 0.264304 0.829448
7880 2 0.629345 0.0772155 0.0589818
518 1 0.509543 0.301793 0.631865
578 1 0.509945 0.324501 0.620343
4431 2 0.693392 0.238428 0.591314
526 1 0.671704 0.302891 0.617671
762 1 0.651964 0.314554 0.874723
2264 2 0.551695 0.244994 0.57461
4522 2 0.677223 0.278608 0.942776
813 1 0.510588 0.325917 0.872453
1586 2 0.570268 0.310568 0.705548
523 1 0.611639 0.289644 0.62742
527 1 0.691331 0.290517 0.614861
522 1 0.591894 0.300268 0.616987
7904 2 0.8817 0.0587867 0.309731
605 1 0.631726 0.323977 0.623733
524 1 0.631375 0.300933 0.628632
1737 2 0.557829 0.273433 0.939198
614 1 0.671704 0.325477 0.629011
592 1 0.590774 0.324397 0.616265
759 1 0.529909 0.313748 0.871976
1507 2 0.622468 0.266865 0.846593
1177 2 0.618625 0.242579 0.6571
7899 2 0.795771 0.0344278 0.204961
7886 2 0.943923 0.226288 0.385897
7269 2 0.997925 0.153291 0.964448
7888 2 0.981262 0.0181584 0.533955
7897 2 0.864527 0.221216 0.214639
7909 2 0.533854 0.0872546 0.890594
7910 2 0.835312 0.137672 0.859526
7911 2 0.541382 0.145898 0.501077
7917 2 0.635065 0.0643412 0.607748
76 1 0.53056 0.337511 0.120239
75 1 0.529747 0.360829 0.124394
71 1 0.5092 0.37168 0.118621
70 1 0.510011 0.395693 0.116188
74 1 0.530327 0.407557 0.118269
80 1 0.550675 0.371963 0.119348
79 1 0.550318 0.395292 0.123787
85 1 0.571575 0.337337 0.120303
92 1 0.611315 0.336806 0.12231
103 1 0.651969 0.336224 0.118705
112 1 0.692311 0.337233 0.124251
84 1 0.571581 0.360262 0.124808
83 1 0.571087 0.405985 0.119165
91 1 0.611502 0.3599 0.124847
90 1 0.591718 0.371678 0.121087
89 1 0.5914 0.394726 0.126232
94 1 0.611085 0.406446 0.122908
102 1 0.652313 0.360401 0.124933
98 1 0.631588 0.371783 0.120153
95 1 0.630691 0.395 0.125922
101 1 0.651764 0.406737 0.126046
111 1 0.692396 0.36086 0.124568
107 1 0.672255 0.372136 0.121958
106 1 0.671631 0.395031 0.130999
109 1 0.69192 0.407035 0.122904
73 1 0.530508 0.430266 0.12728
69 1 0.51089 0.441629 0.128219
68 1 0.510602 0.464822 0.119969
165 1 0.531047 0.476932 0.123553
78 1 0.550204 0.441388 0.120875
77 1 0.550695 0.465239 0.120407
164 1 0.530228 0.500167 0.123237
160 1 0.510147 0.511347 0.130943
161 1 0.510459 0.534486 0.131639
166 1 0.530775 0.545665 0.125278
169 1 0.550711 0.510172 0.129604
170 1 0.551173 0.534094 0.131997
167 1 0.530578 0.569436 0.127443
82 1 0.570133 0.428233 0.126746
174 1 0.57114 0.475805 0.12715
93 1 0.610994 0.429506 0.129521
88 1 0.590536 0.439913 0.12247
87 1 0.591336 0.463726 0.121693
184 1 0.611523 0.47677 0.127652
100 1 0.65242 0.430047 0.132369
97 1 0.631572 0.441474 0.123798
96 1 0.631751 0.464907 0.121451
193 1 0.651978 0.475522 0.127806
110 1 0.693115 0.429968 0.125067
105 1 0.673258 0.441442 0.129841
104 1 0.672311 0.464376 0.122546
201 1 0.691406 0.47653 0.124792
173 1 0.571111 0.499186 0.123503
175 1 0.571515 0.545822 0.127022
183 1 0.611314 0.500268 0.122932
178 1 0.591248 0.511526 0.125976
179 1 0.590438 0.534326 0.118935
185 1 0.611907 0.545171 0.119186
192 1 0.652106 0.499024 0.12788
188 1 0.631484 0.510984 0.122891
189 1 0.632025 0.534249 0.125968
191 1 0.652399 0.545948 0.121971
200 1 0.691914 0.500266 0.124454
196 1 0.671944 0.511515 0.123965
197 1 0.672262 0.534567 0.127047
203 1 0.691999 0.546568 0.118248
176 1 0.571364 0.569229 0.122976
186 1 0.612334 0.568578 0.127932
194 1 0.652241 0.569771 0.127483
202 1 0.691971 0.569703 0.113801
162 1 0.510092 0.581118 0.13051
163 1 0.510502 0.604714 0.128019
168 1 0.530645 0.615786 0.131935
171 1 0.551434 0.580715 0.132716
172 1 0.550456 0.604015 0.127226
230 1 0.530087 0.638661 0.124607
228 1 0.509904 0.651178 0.122117
232 1 0.549456 0.650534 0.128355
177 1 0.570717 0.615228 0.124137
180 1 0.591485 0.580379 0.123294
181 1 0.590688 0.60338 0.128399
182 1 0.610641 0.615694 0.126081
187 1 0.632571 0.581224 0.124223
190 1 0.631692 0.604293 0.132617
195 1 0.651692 0.61666 0.130257
198 1 0.671262 0.581247 0.117068
199 1 0.670559 0.604754 0.118444
204 1 0.690997 0.617101 0.120412
235 1 0.570309 0.639248 0.128183
238 1 0.610207 0.639293 0.130009
236 1 0.58995 0.650636 0.121401
243 1 0.650861 0.639431 0.122673
241 1 0.630785 0.650779 0.128723
247 1 0.690908 0.640337 0.123114
245 1 0.670831 0.65152 0.120046
317 1 0.510349 0.349077 0.376434
322 1 0.530272 0.360695 0.382772
326 1 0.550716 0.349395 0.378391
321 1 0.529235 0.38371 0.383275
316 1 0.509241 0.395626 0.379341
315 1 0.509709 0.418848 0.369528
325 1 0.549042 0.395686 0.375933
324 1 0.549497 0.418305 0.379776
331 1 0.570154 0.361813 0.369535
332 1 0.589968 0.349489 0.365007
338 1 0.610704 0.360567 0.364037
345 1 0.631208 0.34899 0.369799
349 1 0.651332 0.360246 0.369524
354 1 0.671029 0.348124 0.379587
358 1 0.69101 0.360781 0.377591
330 1 0.569941 0.384887 0.377474
337 1 0.611543 0.383486 0.37148
335 1 0.590401 0.395251 0.369843