
     Program PWSCF v.7.2 starts on  2Sep2024 at 20:10:33 

     This program is part of the open-source Quantum ESPRESSO suite
     for quantum simulation of materials; please cite
         "P. Giannozzi et al., J. Phys.:Condens. Matter 21 395502 (2009);
         "P. Giannozzi et al., J. Phys.:Condens. Matter 29 465901 (2017);
         "P. Giannozzi et al., J. Chem. Phys. 152 154105 (2020);
          URL http://www.quantum-espresso.org", 
     in publications or presentations arising from this work. More details at
     http://www.quantum-espresso.org/quote

     Parallel version (MPI & OpenMP), running on      96 processor cores
     Number of MPI processes:                96
     Threads/MPI process:                     1

     MPI processes distributed on     2 nodes
     366341 MiB available memory on the printing compute node when the environment starts
 
     Reading input from hydrogen_absorption3.in

     Current dimensions of program PWSCF are:
     Max number of different atomic species (ntypx) = 10
     Max number of k-points (npk) =  40000
     Max angular momentum in pseudopotentials (lmaxx) =  4

     IMPORTANT: XC functional enforced from input :
     Exchange-correlation= LDA
                           (   1   1   0   0   0   0   0)
     Any further DFT definition will be discarded
     Please, verify this is what you really want

 
     K-points division:     npool     =       2
     R & G space division:  proc/nbgrp/npool/nimage =      48
     Subspace diagonalization in iterative solution of the eigenvalue problem:
     a serial algorithm will be used

 
     Parallelization info
     --------------------
     sticks:   dense  smooth     PW     G-vecs:    dense   smooth      PW
     Min          48      19      5                 4672     1180     186
     Max          49      20      6                 4690     1196     200
     Sum        2347     955    283               224973    56953    9279
 
     Using Slab Decomposition
 

     Title: 
     3H2_absorption_C                                                           


     bravais-lattice index     =            0
     lattice parameter (alat)  =       8.0000  a.u.
     unit-cell volume          =    1665.1219 (a.u.)^3
     number of atoms/cell      =           30
     number of atomic types    =            2
     number of electrons       =       102.00
     number of Kohn-Sham states=           61
     kinetic-energy cutoff     =      40.0000  Ry
     charge density cutoff     =     400.0000  Ry
     scf convergence threshold =      1.0E-06
     mixing beta               =       0.0500
     number of iterations used =            8  local-TF  mixing
     energy convergence thresh.=      1.0E-04
     force convergence thresh. =      1.0E-03
     press convergence thresh. =      5.0E-01
     Exchange-correlation= LDA
                           (   1   1   0   0   0   0   0)
     nstep                     =           50


     celldm(1)=   8.000004  celldm(2)=   0.000000  celldm(3)=   0.000000
     celldm(4)=   0.000000  celldm(5)=   0.000000  celldm(6)=   0.000000

     crystal axes: (cart. coord. in units of alat)
               a(1) = (   1.155269   0.000561  -0.023516 )  
               a(2) = (  -0.579593   0.996657  -0.070788 )  
               a(3) = (  -0.041001  -0.208656   2.841851 )  

     reciprocal axes: (cart. coord. in units 2 pi/alat)
               b(1) = (  0.866365  0.507357  0.049751 )  
               b(2) = (  0.001018  1.009210  0.074114 )  
               b(3) = (  0.007194  0.029337  0.354141 )  


     PseudoPot. # 1 for C  read from file:
     ../../potentials/C.pz-n-rrkjus_psl.0.1.UPF
     MD5 check sum: a3cecbabebb5b3a1aff122f23eb09bb0
     Pseudo is Ultrasoft + core correction, Zval =  4.0
     Generated using "atomic" code by A. Dal Corso  v.5.0.2 svn rev. 9415
     Using radial grid of 1073 points,  4 beta functions with: 
                l(1) =   0
                l(2) =   0
                l(3) =   1
                l(4) =   1
     Q(r) pseudized with 0 coefficients 


     PseudoPot. # 2 for H  read from file:
     ../../potentials/H.pz-rrkjus_psl.0.1.UPF
     MD5 check sum: 1467ebfaa2880178e80d097b970df8c7
     Pseudo is Ultrasoft, Zval =  1.0
     Generated using "atomic" code by A. Dal Corso  v.5.0.2 svn rev. 9415
     Using radial grid of  929 points,  2 beta functions with: 
                l(1) =   0
                l(2) =   0
     Q(r) pseudized with 0 coefficients 


     atomic species   valence    mass     pseudopotential
        C              4.00    12.01100     C ( 1.00)
        H              1.00     1.00784     H ( 1.00)

     No symmetry found



   Cartesian axes

     site n.     atom                  positions (alat units)
         1           C   tau(   1) = (  -0.0270585  -0.0962381   0.4876179  )
         2           C   tau(   2) = (  -0.0149867  -0.0262104   1.2492854  )
         3           C   tau(   3) = (  -0.0169542  -0.1767138   2.5168653  )
         4           C   tau(   4) = (  -0.0278454   0.2356662   0.4586324  )
         5           C   tau(   5) = (   0.2734285   0.1399902   1.2296471  )
         6           C   tau(   6) = (  -0.0172675   0.1556234   2.4898454  )
         7           C   tau(   7) = (   0.5504992  -0.0964405   0.4746559  )
         8           C   tau(   8) = (   0.5624673  -0.0261462   1.2370476  )
         9           C   tau(   9) = (   0.5612247  -0.1754791   2.5029039  )
        10           C   tau(  10) = (   0.5496623   0.2356047   0.4454827  )
        11           C   tau(  11) = (   0.8511264   0.1400238   1.2174841  )
        12           C   tau(  12) = (   0.5609015   0.1568756   2.4765240  )
        13           C   tau(  13) = (  -0.3169722   0.4015882   0.4497177  )
        14           C   tau(  14) = (  -0.3052995   0.4717825   1.2133453  )
        15           C   tau(  15) = (  -0.3060145   0.3226466   2.4810715  )
        16           C   tau(  16) = (  -0.3177533   0.7338180   0.4232402  )
        17           C   tau(  17) = (  -0.0165252   0.6380742   1.1941079  )
        18           C   tau(  18) = (  -0.3068705   0.6546231   2.4514775  )
        19           C   tau(  19) = (   0.2608785   0.4020751   0.4388183  )
        20           C   tau(  20) = (   0.2724950   0.4724533   1.2015765  )
        21           C   tau(  21) = (   0.2709940   0.3220652   2.4696799  )
        22           C   tau(  22) = (   0.2600444   0.7343911   0.4126625  )
        23           C   tau(  23) = (   0.5610928   0.6385005   1.1824041  )
        24           C   tau(  24) = (   0.2701832   0.6542210   2.4416449  )
        25           H   tau(  25) = (   0.2388365   0.8241450   1.7802635  )
        26           H   tau(  26) = (   0.3613755   0.9604350   1.7833676  )
        27           H   tau(  27) = (  -0.1222013   0.4504266   1.8181313  )
        28           H   tau(  28) = (   0.0391502   0.3867075   1.8744303  )
        29           H   tau(  29) = (   0.5316577   0.4548151   1.8336233  )
        30           H   tau(  30) = (   0.5408518   0.2720881   1.8340016  )

     number of k points=    36  Gaussian smearing, width (Ry)=  0.0100
                       cart. coord. in units 2pi/alat
        k(    1) = (   0.0740806   0.1337148   0.0988573), wk =   0.0555556
        k(    2) = (   0.0704834   0.1190464  -0.0782132), wk =   0.0555556
        k(    3) = (   0.0742503   0.3019165   0.1112096), wk =   0.0555556
        k(    4) = (   0.0706531   0.2872481  -0.0658610), wk =   0.0555556
        k(    5) = (   0.0744200   0.4701182   0.1235619), wk =   0.0555556
        k(    6) = (   0.0708228   0.4554497  -0.0535087), wk =   0.0555556
        k(    7) = (   0.0735714  -0.3708902   0.0618006), wk =   0.0555556
        k(    8) = (   0.0699742  -0.3855587  -0.1152700), wk =   0.0555556
        k(    9) = (   0.0737411  -0.2026885   0.0741528), wk =   0.0555556
        k(   10) = (   0.0701439  -0.2173570  -0.1029177), wk =   0.0555556
        k(   11) = (   0.0739108  -0.0344868   0.0865051), wk =   0.0555556
        k(   12) = (   0.0703137  -0.0491553  -0.0905655), wk =   0.0555556
        k(   13) = (   0.2184748   0.2182744   0.1071492), wk =   0.0555556
        k(   14) = (   0.2148776   0.2036059  -0.0699214), wk =   0.0555556
        k(   15) = (   0.2186445   0.3864761   0.1195015), wk =   0.0555556
        k(   16) = (   0.2150473   0.3718076  -0.0575691), wk =   0.0555556
        k(   17) = (   0.2188142   0.5546778   0.1318537), wk =   0.0555556
        k(   18) = (   0.2152170   0.5400093  -0.0452169), wk =   0.0555556
        k(   19) = (   0.2179656  -0.2863306   0.0700924), wk =   0.0555556
        k(   20) = (   0.2143684  -0.3009991  -0.1069782), wk =   0.0555556
        k(   21) = (   0.2181353  -0.1181290   0.0824447), wk =   0.0555556
        k(   22) = (   0.2145382  -0.1327974  -0.0946259), wk =   0.0555556
        k(   23) = (   0.2183050   0.0500727   0.0947969), wk =   0.0555556
        k(   24) = (   0.2147079   0.0354043  -0.0822736), wk =   0.0555556
        k(   25) = (   0.3628690   0.3028340   0.1154410), wk =   0.0555556
        k(   26) = (   0.3592718   0.2881655  -0.0616295), wk =   0.0555556
        k(   27) = (   0.3630387   0.4710356   0.1277933), wk =   0.0555556
        k(   28) = (   0.3594415   0.4563672  -0.0492773), wk =   0.0555556
        k(   29) = (   0.3632084   0.6392373   0.1401456), wk =   0.0555556
        k(   30) = (   0.3596113   0.6245688  -0.0369250), wk =   0.0555556
        k(   31) = (   0.3623598  -0.2017711   0.0783843), wk =   0.0555556
        k(   32) = (   0.3587627  -0.2164395  -0.0986863), wk =   0.0555556
        k(   33) = (   0.3625295  -0.0335694   0.0907365), wk =   0.0555556
        k(   34) = (   0.3589324  -0.0482379  -0.0863340), wk =   0.0555556
        k(   35) = (   0.3626993   0.1346323   0.1030888), wk =   0.0555556
        k(   36) = (   0.3591021   0.1199638  -0.0739818), wk =   0.0555556

     Dense  grid:   224973 G-vectors     FFT dimensions: (  60,  60, 150)

     Smooth grid:    56953 G-vectors     FFT dimensions: (  40,  40,  96)

     Estimated max dynamical RAM per process >      12.06 MB

     Estimated total dynamical RAM >       1.08 GB

     Check: negative core charge=   -0.000002

     Initial potential from superposition of free atoms

     starting charge     101.9991, renormalised to     102.0000
     Starting wfcs are  102 randomized atomic wfcs

     total cpu time spent up to now is        0.9 secs

     Self-consistent Calculation

     iteration #  1     ecut=    40.00 Ry     beta= 0.05
     Davidson diagonalization with overlap
     ethr =  1.00E-02,  avg # of iterations =  3.4

     total cpu time spent up to now is        2.3 secs

     total energy              =    -294.87910253 Ry
     estimated scf accuracy    <       1.84335634 Ry

     iteration #  2     ecut=    40.00 Ry     beta= 0.05
     Davidson diagonalization with overlap
     ethr =  1.81E-03,  avg # of iterations =  3.4

     total cpu time spent up to now is        3.4 secs

     total energy              =    -295.75665350 Ry
     estimated scf accuracy    <       2.32460991 Ry

     iteration #  3     ecut=    40.00 Ry     beta= 0.05
     Davidson diagonalization with overlap
     ethr =  1.81E-03,  avg # of iterations =  1.0

     total cpu time spent up to now is        4.0 secs

     total energy              =    -293.90592972 Ry
     estimated scf accuracy    <       3.49348115 Ry

     iteration #  4     ecut=    40.00 Ry     beta= 0.05
     Davidson diagonalization with overlap
     ethr =  1.81E-03,  avg # of iterations =  2.4

     total cpu time spent up to now is        5.0 secs

     total energy              =    -293.97015160 Ry
     estimated scf accuracy    <       0.34353873 Ry

     iteration #  5     ecut=    40.00 Ry     beta= 0.05
     Davidson diagonalization with overlap
     ethr =  3.37E-04,  avg # of iterations =  7.7

     total cpu time spent up to now is        6.7 secs

     total energy              =    -294.06306275 Ry
     estimated scf accuracy    <       0.10779118 Ry

     iteration #  6     ecut=    40.00 Ry     beta= 0.05
     Davidson diagonalization with overlap
     ethr =  1.06E-04,  avg # of iterations =  4.1

     total cpu time spent up to now is        7.8 secs

     total energy              =    -294.02294798 Ry
     estimated scf accuracy    <       0.08822251 Ry

     iteration #  7     ecut=    40.00 Ry     beta= 0.05
     Davidson diagonalization with overlap
     ethr =  8.65E-05,  avg # of iterations =  5.8

     total cpu time spent up to now is        9.4 secs

     total energy              =    -294.04764850 Ry
     estimated scf accuracy    <       0.00971018 Ry

     iteration #  8     ecut=    40.00 Ry     beta= 0.05
     Davidson diagonalization with overlap
     c_bands:  2 eigenvalues not converged
     c_bands:  2 eigenvalues not converged
     ethr =  9.52E-06,  avg # of iterations = 12.7

     total cpu time spent up to now is       12.1 secs

     total energy              =    -294.05773354 Ry
     estimated scf accuracy    <       0.01242142 Ry

     iteration #  9     ecut=    40.00 Ry     beta= 0.05
     Davidson diagonalization with overlap
     ethr =  9.52E-06,  avg # of iterations =  8.0

     total cpu time spent up to now is       14.1 secs

     total energy              =    -294.06469115 Ry
     estimated scf accuracy    <       0.03900025 Ry

     iteration # 10     ecut=    40.00 Ry     beta= 0.05
     Davidson diagonalization with overlap
     ethr =  9.52E-06,  avg # of iterations =  2.5

     total cpu time spent up to now is       14.8 secs

     total energy              =    -294.06769923 Ry
     estimated scf accuracy    <       0.03580899 Ry

     iteration # 11     ecut=    40.00 Ry     beta= 0.05
     Davidson diagonalization with overlap
     ethr =  9.52E-06,  avg # of iterations =  1.0

     total cpu time spent up to now is       15.4 secs

     total energy              =    -294.05138580 Ry
     estimated scf accuracy    <       0.04130231 Ry

     iteration # 12     ecut=    40.00 Ry     beta= 0.05
     Davidson diagonalization with overlap
     ethr =  9.52E-06,  avg # of iterations =  2.0

     total cpu time spent up to now is       16.1 secs

     total energy              =    -294.04601719 Ry
     estimated scf accuracy    <       0.01275274 Ry

     iteration # 13     ecut=    40.00 Ry     beta= 0.05
     Davidson diagonalization with overlap
     ethr =  9.52E-06,  avg # of iterations =  4.3

     total cpu time spent up to now is       17.4 secs

     total energy              =    -294.04821190 Ry
     estimated scf accuracy    <       0.00122751 Ry

     iteration # 14     ecut=    40.00 Ry     beta= 0.05
     Davidson diagonalization with overlap
     c_bands:  1 eigenvalues not converged
     ethr =  1.20E-06,  avg # of iterations =  8.0

     total cpu time spent up to now is       18.9 secs

     total energy              =    -294.04829563 Ry
     estimated scf accuracy    <       0.00101152 Ry

     iteration # 15     ecut=    40.00 Ry     beta= 0.05
     Davidson diagonalization with overlap
     c_bands:  1 eigenvalues not converged
     ethr =  9.92E-07,  avg # of iterations =  2.1

     total cpu time spent up to now is       19.7 secs

     total energy              =    -294.04802688 Ry
     estimated scf accuracy    <       0.00074448 Ry

     iteration # 16     ecut=    40.00 Ry     beta= 0.05
     Davidson diagonalization with overlap
     ethr =  7.30E-07,  avg # of iterations =  2.9

     total cpu time spent up to now is       20.6 secs

     total energy              =    -294.04808886 Ry
     estimated scf accuracy    <       0.00025081 Ry

     iteration # 17     ecut=    40.00 Ry     beta= 0.05
     Davidson diagonalization with overlap
     ethr =  2.46E-07,  avg # of iterations =  5.2

     total cpu time spent up to now is       21.9 secs

     total energy              =    -294.04820826 Ry
     estimated scf accuracy    <       0.00018828 Ry

     iteration # 18     ecut=    40.00 Ry     beta= 0.05
     Davidson diagonalization with overlap
     ethr =  1.85E-07,  avg # of iterations =  2.6

     total cpu time spent up to now is       23.0 secs

     total energy              =    -294.04811425 Ry
     estimated scf accuracy    <       0.00030775 Ry

     iteration # 19     ecut=    40.00 Ry     beta= 0.05
     Davidson diagonalization with overlap
     ethr =  1.85E-07,  avg # of iterations =  5.0

     total cpu time spent up to now is       24.5 secs

     total energy              =    -294.04804368 Ry
     estimated scf accuracy    <       0.00032990 Ry

     iteration # 20     ecut=    40.00 Ry     beta= 0.05
     Davidson diagonalization with overlap
     ethr =  1.85E-07,  avg # of iterations =  4.1

     total cpu time spent up to now is       25.6 secs

     total energy              =    -294.04813365 Ry
     estimated scf accuracy    <       0.00003343 Ry

     iteration # 21     ecut=    40.00 Ry     beta= 0.05
     Davidson diagonalization with overlap
     ethr =  3.28E-08,  avg # of iterations =  5.0

     total cpu time spent up to now is       27.0 secs

     total energy              =    -294.04815944 Ry
     estimated scf accuracy    <       0.00013381 Ry

     iteration # 22     ecut=    40.00 Ry     beta= 0.05
     Davidson diagonalization with overlap
     ethr =  3.28E-08,  avg # of iterations =  2.0

     total cpu time spent up to now is       27.8 secs

     total energy              =    -294.04811195 Ry
     estimated scf accuracy    <       0.00013540 Ry

     iteration # 23     ecut=    40.00 Ry     beta= 0.05
     Davidson diagonalization with overlap
     ethr =  3.28E-08,  avg # of iterations =  2.0

     total cpu time spent up to now is       28.5 secs

     total energy              =    -294.04808969 Ry
     estimated scf accuracy    <       0.00005112 Ry

     iteration # 24     ecut=    40.00 Ry     beta= 0.05
     Davidson diagonalization with overlap
     ethr =  3.28E-08,  avg # of iterations =  4.0

     total cpu time spent up to now is       29.6 secs

     total energy              =    -294.04809893 Ry
     estimated scf accuracy    <       0.00000430 Ry

     iteration # 25     ecut=    40.00 Ry     beta= 0.05
     Davidson diagonalization with overlap
     ethr =  4.21E-09,  avg # of iterations =  4.0

     total cpu time spent up to now is       30.5 secs

     total energy              =    -294.04809856 Ry
     estimated scf accuracy    <       0.00000463 Ry

     iteration # 26     ecut=    40.00 Ry     beta= 0.05
     Davidson diagonalization with overlap
     ethr =  4.21E-09,  avg # of iterations =  1.8

     total cpu time spent up to now is       31.3 secs

     total energy              =    -294.04809886 Ry
     estimated scf accuracy    <       0.00000283 Ry

     iteration # 27     ecut=    40.00 Ry     beta= 0.05
     Davidson diagonalization with overlap
     ethr =  2.78E-09,  avg # of iterations =  1.0

     total cpu time spent up to now is       31.9 secs

     total energy              =    -294.04809887 Ry
     estimated scf accuracy    <       0.00000291 Ry

     iteration # 28     ecut=    40.00 Ry     beta= 0.05
     Davidson diagonalization with overlap
     ethr =  2.78E-09,  avg # of iterations =  1.0

     total cpu time spent up to now is       32.6 secs

     total energy              =    -294.04809911 Ry
     estimated scf accuracy    <       0.00000183 Ry

     iteration # 29     ecut=    40.00 Ry     beta= 0.05
     Davidson diagonalization with overlap
     ethr =  1.79E-09,  avg # of iterations =  1.0

     total cpu time spent up to now is       33.3 secs

     total energy              =    -294.04809868 Ry
     estimated scf accuracy    <       0.00000183 Ry

     iteration # 30     ecut=    40.00 Ry     beta= 0.05
     Davidson diagonalization with overlap
     ethr =  1.79E-09,  avg # of iterations =  1.7

     total cpu time spent up to now is       33.9 secs

     End of self-consistent calculation

          k = 0.0741 0.1337 0.0989 (  7111 PWs)   bands (ev):

   -13.8965 -13.7674 -13.6432  -9.5448  -9.5398  -9.4452  -9.4399  -9.3604
    -9.3563  -8.4736  -8.4057  -8.3381  -7.6419  -7.5915  -7.5368  -6.6458
    -6.6432  -6.5710  -6.5657  -6.5026  -6.5004  -3.2659  -2.4713  -1.7600
    -1.4121  -1.3793  -1.3569  -0.9325  -0.9285  -0.9004  -0.8922  -0.8841
    -0.8837  -0.7229   0.7198   0.9632   2.0988   2.1173   2.1258   2.1681
     2.1942   2.2994   2.3133   2.3329   2.6936   2.7846   2.8945   3.1209
     3.1465   3.2891   3.7161   6.8000   7.2159   7.5426   7.5645   7.6585
     7.8928   7.9155   8.2880   8.3351  10.0115

          k = 0.0705 0.1190-0.0782 (  7127 PWs)   bands (ev):

   -13.8975 -13.7654 -13.6445  -9.5435  -9.5390  -9.4484  -9.4420  -9.3586
    -9.3552  -8.4739  -8.4052  -8.3384  -7.6425  -7.5902  -7.5374  -6.6460
    -6.6438  -6.5696  -6.5654  -6.5029  -6.5011  -3.2033  -2.6591  -1.5275
    -1.4123  -1.3788  -1.3572  -0.9325  -0.9285  -0.9008  -0.8924  -0.8842
    -0.8837  -0.8344   0.7124   0.9591   2.0997   2.1176   2.1264   2.2094
     2.2666   2.2997   2.3142   2.3327   2.6466   2.6669   2.8995   3.1412
     3.1816   3.2702   3.7312   6.7856   7.2430   7.5114   7.5788   7.6453
     7.8507   7.9719   8.3094   8.3284  10.1685

          k = 0.0743 0.3019 0.1112 (  7107 PWs)   bands (ev):

   -13.4804 -13.3557 -13.2334 -11.0317 -10.9192 -10.8227 -10.0862  -9.9813
    -9.8915  -8.7314  -8.6406  -8.5595  -6.7406  -6.6674  -6.6045  -5.4632
    -5.3965  -5.3371  -4.5683  -4.5003  -4.4487  -2.8202  -2.6742  -2.6296
    -2.5948  -1.8751  -1.7333  -1.6897  -1.6678  -1.4302  -0.5237  -0.4926
    -0.4764  -0.3364  -0.0563   0.6048   0.7218   0.7513   0.7639   0.7754
     1.5317   1.5563   1.5696   1.6458   1.6889   1.9066   2.4292   2.8503
     3.0316   3.4614   3.9827   7.0337   7.3448   7.6707   8.3857   8.7118
     9.0670   9.5518   9.9041  10.0220  10.3133

          k = 0.0707 0.2872-0.0659 (  7119 PWs)   bands (ev):

   -13.4821 -13.3517 -13.2357 -11.0301 -10.9228 -10.8207 -10.0849  -9.9843
    -9.8899  -8.7315  -8.6402  -8.5598  -6.7417  -6.6649  -6.6059  -5.4635
    -5.3958  -5.3375  -4.5679  -4.5010  -4.4482  -2.7087  -2.6724  -2.6288
    -2.5947  -2.2478  -1.7332  -1.6900  -1.6675  -0.9443  -0.5517  -0.5229
    -0.4920  -0.4762  -0.1232   0.6804   0.7202   0.7516   0.7683   0.9479
     1.2328   1.5317   1.5563   1.5700   1.7887   2.1110   2.2566   2.9223
     3.0155   3.5005   3.9626   7.0223   7.3545   7.6750   8.3849   8.7156
     9.0681   9.5729   9.8682   9.9834  10.3255

          k = 0.0744 0.4701 0.1236 (  7113 PWs)   bands (ev):

   -12.7366 -12.6179 -12.5012 -12.2465 -12.1247 -12.0192 -10.3232 -10.2170
   -10.1244  -8.9423  -8.8491  -8.7651  -5.5356  -5.4850  -5.4509  -4.3105
    -4.2672  -4.2375  -3.9623  -3.9255  -3.8969  -2.7864  -2.7495  -2.7310
    -2.3653  -2.3103  -2.2744  -2.0891  -1.2913  -1.2710  -1.2244  -1.1949
    -0.8449  -0.7840  -0.6704   0.1734   0.2023   0.2174   0.3880   0.5217
     0.6027   0.6080   0.6315   0.6459   0.8849   1.4712   2.2471   2.7141
     3.0119   3.4972   4.0698   7.3818   7.6139   7.8065   9.0497   9.2446
     9.4544   9.6546  11.3117  11.9433  12.1262

          k = 0.0708 0.4554-0.0535 (  7119 PWs)   bands (ev):

   -12.7387 -12.6132 -12.5039 -12.2446 -12.1291 -12.0166 -10.3223 -10.2190
   -10.1233  -8.9429  -8.8478  -8.7659  -5.5359  -5.4842  -5.4514  -4.3105
    -4.2674  -4.2374  -3.9630  -3.9238  -3.8978  -2.7861  -2.7506  -2.7302
    -2.3644  -2.3116  -2.2737  -2.0172  -1.4109  -1.2726  -1.2500  -1.2219
    -1.1947  -0.3560  -0.1401  -0.0044   0.1592   0.1736   0.2026   0.2175
     0.6027   0.6312   0.6456   0.6567   1.0666   1.5736   2.0893   2.7865
     2.9847   3.5440   4.0504   7.3911   7.5931   7.8185   9.0421   9.2636
     9.4420   9.6519  11.8300  11.9775  12.0260

          k = 0.0736-0.3709 0.0618 (  7112 PWs)   bands (ev):

   -13.1508 -13.0226 -12.9095 -11.6750 -11.5635 -11.4558 -10.2433 -10.1386
   -10.0454  -8.8698  -8.7784  -8.6959  -6.0992  -6.0337  -5.9773  -4.8384
    -4.7742  -4.7279  -3.4710  -3.4124  -3.3855  -3.3658  -3.3325  -3.2990
    -2.3623  -2.3000  -2.2590  -2.2293  -1.8698  -0.8214  -0.5020  -0.2314
    -0.2085  -0.1915  -0.1767  -0.1733  -0.1614  -0.1542   0.2127   0.5086
     0.7359   1.0692   1.0943   1.1070   1.5342   1.5852   2.2676   2.7940
     3.0449   3.4963   3.9894   7.2698   7.5063   7.7543   8.7746   9.0314
     9.3404   9.7659  10.7764  11.0572  11.4566

          k = 0.0700-0.3856-0.1153 (  7115 PWs)   bands (ev):

   -13.1490 -13.0268 -12.9071 -11.6768 -11.5594 -11.4581 -10.2431 -10.1392
   -10.0450  -8.8707  -8.7763  -8.6971  -6.0990  -6.0342  -5.9770  -4.8378
    -4.7757  -4.7270  -3.4713  -3.4117  -3.3856  -3.3662  -3.3319  -3.2994
    -2.4693  -2.3007  -2.2599  -2.2293  -1.4891  -1.1095  -0.6399  -0.2330
    -0.2083  -0.1925  -0.1768  -0.1722  -0.1612  -0.1291   0.0898   0.6475
     1.0689   1.0945   1.1069   1.1471   1.2569   1.6098   2.1924   2.8332
     3.0199   3.5219   3.9870   7.2752   7.4943   7.7610   8.7614   9.0644
     9.3189   9.7914  10.7328  10.8626  11.0832

          k = 0.0737-0.2027 0.0742 (  7122 PWs)   bands (ev):

   -13.7310 -13.5996 -13.4807 -10.3150 -10.2125 -10.1169  -9.8505  -9.7495
    -9.6582  -8.5500  -8.4704  -8.4032  -7.3062  -7.2410  -7.1828  -6.0797
    -6.0021  -5.9430  -5.6332  -5.5596  -5.4998  -3.0051  -2.4892  -1.9921
    -1.9474  -1.9237  -1.3035  -1.2447  -1.2116  -1.1905  -0.7680  -0.7358
    -0.7202  -0.6987   0.3534   0.8458   1.5045   1.5368   1.5467   1.5665
     1.9128   1.9698   1.9824   1.9914   1.9976   2.5047   2.6823   3.0386
     3.0883   3.3962   3.7286   6.9521   7.3133   7.5177   7.8754   8.3183
     8.4731   8.7400   8.7881   9.2747  10.1383

          k = 0.0701-0.2174-0.1029 (  7114 PWs)   bands (ev):

   -13.7298 -13.6024 -13.4791 -10.3162 -10.2097 -10.1185  -9.8509  -9.7487
    -9.6586  -8.5509  -8.4684  -8.4043  -7.3051  -7.2435  -7.1815  -6.0787
    -6.0044  -5.9417  -5.6333  -5.5593  -5.5000  -3.0851  -2.2436  -1.9920
    -1.9474  -1.9237  -1.6132  -1.2445  -1.2122  -1.1902  -0.7677  -0.7362
    -0.7193  -0.5500   0.3683   0.8561   1.4092   1.5136   1.5404   1.5478
     1.9166   1.9705   1.9884   1.9978   2.1986   2.4977   2.5798   3.0574
     3.0836   3.3816   3.7415   6.9894   7.2583   7.5365   7.8945   8.2937
     8.4417   8.7419   8.8404   9.2458  10.1970

          k = 0.0739-0.0345 0.0865 (  7129 PWs)   bands (ev):

   -13.9805 -13.8489 -13.7260  -9.1720  -9.0784  -8.9924  -8.7659  -8.7566
    -8.6817  -8.6761  -8.6157  -8.6109  -7.5220  -7.5183  -7.4558  -7.4519
    -7.3948  -7.3892  -7.1437  -7.0619  -6.9973  -3.3275  -2.6843  -1.7159
    -1.0161  -1.0115  -0.9837  -0.9751  -0.9673  -0.9668  -0.8669  -0.8400
    -0.8132  -0.7989   0.8941   1.0483   2.3986   2.4135   2.4280   2.4553
     2.4930   2.5029   2.5126   2.7748   2.8193   2.9246   3.0717   3.1192
     3.3773   3.3862   3.4484   7.0103   7.0735   7.1109   7.2648   7.3617
     7.5907   7.6902   7.7336   8.0378  10.0055

          k = 0.0703-0.0492-0.0906 (  7134 PWs)   bands (ev):

   -13.9803 -13.8493 -13.7258  -9.1728  -9.0767  -8.9933  -8.7649  -8.7569
    -8.6838  -8.6753  -8.6146  -8.6113  -7.5222  -7.5195  -7.4539  -7.4509
    -7.3946  -7.3908  -7.1427  -7.0643  -6.9960  -3.3387  -2.6514  -1.7562
    -1.0160  -1.0115  -0.9841  -0.9752  -0.9671  -0.9666  -0.8480  -0.8395
    -0.8132  -0.7989   0.8948   1.0486   2.4002   2.4149   2.4300   2.4606
     2.4931   2.5029   2.5126   2.7642   2.8062   2.8856   3.1029   3.1471
     3.3656   3.4091   3.4303   6.9754   7.0886   7.1204   7.2858   7.4505
     7.5429   7.6460   7.6896   8.0711  10.0009

          k = 0.2185 0.2183 0.1071 (  7115 PWs)   bands (ev):

   -13.4807 -13.3556 -13.2338 -11.0339 -10.9216 -10.8247 -10.0829  -9.9778
    -9.8887  -8.7284  -8.6392  -8.5567  -6.7450  -6.6691  -6.6083  -5.4660
    -5.3945  -5.3391  -4.5673  -4.5044  -4.4481  -2.8136  -2.6730  -2.6287
    -2.5935  -1.9087  -1.7343  -1.6949  -1.6673  -1.3905  -0.5212  -0.4853
    -0.4784  -0.3409  -0.0988   0.6060   0.7233   0.7467   0.7695   0.8077
     1.5304   1.5554   1.5683   1.6302   1.6945   1.9075   2.4544   2.8425
     3.0262   3.4903   3.9638   7.0088   7.3558   7.6867   8.3702   8.7058
     9.0635   9.5569   9.9260  10.0696  10.3132

          k = 0.2149 0.2036-0.0699 (  7113 PWs)   bands (ev):

   -13.4822 -13.3522 -13.2357 -11.0323 -10.9252 -10.8226 -10.0816  -9.9808
    -9.8870  -8.7295  -8.6367  -8.5581  -6.7447  -6.6697  -6.6079  -5.4657
    -5.3951  -5.3388  -4.5677  -4.5035  -4.4486  -2.7167  -2.6718  -2.6280
    -2.5935  -2.2263  -1.7343  -1.6952  -1.6672  -0.9802  -0.5229  -0.5169
    -0.4842  -0.4776  -0.1649   0.7182   0.7252   0.7484   0.7699   0.9225
     1.2388   1.5307   1.5559   1.5684   1.8148   2.1055   2.2504   2.9319
     3.0238   3.4744   3.9843   7.0228   7.3369   7.6904   8.3888   8.6744
     9.0786   9.5644   9.9177  10.0539  10.3279

          k = 0.2186 0.3865 0.1195 (  7105 PWs)   bands (ev):

   -12.9017 -12.7817 -12.6637 -11.4376 -11.4344 -11.3233 -11.3181 -11.2220
   -11.2193  -7.6364  -7.5743  -7.5125  -6.8603  -6.8254  -6.7800  -4.2818
    -4.2324  -4.1896  -3.3951  -3.3902  -3.3404  -3.3370  -3.3001  -3.2968
    -2.2043  -1.1775  -1.1323  -1.1289  -1.0963  -1.0920  -1.0755  -1.0708
    -0.8756  -0.7904  -0.5760  -0.5467  -0.5252   0.0092   0.1530   0.1985
     0.4134   0.4334   0.4548   0.5714   1.2642   1.4242   1.5222   1.6086
     4.0996   4.5007   4.8912   6.3757   6.5189   6.7102   9.8896  10.5550
    10.5938  10.8253  10.8505  11.0999  11.1266

          k = 0.2150 0.3718-0.0576 (  7106 PWs)   bands (ev):

   -12.9037 -12.7772 -12.6663 -11.4360 -11.4330 -11.3270 -11.3213 -11.2200
   -11.2174  -7.6370  -7.5732  -7.5131  -6.8613  -6.8236  -6.7809  -4.2824
    -4.2311  -4.1903  -3.3948  -3.3902  -3.3406  -3.3375  -3.2997  -3.2969
    -2.0957  -1.5886  -1.1321  -1.1300  -1.0968  -1.0937  -1.0747  -1.0713
    -0.8423  -0.5761  -0.5469  -0.5255  -0.3498  -0.1292   0.1941   0.4103
     0.4196   0.4343   0.4555   0.7411   0.7924   0.9665   1.7775   1.8217
     4.1235   4.4472   4.9220   6.3724   6.5304   6.7020   9.8737  10.5776
    10.5969  10.8137  10.8581  11.0977  11.1246

          k = 0.2188 0.5547 0.1319 (  7099 PWs)   bands (ev):

   -12.4925 -12.3690 -12.2613 -12.0009 -11.8873 -11.7767 -11.5175 -11.4032
   -11.3006  -7.5015  -7.4286  -7.3691  -6.5284  -6.4863  -6.4540  -4.8913
    -4.8536  -4.8241  -2.9206  -2.8809  -2.8582  -2.3713  -2.3247  -2.2898
    -1.7713  -1.4923  -1.4627  -1.4484  -1.4180  -1.3796  -1.3621  -1.2005
    -1.0815  -0.7034  -0.6708  -0.6475  -0.4141  -0.1734  -0.1517  -0.1362
    -0.0006   0.1335   0.1602   0.3234   0.6839   1.1093   1.3554   1.6127
     4.4875   4.8201   5.1754   6.0878   6.2468   6.4706   9.8487  10.8937
    11.0633  11.2591  11.6524  11.9216  12.0649

          k = 0.2152 0.5400-0.0452 (  7095 PWs)   bands (ev):

   -12.4906 -12.3732 -12.2589 -12.0028 -11.8829 -11.7792 -11.5169 -11.4044
   -11.2999  -7.5019  -7.4276  -7.3696  -6.5283  -6.4865  -6.4539  -4.8917
    -4.8524  -4.8248  -2.9203  -2.8815  -2.8579  -2.3715  -2.3244  -2.2900
    -1.8329  -1.4914  -1.4650  -1.4467  -1.4180  -1.3798  -1.3620  -1.1619
    -0.7848  -0.7035  -0.6707  -0.6472  -0.5188  -0.4039  -0.1733  -0.1518
    -0.1368  -0.0803   0.3036   0.7771   0.8537   0.9048   1.1629   1.6937
     4.4912   4.8124   5.1800   6.0860   6.2315   6.4884   9.8576  10.8795
    11.0923  11.2408  11.6061  11.6770  11.9225

          k = 0.2180-0.2863 0.0701 (  7120 PWs)   bands (ev):

   -13.2334 -13.1053 -12.9907 -11.2741 -11.1627 -11.0605 -10.7927 -10.6870
   -10.5871  -8.1221  -8.0436  -7.9832  -6.9106  -6.8532  -6.7934  -4.4351
    -4.3711  -4.3205  -3.9786  -3.9148  -3.8692  -3.4930  -3.4382  -3.4012
    -2.4606  -1.9230  -1.4784  -1.4388  -1.4127  -0.7542  -0.7428  -0.7198
    -0.6999  -0.4756  -0.2531   0.1213   0.1522   0.1689   0.3826   0.6035
     1.0342   1.0494   1.0596   1.1506   1.2442   1.5282   1.8482   2.3585
     3.6743   3.9570   4.3429   6.7123   6.9155   7.2083   9.4104   9.7157
     9.9477  10.1210  10.1412  10.4260  10.7886

          k = 0.2144-0.3010-0.1070 (  7117 PWs)   bands (ev):

   -13.2321 -13.1085 -12.9890 -11.2744 -11.1621 -11.0608 -10.7941 -10.6838
   -10.5889  -8.1215  -8.0452  -7.9823  -6.9118  -6.8506  -6.7947  -4.4352
    -4.3709  -4.3206  -3.9779  -3.9163  -3.8683  -3.4930  -3.4381  -3.4013
    -2.5431  -1.6477  -1.4779  -1.4396  -1.4120  -1.1016  -0.7509  -0.7210
    -0.7000  -0.4700  -0.0872   0.1216   0.1527   0.1687   0.3814   0.6532
     0.9118   1.0354   1.0498   1.0614   1.2518   1.8248   1.8998   2.1862
     3.6571   4.0045   4.3105   6.7021   6.9212   7.2172   9.3980   9.7508
     9.9480  10.1019  10.1625  10.4518  10.7610

          k = 0.2181-0.1181 0.0824 (  7113 PWs)   bands (ev):

   -13.6476 -13.5181 -13.3984 -10.7124 -10.6060 -10.5070  -9.3178  -9.3132
    -9.2209  -9.2176  -9.1375  -9.1333  -6.4530  -6.4502  -6.3805  -6.3746
    -6.3136  -6.3109  -5.1281  -5.0555  -5.0011  -2.9416  -2.3236  -1.9093
    -1.9053  -1.8676  -1.8607  -1.8399  -1.8373  -1.3049  -0.5725  -0.5121
    -0.4861  -0.4719   0.1197   0.9097   1.0956   1.2001   1.2287   1.2481
     1.6544   1.8586   1.8750   1.8867   2.3385   2.4614   2.5255   2.9333
     3.0131   3.4278   3.4449   7.4611   7.4985   7.7816   7.8022   8.1999
     8.2178   8.9507   9.3873   9.8277  10.0893

          k = 0.2145-0.1328-0.0946 (  7128 PWs)   bands (ev):

   -13.6472 -13.5192 -13.3978 -10.7134 -10.6039 -10.5081  -9.3170  -9.3137
    -9.2225  -9.2168  -9.1366  -9.1338  -6.4535  -6.4506  -6.3785  -6.3747
    -6.3142  -6.3113  -5.1274  -5.0572  -5.0001  -2.9721  -2.2302  -1.9089
    -1.9052  -1.8684  -1.8610  -1.8394  -1.8371  -1.4229  -0.5176  -0.5112
    -0.4861  -0.4718   0.1402   0.9023   1.0052   1.1994   1.2284   1.2482
     1.7964   1.8586   1.8750   1.8866   2.2803   2.4720   2.5103   2.9390
     3.0182   3.4018   3.4594   7.4471   7.4845   7.7834   7.8427   8.1942
     8.2137   8.9609   9.3753   9.8190  10.1970

          k = 0.2183 0.0501 0.0948 (  7124 PWs)   bands (ev):

   -13.7303 -13.6019 -13.4797 -10.3187 -10.2119 -10.1207  -9.8489  -9.7493
    -9.6566  -8.5413  -8.4614  -8.3997  -7.3097  -7.2434  -7.1878  -6.0816
    -6.0045  -5.9445  -5.6334  -5.5641  -5.5002  -3.0678  -2.3121  -1.9950
    -1.9535  -1.9252  -1.5316  -1.2432  -1.2112  -1.1890  -0.7636  -0.7275
    -0.7196  -0.5768   0.3084   0.9113   1.3922   1.5208   1.5418   1.5527
     1.9446   1.9682   1.9868   1.9917   2.2101   2.4583   2.5673   3.0777
     3.1076   3.4415   3.6693   7.0509   7.2101   7.5065   7.8670   8.3314
     8.4407   8.7460   8.8327   9.2627  10.1471

          k = 0.2147 0.0354-0.0823 (  7131 PWs)   bands (ev):

   -13.7309 -13.6006 -13.4804 -10.3173 -10.2154 -10.1188  -9.8502  -9.7465
    -9.6582  -8.5408  -8.4626  -8.3990  -7.3096  -7.2436  -7.1878  -6.0810
    -6.0058  -5.9437  -5.6342  -5.5625  -5.5011  -3.0280  -2.4329  -1.9947
    -1.9541  -1.9248  -1.3797  -1.2434  -1.2106  -1.1894  -0.7636  -0.7277
    -0.7196  -0.6501   0.2937   0.9093   1.5207   1.5416   1.5505   1.5562
     1.8877   1.9577   1.9617   1.9869   1.9898   2.5385   2.6962   3.0415
     3.1207   3.4219   3.6766   7.0488   7.1954   7.5218   7.8941   8.2902
     8.4308   8.7555   8.8387   9.2760  10.3322

          k = 0.3629 0.3028 0.1154 (  7116 PWs)   bands (ev):

   -12.7374 -12.6183 -12.5019 -12.2476 -12.1266 -12.0200 -10.3208 -10.2134
   -10.1224  -8.9383  -8.8461  -8.7615  -5.5470  -5.4918  -5.4551  -4.3206
    -4.2712  -4.2408  -3.9596  -3.9223  -3.8902  -2.7823  -2.7509  -2.7226
    -2.3627  -2.3145  -2.2729  -2.0693  -1.3143  -1.2703  -1.2304  -1.1948
    -0.9195  -0.7753  -0.6090   0.1735   0.2078   0.2139   0.3751   0.4570
     0.6039   0.6364   0.6438   0.6766   0.8928   1.4550   2.3073   2.6904
     3.0261   3.4976   4.0708   7.3520   7.5651   7.8771   8.9953   9.2584
     9.4859   9.7505  11.3389  11.9079  12.1198

          k = 0.3593 0.2882-0.0616 (  7110 PWs)   bands (ev):

   -12.7392 -12.6142 -12.5042 -12.2461 -12.1301 -12.0180 -10.3192 -10.2168
   -10.1204  -8.9394  -8.8434  -8.7630  -5.5468  -5.4924  -5.4547  -4.3206
    -4.2711  -4.2408  -3.9596  -3.9222  -3.8903  -2.7829  -2.7496  -2.7232
    -2.3629  -2.3140  -2.2730  -1.9997  -1.3973  -1.2803  -1.2697  -1.2300
    -1.1942  -0.4545  -0.0755  -0.0334   0.1735   0.1983   0.2082   0.2147
     0.6038   0.6359   0.6440   0.6884   1.0354   1.6314   2.0402   2.8111
     2.9866   3.5554   4.0524   7.3314   7.6130   7.8492   9.0107   9.2226
     9.5082   9.7467  11.8260  11.8942  12.0278

          k = 0.3630 0.4710 0.1278 (  7089 PWs)   bands (ev):

   -12.4930 -12.3713 -12.2615 -12.0013 -11.8878 -11.7771 -11.5165 -11.4001
   -11.3000  -7.4918  -7.4213  -7.3631  -6.5432  -6.4926  -6.4587  -4.8913
    -4.8544  -4.8201  -2.9306  -2.8877  -2.8622  -2.3722  -2.3290  -2.2910
    -1.7682  -1.4859  -1.4604  -1.4387  -1.4087  -1.3767  -1.3581  -1.2381
    -1.0247  -0.7017  -0.6662  -0.6464  -0.3838  -0.1809  -0.1517  -0.1457
    -0.0440   0.0662   0.1369   0.2978   0.7293   1.2593   1.3794   1.5048
     4.5084   4.8673   5.1240   6.0208   6.2622   6.5105   9.9214  10.8451
    11.0890  11.2824  11.6580  11.8761  11.9738

          k = 0.3594 0.4564-0.0493 (  7091 PWs)   bands (ev):

   -12.4922 -12.3732 -12.2604 -12.0032 -11.8834 -11.7796 -11.5148 -11.4040
   -11.2977  -7.4923  -7.4201  -7.3638  -6.5428  -6.4937  -6.4581  -4.8915
    -4.8538  -4.8205  -2.9309  -2.8871  -2.8627  -2.3719  -2.3294  -2.2909
    -1.7986  -1.4849  -1.4616  -1.4380  -1.4084  -1.3772  -1.3580  -1.2020
    -0.8767  -0.7014  -0.6660  -0.6466  -0.5232  -0.3490  -0.1808  -0.1520
    -0.1452  -0.0342   0.4684   0.7197   0.7492   0.8779   1.1216   1.7625
     4.5157   4.8529   5.1273   6.0098   6.2989   6.4892   9.9172  10.8610
    11.0499  11.3059  11.6400  11.7431  11.9083

          k = 0.3632 0.6392 0.1401 (  7109 PWs)   bands (ev):

   -12.4118 -12.4091 -12.2921 -12.2866 -12.1813 -12.1789 -10.9538 -10.8473
   -10.7457  -8.2138  -8.1268  -8.0544  -5.9765  -5.9235  -5.8733  -4.5868
    -4.5532  -4.5127  -3.5534  -3.5115  -3.4756  -2.2298  -2.1993  -2.1685
    -1.8701  -1.8290  -1.8192  -1.7794  -1.7759  -1.7501  -1.7460  -1.3003
    -0.9636  -0.8127  -0.0892   0.0328   0.0373   0.0591   0.0646   0.0760
     0.0806   0.0993   0.3770   0.6627   0.8568   1.1151   1.3613   2.2445
     3.7881   4.2271   4.6762   6.5045   6.8859   7.2418   9.8178   9.8801
    10.1708  10.5054  11.8514  11.9845  12.4231

          k = 0.3596 0.6246-0.0369 (  7111 PWs)   bands (ev):

   -12.4112 -12.4084 -12.2938 -12.2882 -12.1805 -12.1780 -10.9553 -10.8437
   -10.7477  -8.2133  -8.1279  -8.0538  -5.9769  -5.9227  -5.8737  -4.5882
    -4.5504  -4.5141  -3.5533  -3.5117  -3.4755  -2.2295  -2.2002  -2.1680
    -1.8920  -1.8278  -1.8227  -1.7807  -1.7749  -1.7496  -1.7464  -1.3499
    -0.8430  -0.6677  -0.2197  -0.0372   0.0331   0.0387   0.0594   0.0641
     0.0763   0.0812   0.3442   0.7275   0.7706   1.0234   1.7879   2.0400
     3.7924   4.2238   4.6746   6.5238   6.8398   7.2696   9.7950   9.9042
    10.1754  10.4994  11.7043  11.9252  12.2646

          k = 0.3624-0.2018 0.0784 (  7108 PWs)   bands (ev):

   -12.9855 -12.8603 -12.7465 -12.0012 -11.8856 -11.7767  -9.6225  -9.6194
    -9.5236  -9.5200  -9.4358  -9.4326  -5.2015  -5.1986  -5.1420  -5.1359
    -5.0872  -5.0842  -3.1662  -3.1632  -3.1183  -3.1137  -3.0825  -3.0798
    -2.9290  -2.8700  -2.8298  -2.2496  -1.5880  -1.0717  -0.7297  -0.6859
    -0.6603  -0.4955  -0.2606   0.1134   0.1300   0.1385   0.1519   0.3402
     0.8117   0.9600   0.9812   0.9942   1.1850   2.2374   2.3047   2.7779
     2.9093   3.3596   3.4326   7.9881   7.9994   8.3222   8.3451   8.6886
     8.7133   9.7295  11.3303  11.4063  11.6999

          k = 0.3588-0.2164-0.0987 (  7124 PWs)   bands (ev):

   -12.9848 -12.8620 -12.7455 -12.0021 -11.8836 -11.7779  -9.6222  -9.6196
    -9.5243  -9.5197  -9.4354  -9.4328  -5.2020  -5.1987  -5.1409  -5.1361
    -5.0877  -5.0843  -3.1653  -3.1629  -3.1206  -3.1143  -3.0814  -3.0793
    -2.9284  -2.8714  -2.8289  -2.2846  -1.4767  -1.0149  -0.7297  -0.6860
    -0.6659  -0.6586  -0.4299   0.1138   0.1381   0.1517   0.2198   0.5726
     0.7961   0.9600   0.9813   0.9942   1.0842   2.2412   2.3038   2.7784
     2.9043   3.3546   3.4388   7.9944   8.0076   8.2978   8.3372   8.7010
     8.7194   9.7428  11.1536  11.3795  11.7329

          k = 0.3625-0.0336 0.0907 (  7108 PWs)   bands (ev):

   -13.2330 -13.1077 -12.9901 -11.2727 -11.1630 -11.0590 -10.7953 -10.6848
   -10.5900  -8.1147  -8.0397  -7.9802  -6.9142  -6.8506  -6.7986  -4.4363
    -4.3766  -4.3218  -3.9815  -3.9173  -3.8715  -3.4952  -3.4425  -3.4031
    -2.5124  -1.7700  -1.4751  -1.4322  -1.4109  -0.9554  -0.7480  -0.7192
    -0.6974  -0.5063  -0.1265   0.1296   0.1580   0.1729   0.3991   0.7798
     0.8987   1.0245   1.0428   1.0543   1.0609   1.8784   1.9455   2.1700
     3.7027   4.0066   4.2723   6.7229   6.9151   7.2013   9.3916   9.7587
    10.0080  10.1035  10.1289  10.4346  10.7976

          k = 0.3589-0.0482-0.0863 (  7121 PWs)   bands (ev):

   -13.2333 -13.1071 -12.9904 -11.2741 -11.1598 -11.0608 -10.7937 -10.6884
   -10.5879  -8.1149  -8.0392  -7.9804  -6.9139  -6.8516  -6.7980  -4.4369
    -4.3753  -4.3225  -3.9811  -3.9184  -3.8709  -3.4944  -3.4443  -3.4020
    -2.4959  -1.8245  -1.4748  -1.4330  -1.4104  -0.8797  -0.7486  -0.7180
    -0.6981  -0.4921  -0.1577   0.1294   0.1580   0.1725   0.3380   0.5491
     1.0248   1.0465   1.0544   1.1748   1.4375   1.5043   1.7440   2.3581
     3.6912   4.0316   4.2586   6.7303   6.9103   7.1986   9.4087   9.7152
    10.0573  10.0906  10.1587  10.4442  10.7805

          k = 0.3627 0.1346 0.1031 (  7116 PWs)   bands (ev):

   -13.1499 -13.0268 -12.9081 -11.6781 -11.5608 -11.4592 -10.2405 -10.1384
   -10.0424  -8.8656  -8.7715  -8.6929  -6.1051  -6.0351  -5.9812  -4.8443
    -4.7791  -4.7320  -3.4715  -3.4171  -3.3865  -3.3661  -3.3353  -3.2983
    -2.4493  -2.2966  -2.2572  -2.2248  -1.5754  -1.0088  -0.6817  -0.2254
    -0.2051  -0.1931  -0.1706  -0.1673  -0.1629  -0.1380   0.0566   0.6854
     1.0651   1.0962   1.1013   1.1313   1.2530   1.6844   2.1140   2.8649
     3.0343   3.5487   3.9689   7.2379   7.5025   7.7734   8.7500   9.0365
     9.3685   9.8851  10.7417  10.9287  11.1005

          k = 0.3591 0.1200-0.0740 (  7121 PWs)   bands (ev):

   -13.1511 -13.0240 -12.9097 -11.6763 -11.5649 -11.4569 -10.2420 -10.1350
   -10.0444  -8.8646  -8.7737  -8.6916  -6.1050  -6.0353  -5.9811  -4.8441
    -4.7797  -4.7317  -3.4719  -3.4163  -3.3861  -3.3665  -3.3364  -3.2977
    -2.3793  -2.2965  -2.2565  -2.2250  -1.8131  -0.8627  -0.5848  -0.2253
    -0.2052  -0.1937  -0.1705  -0.1677  -0.1623  -0.1011   0.1939   0.5156
     0.7826   1.0651   1.0967   1.1011   1.5245   1.5450   2.3525   2.7605
     3.0680   3.4987   3.9845   7.2524   7.4705   7.7911   8.7449   9.0563
     9.3530   9.8855  10.7727  11.0693  11.2477

     the Fermi energy is     5.5967 ev

!    total energy              =    -294.04809909 Ry
     estimated scf accuracy    <       0.00000084 Ry
     smearing contrib. (-TS)   =      -0.00000005 Ry
     internal energy E=F+TS    =    -294.04809904 Ry

     The total energy is F=E-TS. E is the sum of the following terms:
     one-electron contribution =    -187.60838259 Ry
     hartree contribution      =     140.07648151 Ry
     xc contribution           =    -103.60502447 Ry
     ewald contribution        =    -142.91117350 Ry

     convergence has been achieved in  30 iterations

     Forces acting on atoms (cartesian axes, Ry/au):

     atom    1 type  1   force =    -0.00113808   -0.00369625   -0.00235552
     atom    2 type  1   force =    -0.00051817   -0.00102573   -0.00038422
     atom    3 type  1   force =     0.00113617    0.00066460   -0.00197081
     atom    4 type  1   force =     0.00119057    0.00173263   -0.00064582
     atom    5 type  1   force =    -0.00077488    0.00141598   -0.00005106
     atom    6 type  1   force =    -0.00101323    0.00239553   -0.00129931
     atom    7 type  1   force =    -0.00127637   -0.00151330   -0.00060970
     atom    8 type  1   force =     0.00106946   -0.00019593    0.00049454
     atom    9 type  1   force =    -0.00055339   -0.00138378    0.00175789
     atom   10 type  1   force =     0.00167170    0.00168578    0.00175678
     atom   11 type  1   force =    -0.00206017    0.00096826   -0.00047172
     atom   12 type  1   force =    -0.00128547   -0.00101619    0.00134216
     atom   13 type  1   force =    -0.00125281   -0.00182981    0.00172935
     atom   14 type  1   force =     0.00191756   -0.00030477    0.00035301
     atom   15 type  1   force =    -0.00025723   -0.00258988   -0.00013292
     atom   16 type  1   force =     0.00097597    0.00167662   -0.00024579
     atom   17 type  1   force =    -0.00117538    0.00194280   -0.00100089
     atom   18 type  1   force =    -0.00011817   -0.00000859    0.00324607
     atom   19 type  1   force =    -0.00218311   -0.00196036    0.00039675
     atom   20 type  1   force =     0.00122769   -0.00185687    0.00028198
     atom   21 type  1   force =     0.00169533    0.00073086   -0.00015210
     atom   22 type  1   force =     0.00098746    0.00047345   -0.00246811
     atom   23 type  1   force =    -0.00097143    0.00105231   -0.00036207
     atom   24 type  1   force =     0.00168830    0.00210692    0.00027143
     atom   25 type  2   force =     0.00206559    0.00252561    0.00109758
     atom   26 type  2   force =    -0.00279647   -0.00274324    0.00026492
     atom   27 type  2   force =    -0.00119760    0.00027858    0.00040695
     atom   28 type  2   force =     0.00174918    0.00037061   -0.00056616
     atom   29 type  2   force =    -0.00014388   -0.00211858   -0.00071072
     atom   30 type  2   force =     0.00134085    0.00222271    0.00002752
     The non-local contrib.  to forces
     atom    1 type  1   force =    -0.00118573   -0.00493696   -0.00000166
     atom    2 type  1   force =     0.00082025   -0.00173739   -0.00119295
     atom    3 type  1   force =     0.00345836    0.00168714   -0.00155554
     atom    4 type  1   force =     0.00165075    0.00284378   -0.00054992
     atom    5 type  1   force =    -0.00088371   -0.00090036   -0.00028527
     atom    6 type  1   force =     0.00085645    0.00377253    0.00123820
     atom    7 type  1   force =    -0.00160804   -0.00164847   -0.00029547
     atom    8 type  1   force =    -0.00042637   -0.00078008   -0.00018724
     atom    9 type  1   force =    -0.00218497   -0.00373925    0.00025252
     atom   10 type  1   force =     0.00233980    0.00279048   -0.00002731
     atom   11 type  1   force =    -0.00294123    0.00124179   -0.00349427
     atom   12 type  1   force =    -0.00495515   -0.00225601    0.00365335
     atom   13 type  1   force =    -0.00149997   -0.00251729    0.00033882
     atom   14 type  1   force =     0.00383215    0.00224904   -0.00020713
     atom   15 type  1   force =     0.00024923   -0.00441942    0.00329534
     atom   16 type  1   force =     0.00141793    0.00312002    0.00016656
     atom   17 type  1   force =    -0.00381228    0.00233676   -0.00161626
     atom   18 type  1   force =    -0.00113122    0.00219577    0.00221592
     atom   19 type  1   force =    -0.00302276   -0.00283729    0.00031207
     atom   20 type  1   force =     0.00151132   -0.00251913   -0.00265632
     atom   21 type  1   force =     0.00166978   -0.00012542    0.00107135
     atom   22 type  1   force =     0.00137302    0.00138182   -0.00076136
     atom   23 type  1   force =     0.00087279    0.00098839   -0.00174619
     atom   24 type  1   force =     0.00282130    0.00347626    0.00230682
     atom   25 type  2   force =     0.04184001    0.04614998    0.00107938
     atom   26 type  2   force =    -0.04161750   -0.04650347   -0.00100733
     atom   27 type  2   force =     0.05590242   -0.02191556    0.01933058
     atom   28 type  2   force =    -0.05574074    0.02203281   -0.01941607
     atom   29 type  2   force =     0.00306801   -0.06250984    0.00012201
     atom   30 type  2   force =    -0.00338579    0.06262176   -0.00015124
     The ionic contribution  to forces
     atom    1 type  1   force =    -0.01031741   -0.05242922   -0.47725803
     atom    2 type  1   force =     0.19469858    0.40213384    5.24700081
     atom    3 type  1   force =    -0.02704829   -0.37142084   -4.72131520
     atom    4 type  1   force =    -0.00311854   -0.03021839   -0.52913663
     atom    5 type  1   force =     0.10002484    0.36049673    5.25615117
     atom    6 type  1   force =    -0.04588450   -0.44116799   -4.68226196
     atom    7 type  1   force =    -0.01865327   -0.05192646   -0.52096601
     atom    8 type  1   force =     0.03031919    0.40194198    5.20666026
     atom    9 type  1   force =    -0.17174311   -0.35618728   -4.81577389
     atom   10 type  1   force =    -0.00638051   -0.04369671   -0.58212998
     atom   11 type  1   force =     0.10259203    0.42248833    5.12236387
     atom   12 type  1   force =    -0.15158037   -0.43714017   -4.74252344
     atom   13 type  1   force =    -0.01914087   -0.05634556   -0.56446151
     atom   14 type  1   force =     0.10312870    0.50775129    5.17610714
     atom   15 type  1   force =    -0.09005127   -0.38284066   -4.64373095
     atom   16 type  1   force =    -0.01001515   -0.03486917   -0.53329036
     atom   17 type  1   force =     0.02462306    0.47003939    5.20174213
     atom   18 type  1   force =    -0.09502725   -0.29985355   -4.84816981
     atom   19 type  1   force =    -0.01659968   -0.05250624   -0.53835785
     atom   20 type  1   force =     0.11175266    0.40432471    5.12489495
     atom   21 type  1   force =    -0.08545585   -0.47758535   -4.67956484
     atom   22 type  1   force =    -0.00351158   -0.03360746   -0.48921015
     atom   23 type  1   force =     0.17234011    0.47710165    5.21556157
     atom   24 type  1   force =    -0.09760744   -0.36387896   -4.65274846
     atom   25 type  2   force =    -0.56762788   -0.53861578    0.21856226
     atom   26 type  2   force =     0.61637194    0.56876791    0.11874109
     atom   27 type  2   force =    -0.73735807    0.39694561   -0.02679914
     atom   28 type  2   force =     0.71016285   -0.34366671    0.04426688
     atom   29 type  2   force =     0.01139043    0.82790159   -0.00495253
     atom   30 type  2   force =    -0.02028335   -0.87193652    0.12059863
     The local contribution  to forces
     atom    1 type  1   force =     0.01032359    0.05358410    0.47568370
     atom    2 type  1   force =    -0.19608027   -0.40144116   -5.24623082
     atom    3 type  1   force =     0.02463573    0.37031179    4.72071920
     atom    4 type  1   force =     0.00274789    0.02929880    0.52963539
     atom    5 type  1   force =    -0.09991288   -0.35807368   -5.25592571
     atom    6 type  1   force =     0.04390887    0.43987368    4.67957109
     atom    7 type  1   force =     0.01894289    0.05202698    0.52132742
     atom    8 type  1   force =    -0.02871397   -0.40133414   -5.20606817
     atom    9 type  1   force =     0.17340240    0.35842387    4.81689852
     atom   10 type  1   force =     0.00581795    0.04273135    0.58439119
     atom   11 type  1   force =    -0.10179752   -0.42275740   -5.11938106
     atom   12 type  1   force =     0.15524382    0.43844127    4.73995850
     atom   13 type  1   force =     0.01934100    0.05697812    0.56641459
     atom   14 type  1   force =    -0.10493911   -0.51035031   -5.17564755
     atom   15 type  1   force =     0.08958191    0.38453398    4.64009748
     atom   16 type  1   force =     0.00961037    0.03357607    0.53347068
     atom   17 type  1   force =    -0.02207870   -0.47044570   -5.20114734
     atom   18 type  1   force =     0.09605675    0.29762803    4.84877020
     atom   19 type  1   force =     0.01733625    0.05336183    0.53907098
     atom   20 type  1   force =    -0.11195976   -0.40373025   -5.12203044
     atom   21 type  1   force =     0.08553308    0.47843367    4.67814481
     atom   22 type  1   force =     0.00322886    0.03283407    0.48819544
     atom   23 type  1   force =    -0.17427072   -0.47704857   -5.21419493
     atom   24 type  1   force =     0.09650800    0.36254473    4.65045177
     atom   25 type  2   force =     0.52785539    0.49497795   -0.21867524
     atom   26 type  2   force =    -0.57757134   -0.52502083   -0.11760389
     atom   27 type  2   force =     0.68026504   -0.37477826    0.00774849
     atom   28 type  2   force =    -0.65267222    0.32199700   -0.02555506
     atom   29 type  2   force =    -0.01461172   -0.76752358    0.00398464
     atom   30 type  2   force =     0.02501642    0.81154177   -0.12055316
     The core correction contribution to forces
     atom    1 type  1   force =     0.00004159    0.00013705   -0.00015136
     atom    2 type  1   force =    -0.00004036    0.00005292   -0.00002169
     atom    3 type  1   force =    -0.00002183    0.00002908   -0.00007321
     atom    4 type  1   force =    -0.00008357   -0.00013951    0.00003784
     atom    5 type  1   force =    -0.00000056   -0.00002462   -0.00005464
     atom    6 type  1   force =     0.00002546   -0.00005683   -0.00011784
     atom    7 type  1   force =     0.00007291    0.00007333   -0.00003959
     atom    8 type  1   force =    -0.00002408    0.00001340    0.00003518
     atom    9 type  1   force =     0.00005907    0.00007736    0.00012567
     atom   10 type  1   force =    -0.00009075   -0.00007018    0.00015767
     atom   11 type  1   force =     0.00007894    0.00000964    0.00004206
     atom   12 type  1   force =     0.00009609   -0.00003414   -0.00002404
     atom   13 type  1   force =     0.00007490    0.00010673    0.00007097
     atom   14 type  1   force =    -0.00010882   -0.00005181    0.00005944
     atom   15 type  1   force =    -0.00006926    0.00008677   -0.00010497
     atom   16 type  1   force =    -0.00004138   -0.00010623    0.00003897
     atom   17 type  1   force =     0.00015991   -0.00003409   -0.00001955
     atom   18 type  1   force =    -0.00001435   -0.00010780    0.00018841
     atom   19 type  1   force =     0.00010549    0.00008165    0.00000520
     atom   20 type  1   force =    -0.00006992    0.00007767    0.00007515
     atom   21 type  1   force =    -0.00005315    0.00007772   -0.00008429
     atom   22 type  1   force =    -0.00007861   -0.00007819   -0.00006517
     atom   23 type  1   force =     0.00001689   -0.00004695   -0.00001927
     atom   24 type  1   force =    -0.00003053   -0.00006955   -0.00005284
     atom   25 type  2   force =     0.00000000    0.00000000    0.00000000
     atom   26 type  2   force =     0.00000000    0.00000000    0.00000000
     atom   27 type  2   force =     0.00000000    0.00000000    0.00000000
     atom   28 type  2   force =     0.00000000    0.00000000    0.00000000
     atom   29 type  2   force =     0.00000000    0.00000000    0.00000000
     atom   30 type  2   force =     0.00000000    0.00000000    0.00000000
     The Hubbard contrib.    to forces
     atom    1 type  1   force =     0.00000000    0.00000000    0.00000000
     atom    2 type  1   force =     0.00000000    0.00000000    0.00000000
     atom    3 type  1   force =     0.00000000    0.00000000    0.00000000
     atom    4 type  1   force =     0.00000000    0.00000000    0.00000000
     atom    5 type  1   force =     0.00000000    0.00000000    0.00000000
     atom    6 type  1   force =     0.00000000    0.00000000    0.00000000
     atom    7 type  1   force =     0.00000000    0.00000000    0.00000000
     atom    8 type  1   force =     0.00000000    0.00000000    0.00000000
     atom    9 type  1   force =     0.00000000    0.00000000    0.00000000
     atom   10 type  1   force =     0.00000000    0.00000000    0.00000000
     atom   11 type  1   force =     0.00000000    0.00000000    0.00000000
     atom   12 type  1   force =     0.00000000    0.00000000    0.00000000
     atom   13 type  1   force =     0.00000000    0.00000000    0.00000000
     atom   14 type  1   force =     0.00000000    0.00000000    0.00000000
     atom   15 type  1   force =     0.00000000    0.00000000    0.00000000
     atom   16 type  1   force =     0.00000000    0.00000000    0.00000000
     atom   17 type  1   force =     0.00000000    0.00000000    0.00000000
     atom   18 type  1   force =     0.00000000    0.00000000    0.00000000
     atom   19 type  1   force =     0.00000000    0.00000000    0.00000000
     atom   20 type  1   force =     0.00000000    0.00000000    0.00000000
     atom   21 type  1   force =     0.00000000    0.00000000    0.00000000
     atom   22 type  1   force =     0.00000000    0.00000000    0.00000000
     atom   23 type  1   force =     0.00000000    0.00000000    0.00000000
     atom   24 type  1   force =     0.00000000    0.00000000    0.00000000
     atom   25 type  2   force =     0.00000000    0.00000000    0.00000000
     atom   26 type  2   force =     0.00000000    0.00000000    0.00000000
     atom   27 type  2   force =     0.00000000    0.00000000    0.00000000
     atom   28 type  2   force =     0.00000000    0.00000000    0.00000000
     atom   29 type  2   force =     0.00000000    0.00000000    0.00000000
     atom   30 type  2   force =     0.00000000    0.00000000    0.00000000
     The SCF correction term to forces
     atom    1 type  1   force =     0.00000009   -0.00005136   -0.00062718
     atom    2 type  1   force =     0.00008385   -0.00003407    0.00006141
     atom    3 type  1   force =     0.00011243    0.00005730    0.00025492
     atom    4 type  1   force =    -0.00000574   -0.00005218   -0.00063152
     atom    5 type  1   force =    -0.00000235   -0.00008222    0.00006437
     atom    6 type  1   force =     0.00008071   -0.00002600    0.00027218
     atom    7 type  1   force =    -0.00003063   -0.00003881   -0.00063507
     atom    8 type  1   force =    -0.00008510   -0.00003721    0.00005549
     atom    9 type  1   force =    -0.00008658    0.00004139    0.00025604
     atom   10 type  1   force =    -0.00001458   -0.00006929   -0.00063382
     atom   11 type  1   force =     0.00000784   -0.00001424   -0.00000134
     atom   12 type  1   force =    -0.00008964   -0.00002727    0.00027877
     atom   13 type  1   force =    -0.00002766   -0.00005193   -0.00063255
     atom   14 type  1   force =     0.00000486    0.00009689    0.00004210
     atom   15 type  1   force =     0.00003237    0.00004931    0.00031116
     atom   16 type  1   force =     0.00000442   -0.00004420   -0.00063066
     atom   17 type  1   force =    -0.00006716    0.00004630    0.00004111
     atom   18 type  1   force =    -0.00000188    0.00012882    0.00024233
     atom   19 type  1   force =    -0.00000220   -0.00006044   -0.00063265
     atom   20 type  1   force =    -0.00000640   -0.00000999   -0.00000037
     atom   21 type  1   force =     0.00000168   -0.00006990    0.00028186
     atom   22 type  1   force =    -0.00002401   -0.00005692   -0.00062589
     atom   23 type  1   force =     0.00006972    0.00005766    0.00003773
     atom   24 type  1   force =    -0.00000281    0.00003432    0.00031512
     atom   25 type  2   force =    -0.00000172    0.00001333    0.00013216
     atom   26 type  2   force =     0.00002064    0.00001303    0.00013605
     atom   27 type  2   force =    -0.00000678    0.00002667    0.00012801
     atom   28 type  2   force =    -0.00000051    0.00000739    0.00013907
     atom   29 type  2   force =     0.00000961    0.00001312    0.00013615
     atom   30 type  2   force =    -0.00000620   -0.00000443    0.00013426

     Total force =     0.013804     Total SCF correction =     0.002018
     SCF correction compared to forces is large: reduce conv_thr to get better values


     Computing stress (Cartesian axis) and pressure

          total   stress  (Ry/bohr**3)                   (kbar)     P=        2.63
  -0.00000145  -0.00000811  -0.00000038           -0.21       -1.19       -0.06
  -0.00000811   0.00001450  -0.00002829           -1.19        2.13       -4.16
  -0.00000038  -0.00002829   0.00004067           -0.06       -4.16        5.98


     BFGS Geometry Optimization
     Energy error            =      0.0E+00 Ry
     Gradient error          =      3.7E-03 Ry/Bohr
     Cell gradient error     =      6.0E+00 kbar

     number of scf cycles    =   1
     number of bfgs steps    =   0

     enthalpy           new  =    -294.0480990935 Ry

     new trust radius        =       0.0101092884 bohr
     new conv_thr            =       0.0000010000 Ry

     new unit-cell volume =   1667.35797 a.u.^3 (   247.07696 Ang^3 )
     density =      1.97799 g/cm^3

CELL_PARAMETERS (alat=  8.00000437)
   1.155227439   0.000343722  -0.023550812
  -0.579773822   0.997186326  -0.071559934
  -0.040984138  -0.210733682   2.844888444

ATOMIC_POSITIONS (crystal)
C            -0.0483824738       -0.0615011914        0.1695487298
C             0.0357478275        0.0659889353        0.4415253956
C             0.0210242802        0.0082409679        0.8859355640
C             0.1184949356        0.2720119246        0.1691128217
C             0.3690958996        0.2328695202        0.4415448819
C             0.1879034245        0.3418604336        0.8861483535
C             0.4513803295       -0.0617863971        0.1691927094
C             0.5356876391        0.0658478000        0.4413911423
C             0.5215804962        0.0088169975        0.8853431284
C             0.6182062306        0.2715797824        0.1687155973
C             0.8688350158        0.2325297277        0.4413732075
C             0.6885521233        0.3423196446        0.8857311687
C            -0.0487320155        0.4380792957        0.1688332261
C             0.0354172099        0.5657071165        0.4413559713
C             0.0218198815        0.5088595558        0.8858978131
C             0.1182846337        0.7718300886        0.1691248732
C             0.3688126775        0.7326693085        0.4414447723
C             0.1882364039        0.8420563585        0.8853095234
C             0.4514852793        0.4383223719        0.1690845151
C             0.5355795875        0.5659037716        0.4413552077
C             0.5212802411        0.5084351469        0.8860107912
C             0.6185441654        0.7720406174        0.1694497850
C             0.8688444461        0.7327139711        0.4414932621
C             0.6877938487        0.8417489984        0.8858448183
H             0.7140164286        0.9642493458        0.6564204482
H             0.8886162279        1.1014763428        0.6623390816
H             0.2130007994        0.5892375318        0.6562280642
H             0.3235816956        0.5292713986        0.6754172625
H             0.7824340274        0.5951678676        0.6664899072
H             0.6981510520        0.4113499447        0.6613793301



     Writing config-only to output data dir ../../results/server/3h2_abs/3H2abs_C.save/
     NEW-OLD atomic charge density approx. for the potential

     Check: negative core charge=   -0.000002
     extrapolated charge  102.13679, renormalised to  102.00000

     total cpu time spent up to now is       36.9 secs

     Self-consistent Calculation

     iteration #  1     ecut=    40.00 Ry     beta= 0.05
     Davidson diagonalization with overlap
     ethr =  1.00E-06,  avg # of iterations = 10.5

     total cpu time spent up to now is       39.3 secs

     total energy              =    -294.04804162 Ry
     estimated scf accuracy    <       0.00035110 Ry

     iteration #  2     ecut=    40.00 Ry     beta= 0.05
     Davidson diagonalization with overlap
     ethr =  3.44E-07,  avg # of iterations =  7.8

     total cpu time spent up to now is       41.0 secs

     total energy              =    -294.04830023 Ry
     estimated scf accuracy    <       0.00003547 Ry

     iteration #  3     ecut=    40.00 Ry     beta= 0.05
     Davidson diagonalization with overlap
     ethr =  3.48E-08,  avg # of iterations =  4.8

     total cpu time spent up to now is       42.2 secs

     total energy              =    -294.04831777 Ry
     estimated scf accuracy    <       0.00003968 Ry

     iteration #  4     ecut=    40.00 Ry     beta= 0.05
     Davidson diagonalization with overlap
     ethr =  3.48E-08,  avg # of iterations =  1.0

     total cpu time spent up to now is       42.9 secs

     total energy              =    -294.04829051 Ry
     estimated scf accuracy    <       0.00004753 Ry

     iteration #  5     ecut=    40.00 Ry     beta= 0.05
     Davidson diagonalization with overlap
     ethr =  3.48E-08,  avg # of iterations =  2.0

     total cpu time spent up to now is       43.7 secs

     total energy              =    -294.04829624 Ry
     estimated scf accuracy    <       0.00000109 Ry

     iteration #  6     ecut=    40.00 Ry     beta= 0.05
     Davidson diagonalization with overlap
     ethr =  1.07E-09,  avg # of iterations =  5.9

     total cpu time spent up to now is       45.2 secs

     End of self-consistent calculation

          k = 0.0741 0.1338 0.0989 (  7111 PWs)   bands (ev):

   -13.9023 -13.7783 -13.6511  -9.5512  -9.5489  -9.4572  -9.4533  -9.3693
    -9.3662  -8.4858  -8.4192  -8.3522  -7.6494  -7.5930  -7.5465  -6.6563
    -6.6517  -6.5833  -6.5800  -6.5144  -6.5102  -3.2732  -2.4791  -1.7728
    -1.4248  -1.3937  -1.3702  -0.9413  -0.9336  -0.9146  -0.9127  -0.8925
    -0.8921  -0.7393   0.7041   0.9380   2.0812   2.0954   2.1092   2.1680
     2.1777   2.2983   2.3029   2.3214   2.6812   2.7683   2.8821   3.1006
     3.1435   3.2724   3.6988   6.7872   7.2156   7.5226   7.5573   7.6420
     7.8762   7.8993   8.2806   8.3085   9.9912

          k = 0.0705 0.1190-0.0780 (  7127 PWs)   bands (ev):

   -13.9033 -13.7762 -13.6523  -9.5501  -9.5477  -9.4598  -9.4558  -9.3681
    -9.3647  -8.4861  -8.4186  -8.3525  -7.6499  -7.5917  -7.5472  -6.6571
    -6.6516  -6.5823  -6.5793  -6.5154  -6.5102  -3.2105  -2.6676  -1.5390
    -1.4250  -1.3931  -1.3705  -0.9412  -0.9336  -0.9149  -0.9130  -0.8926
    -0.8922  -0.8513   0.6969   0.9341   2.0815   2.0957   2.1095   2.2036
     2.2547   2.2990   2.3029   2.3215   2.6348   2.6528   2.8875   3.1264
     3.1711   3.2538   3.7139   6.7734   7.2427   7.4904   7.5722   7.6310
     7.8348   7.9540   8.2844   8.3170  10.1493

          k = 0.0743 0.3019 0.1113 (  7107 PWs)   bands (ev):

   -13.4865 -13.3668 -13.2416 -11.0403 -10.9330 -10.8331 -10.0914  -9.9911
    -9.8985  -8.7387  -8.6519  -8.5688  -6.7488  -6.6824  -6.6151  -5.4768
    -5.4099  -5.3518  -4.5762  -4.5163  -4.4580  -2.8284  -2.6848  -2.6428
    -2.6063  -1.8826  -1.7382  -1.7078  -1.6754  -1.4442  -0.5342  -0.5061
    -0.4865  -0.3511  -0.0786   0.5946   0.7096   0.7324   0.7536   0.7620
     1.5208   1.5399   1.5590   1.6241   1.6845   1.8909   2.4191   2.8448
     3.0221   3.4470   3.9671   7.0199   7.3378   7.6522   8.3646   8.6941
     9.0428   9.5439   9.8859  10.0064  10.3016

          k = 0.0707 0.2871-0.0656 (  7119 PWs)   bands (ev):

   -13.4882 -13.3629 -13.2438 -11.0386 -10.9366 -10.8311 -10.0901  -9.9940
    -9.8969  -8.7389  -8.6516  -8.5690  -6.7499  -6.6799  -6.6165  -5.4771
    -5.4092  -5.3522  -4.5758  -4.5171  -4.4576  -2.7172  -2.6828  -2.6420
    -2.6062  -2.2565  -1.7381  -1.7082  -1.6753  -0.9557  -0.5672  -0.5338
    -0.5057  -0.4860  -0.1441   0.6719   0.7092   0.7323   0.7566   0.9269
     1.2188   1.5208   1.5401   1.5592   1.7870   2.0909   2.2463   2.9163
     3.0060   3.4851   3.9476   7.0087   7.3474   7.6563   8.3638   8.6981
     9.0436   9.5639   9.8520   9.9678  10.3120

          k = 0.0745 0.4701 0.1238 (  7113 PWs)   bands (ev):

   -12.7433 -12.6297 -12.5099 -12.2540 -12.1373 -12.0284 -10.3287 -10.2272
   -10.1318  -8.9479  -8.8593  -8.7725  -5.5505  -5.5052  -5.4677  -4.3286
    -4.2856  -4.2560  -3.9664  -3.9361  -3.9026  -2.7877  -2.7622  -2.7339
    -2.3725  -2.3273  -2.2830  -2.0984  -1.3021  -1.2808  -1.2431  -1.2063
    -0.8545  -0.7968  -0.6875   0.1598   0.1868   0.2053   0.3724   0.5065
     0.5913   0.5937   0.6168   0.6358   0.8657   1.4671   2.2357   2.7054
     3.0069   3.4853   4.0597   7.3664   7.5919   7.7882   9.0312   9.2231
     9.4340   9.6392  11.2920  11.9289  12.1043

          k = 0.0709 0.4553-0.0531 (  7119 PWs)   bands (ev):

   -12.7454 -12.6250 -12.5125 -12.2519 -12.1417 -12.0259 -10.3278 -10.2292
   -10.1306  -8.9485  -8.8579  -8.7733  -5.5509  -5.5044  -5.4681  -4.3286
    -4.2858  -4.2559  -3.9673  -3.9345  -3.9034  -2.7872  -2.7632  -2.7334
    -2.3715  -2.3286  -2.2824  -2.0269  -1.4183  -1.2819  -1.2651  -1.2407
    -1.2062  -0.3685  -0.1547  -0.0200   0.1406   0.1598   0.1870   0.2054
     0.5919   0.6164   0.6358   0.6472   1.0450   1.5695   2.0783   2.7773
     2.9796   3.5318   4.0406   7.3755   7.5721   7.7994   9.0234   9.2425
     9.4216   9.6362  11.8093  11.9583  12.0101

          k = 0.0735-0.3707 0.0615 (  7112 PWs)   bands (ev):

   -13.1574 -13.0343 -12.9180 -11.6826 -11.5763 -11.4654 -10.2494 -10.1494
   -10.0533  -8.8741  -8.7878  -8.7019  -6.1153  -6.0492  -5.9943  -4.8501
    -4.7921  -4.7415  -3.4805  -3.4292  -3.3901  -3.3763  -3.3493  -3.3061
    -2.3712  -2.3078  -2.2707  -2.2383  -1.8790  -0.8355  -0.5159  -0.2349
    -0.2179  -0.2075  -0.1906  -0.1825  -0.1722  -0.1673   0.1952   0.4958
     0.7243   1.0498   1.0758   1.0917   1.5209   1.5735   2.2541   2.7824
     3.0442   3.4867   3.9855   7.2460   7.4875   7.7287   8.7595   9.0138
     9.3210   9.7493  10.7641  11.0390  11.4389

          k = 0.0699-0.3855-0.1154 (  7115 PWs)   bands (ev):

   -13.1555 -13.0385 -12.9157 -11.6845 -11.5722 -11.4676 -10.2492 -10.1500
   -10.0530  -8.8751  -8.7856  -8.7031  -6.1151  -6.0496  -5.9940  -4.8494
    -4.7936  -4.7408  -3.4810  -3.4284  -3.3904  -3.3766  -3.3487  -3.3065
    -2.4780  -2.3085  -2.2716  -2.2383  -1.4966  -1.1240  -0.6593  -0.2355
    -0.2178  -0.2082  -0.1909  -0.1779  -0.1707  -0.1397   0.0726   0.6338
     1.0497   1.0758   1.0914   1.1251   1.2451   1.6028   2.1800   2.8208
     3.0193   3.5125   3.9831   7.2515   7.4746   7.7361   8.7467   9.0459
     9.2999   9.7755  10.7210  10.8412  11.0614

          k = 0.0737-0.2025 0.0739 (  7122 PWs)   bands (ev):

   -13.7371 -13.6107 -13.4887 -10.3240 -10.2267 -10.1278  -9.8575  -9.7613
    -9.6671  -8.5513  -8.4782  -8.4060  -7.3231  -7.2554  -7.2000  -6.0876
    -6.0171  -5.9529  -5.6418  -5.5759  -5.5100  -3.0126  -2.4983  -1.9983
    -1.9664  -1.9326  -1.3150  -1.2564  -1.2252  -1.2030  -0.7763  -0.7480
    -0.7294  -0.7147   0.3265   0.8356   1.5113   1.5235   1.5351   1.5568
     1.9037   1.9427   1.9659   1.9714   1.9758   2.4903   2.6615   3.0299
     3.0861   3.3889   3.7272   6.9286   7.2960   7.4850   7.8635   8.3073
     8.4654   8.7225   8.7713   9.2610  10.1196

          k = 0.0701-0.2173-0.1030 (  7114 PWs)   bands (ev):

   -13.7358 -13.6135 -13.4872 -10.3252 -10.2239 -10.1293  -9.8579  -9.7605
    -9.6675  -8.5522  -8.4763  -8.4070  -7.3221  -7.2577  -7.1987  -6.0866
    -6.0193  -5.9517  -5.6419  -5.5755  -5.5101  -3.0928  -2.2513  -1.9983
    -1.9664  -1.9327  -1.6267  -1.2563  -1.2257  -1.2027  -0.7761  -0.7483
    -0.7277  -0.5657   0.3406   0.8458   1.3986   1.5157   1.5268   1.5464
     1.9071   1.9433   1.9667   1.9757   2.1782   2.4829   2.5627   3.0485
     3.0815   3.3742   3.7397   6.9650   7.2403   7.5055   7.8827   8.2821
     8.4341   8.7252   8.8215   9.2345  10.1733

          k = 0.0739-0.0344 0.0864 (  7129 PWs)   bands (ev):

   -13.9863 -13.8597 -13.7338  -9.1809  -9.0915  -9.0032  -8.7703  -8.7677
    -8.6945  -8.6897  -8.6270  -8.6188  -7.5342  -7.5249  -7.4683  -7.4649
    -7.4051  -7.4000  -7.1492  -7.0742  -7.0050  -3.3346  -2.6927  -1.7277
    -1.0242  -1.0170  -0.9978  -0.9956  -0.9755  -0.9751  -0.8835  -0.8533
    -0.8276  -0.8127   0.8758   1.0235   2.3930   2.4025   2.4269   2.4337
     2.4726   2.4866   2.4952   2.7797   2.8016   2.9080   3.0631   3.0994
     3.3583   3.3681   3.4466   6.9888   7.0634   7.1066   7.2497   7.3427
     7.5817   7.6799   7.7101   8.0219   9.9855

          k = 0.0703-0.0492-0.0905 (  7134 PWs)   bands (ev):

   -13.9861 -13.8601 -13.7336  -9.1817  -9.0898  -9.0041  -8.7707  -8.7667
    -8.6938  -8.6919  -8.6275  -8.6176  -7.5357  -7.5248  -7.4659  -7.4643
    -7.4069  -7.3998  -7.1480  -7.0765  -7.0037  -3.3458  -2.6595  -1.7685
    -1.0241  -1.0170  -0.9979  -0.9959  -0.9753  -0.9750  -0.8642  -0.8529
    -0.8276  -0.8127   0.8767   1.0236   2.3948   2.4033   2.4277   2.4403
     2.4727   2.4866   2.4952   2.7668   2.7900   2.8701   3.0955   3.1269
     3.3453   3.3946   3.4256   6.9536   7.0815   7.1109   7.2713   7.4353
     7.5376   7.6258   7.6701   8.0556   9.9805

          k = 0.2185 0.2183 0.1072 (  7115 PWs)   bands (ev):

   -13.4865 -13.3664 -13.2417 -11.0395 -10.9318 -10.8321 -10.0927  -9.9930
    -9.9002  -8.7394  -8.6544  -8.5695  -6.7478  -6.6789  -6.6133  -5.4719
    -5.4086  -5.3465  -4.5803  -4.5166  -4.4621  -2.8216  -2.6862  -2.6435
    -2.6074  -1.9162  -1.7455  -1.7070  -1.6790  -1.4040  -0.5251  -0.5070
    -0.4852  -0.3578  -0.1054   0.6026   0.7010   0.7311   0.7484   0.7804
     1.5342   1.5414   1.5600   1.6186   1.6797   1.8997   2.4328   2.8228
     3.0123   3.4728   3.9446   7.0012   7.3508   7.6752   8.3662   8.6896
     9.0563   9.5385   9.9096  10.0587  10.2910

          k = 0.2149 0.2035-0.0697 (  7113 PWs)   bands (ev):

   -13.4881 -13.3630 -13.2436 -11.0379 -10.9354 -10.8301 -10.0914  -9.9959
    -9.8986  -8.7405  -8.6519  -8.5709  -6.7474  -6.6795  -6.6129  -5.4716
    -5.4093  -5.3462  -4.5806  -4.5158  -4.4625  -2.7253  -2.6847  -2.6428
    -2.6073  -2.2345  -1.7455  -1.7073  -1.6788  -0.9919  -0.5372  -0.5242
    -0.5053  -0.4849  -0.1706   0.6981   0.7033   0.7326   0.7491   0.9126
     1.2281   1.5345   1.5417   1.5602   1.7963   2.0952   2.2343   2.9106
     3.0089   3.4579   3.9645   7.0149   7.3325   7.6787   8.3846   8.6598
     9.0696   9.5460   9.9017  10.0419  10.3050

          k = 0.2187 0.3865 0.1197 (  7105 PWs)   bands (ev):

   -12.9079 -12.7929 -12.6720 -11.4442 -11.4417 -11.3343 -11.3309 -11.2307
   -11.2282  -7.6490  -7.5884  -7.5267  -6.8697  -6.8240  -6.7923  -4.2923
    -4.2455  -4.2012  -3.4067  -3.3992  -3.3544  -3.3523  -3.3141  -3.3056
    -2.2138  -1.1854  -1.1450  -1.1344  -1.1112  -1.1080  -1.0867  -1.0802
    -0.8894  -0.8023  -0.5921  -0.5668  -0.5410  -0.0027   0.1420   0.1913
     0.4082   0.4273   0.4425   0.5556   1.2536   1.3987   1.5064   1.5966
     4.0873   4.4837   4.8741   6.3581   6.5231   6.6927   9.8769  10.5470
    10.5766  10.8067  10.8321  11.0807  11.1136

          k = 0.2151 0.3717-0.0572 (  7106 PWs)   bands (ev):

   -12.9100 -12.7884 -12.6745 -11.4422 -11.4405 -11.3385 -11.3335 -11.2283
   -11.2267  -7.6496  -7.5872  -7.5273  -6.8704  -6.8221  -6.7934  -4.2930
    -4.2441  -4.2020  -3.4067  -3.3988  -3.3545  -3.3529  -3.3141  -3.3053
    -2.1064  -1.5962  -1.1460  -1.1341  -1.1116  -1.1097  -1.0869  -1.0799
    -0.8536  -0.5923  -0.5669  -0.5413  -0.3633  -0.1413   0.1818   0.4048
     0.4130   0.4285   0.4430   0.7238   0.7781   0.9532   1.7639   1.8011
     4.1113   4.4302   4.9048   6.3551   6.5354   6.6832   9.8607  10.5682
    10.5799  10.7979  10.8400  11.0765  11.1118

          k = 0.2189 0.5546 0.1321 (  7099 PWs)   bands (ev):

   -12.4996 -12.3813 -12.2703 -12.0078 -11.8991 -11.7856 -11.5233 -11.4138
   -11.3083  -7.5030  -7.4367  -7.3720  -6.5501  -6.5064  -6.4751  -4.8943
    -4.8650  -4.8295  -2.9367  -2.9013  -2.8754  -2.3841  -2.3440  -2.3039
    -1.7802  -1.4962  -1.4723  -1.4525  -1.4160  -1.3923  -1.3646  -1.2160
    -1.0926  -0.7107  -0.6798  -0.6569  -0.4228  -0.1981  -0.1701  -0.1576
    -0.0115   0.1233   0.1515   0.3094   0.6631   1.0953   1.3376   1.5995
     4.4885   4.8110   5.1718   6.0643   6.2270   6.4451   9.8346  10.8771
    11.0411  11.2399  11.6368  11.9020  12.0480

          k = 0.2153 0.5398-0.0448 (  7095 PWs)   bands (ev):

   -12.4977 -12.3855 -12.2679 -12.0097 -11.8948 -11.7880 -11.5228 -11.4150
   -11.3076  -7.5035  -7.4357  -7.3725  -6.5501  -6.5065  -6.4750  -4.8947
    -4.8639  -4.8301  -2.9364  -2.9019  -2.8752  -2.3844  -2.3437  -2.3040
    -1.8419  -1.4950  -1.4745  -1.4512  -1.4159  -1.3925  -1.3644  -1.1793
    -0.7932  -0.7109  -0.6797  -0.6566  -0.5262  -0.4174  -0.1980  -0.1700
    -0.1578  -0.0922   0.2948   0.7596   0.8377   0.8933   1.1434   1.6802
     4.4926   4.8028   5.1765   6.0624   6.2118   6.4630   9.8440  10.8629
    11.0693  11.2226  11.5883  11.6567  11.9003

          k = 0.2179-0.2861 0.0698 (  7120 PWs)   bands (ev):

   -13.2398 -13.1168 -12.9991 -11.2804 -11.1740 -11.0688 -10.8006 -10.6999
   -10.5969  -8.1250  -8.0533  -7.9873  -6.9280  -6.8666  -6.8105  -4.4458
    -4.3890  -4.3326  -3.9880  -3.9311  -3.8806  -3.4987  -3.4549  -3.4094
    -2.4690  -1.9324  -1.4860  -1.4486  -1.4215  -0.7655  -0.7541  -0.7326
    -0.7117  -0.4932  -0.2694   0.1258   0.1430   0.1653   0.3712   0.5922
     1.0060   1.0297   1.0358   1.1333   1.2305   1.5163   1.8340   2.3401
     3.6769   3.9490   4.3396   6.6865   6.8984   7.1797   9.3985   9.6985
     9.9342  10.1060  10.1246  10.4098  10.7700

          k = 0.2143-0.3009-0.1071 (  7117 PWs)   bands (ev):

   -13.2384 -13.1200 -12.9974 -11.2807 -11.1734 -11.0691 -10.8020 -10.6968
   -10.5986  -8.1243  -8.0548  -7.9864  -6.9291  -6.8640  -6.8120  -4.4460
    -4.3887  -4.3328  -3.9872  -3.9326  -3.8797  -3.4987  -3.4549  -3.4095
    -2.5516  -1.6554  -1.4854  -1.4494  -1.4209  -1.1159  -0.7619  -0.7339
    -0.7117  -0.4886  -0.1015   0.1258   0.1435   0.1653   0.3705   0.6382
     0.9025   1.0074   1.0300   1.0365   1.2394   1.8106   1.8775   2.1729
     3.6592   3.9959   4.3082   6.6771   6.9030   7.1890   9.3868   9.7303
     9.9387  10.0875  10.1449  10.4351  10.7421

          k = 0.2181-0.1180 0.0823 (  7113 PWs)   bands (ev):

   -13.6536 -13.5290 -13.4064 -10.7197 -10.6183 -10.5161  -9.3237  -9.3227
    -9.2338  -9.2300  -9.1457  -9.1441  -6.4634  -6.4598  -6.3919  -6.3905
    -6.3251  -6.3222  -5.1348  -5.0694  -5.0097  -2.9491  -2.3324  -1.9170
    -1.9120  -1.8802  -1.8776  -1.8487  -1.8468  -1.3166  -0.5885  -0.5259
    -0.5004  -0.4862   0.1012   0.8911   1.0855   1.1948   1.2160   1.2373
     1.6382   1.8395   1.8595   1.8682   2.3231   2.4609   2.5099   2.9178
     3.0022   3.4182   3.4308   7.4416   7.4909   7.7648   7.7844   8.1790
     8.2012   8.9404   9.3745   9.8132  10.0805

          k = 0.2145-0.1328-0.0946 (  7128 PWs)   bands (ev):

   -13.6531 -13.5301 -13.4058 -10.7206 -10.6162 -10.5172  -9.3242  -9.3219
    -9.2331  -9.2316  -9.1464  -9.1429  -6.4645  -6.4596  -6.3913  -6.3891
    -6.3264  -6.3220  -5.1340  -5.0711  -5.0088  -2.9798  -2.2381  -1.9166
    -1.9118  -1.8805  -1.8784  -1.8482  -1.8466  -1.4359  -0.5328  -0.5251
    -0.5005  -0.4861   0.1215   0.8839   0.9942   1.1943   1.2159   1.2373
     1.7812   1.8395   1.8595   1.8681   2.2639   2.4611   2.5068   2.9294
     3.0004   3.3839   3.4535   7.4260   7.4786   7.7646   7.8260   8.1827
     8.1884   8.9508   9.3622   9.8040  10.1940

          k = 0.2183 0.0502 0.0947 (  7124 PWs)   bands (ev):

   -13.7361 -13.6126 -13.4875 -10.3245 -10.2222 -10.1282  -9.8575  -9.7630
    -9.6671  -8.5558  -8.4805  -8.4164  -7.3118  -7.2546  -7.1920  -6.0863
    -6.0164  -5.9512  -5.6450  -5.5756  -5.5129  -3.0751  -2.3201  -2.0039
    -1.9643  -1.9350  -1.5439  -1.2574  -1.2265  -1.2036  -0.7686  -0.7500
    -0.7276  -0.5935   0.3000   0.8819   1.3904   1.4948   1.5209   1.5332
     1.9388   1.9634   1.9746   1.9886   2.1982   2.4417   2.5620   3.0583
     3.0899   3.4208   3.6486   7.0481   7.1957   7.5022   7.8596   8.3216
     8.4212   8.7340   8.8164   9.2391  10.1303

[...]
     0.7250   0.9994   1.0180   1.0311   1.4213   1.4546   2.2383   2.6901
     2.9733   3.4365   3.8996   7.2290   7.4175   7.6601   8.7092   8.9889
     9.2450   9.7253  10.7038  11.0127  11.2041

     the Fermi energy is     5.5374 ev

!    total energy              =    -294.05196443 Ry
     estimated scf accuracy    <          3.0E-09 Ry
     smearing contrib. (-TS)   =      -0.00000001 Ry
     internal energy E=F+TS    =    -294.05196442 Ry

     The total energy is F=E-TS. E is the sum of the following terms:
     one-electron contribution =    -202.18168652 Ry
     hartree contribution      =     147.06771075 Ry
     xc contribution           =    -103.58503401 Ry
     ewald contribution        =    -135.35295464 Ry

     convergence has been achieved in  48 iterations

     Forces acting on atoms (cartesian axes, Ry/au):

     atom    1 type  1   force =     0.00011439   -0.00028154    0.00011037
     atom    2 type  1   force =     0.00006050    0.00019038    0.00018272
     atom    3 type  1   force =     0.00001618   -0.00001712   -0.00011105
     atom    4 type  1   force =    -0.00002611   -0.00008464    0.00025677
     atom    5 type  1   force =    -0.00006897   -0.00003623    0.00020587
     atom    6 type  1   force =     0.00000169    0.00008451    0.00007373
     atom    7 type  1   force =     0.00010649   -0.00025353    0.00008081
     atom    8 type  1   force =     0.00008216    0.00016655    0.00018309
     atom    9 type  1   force =     0.00003035    0.00008697   -0.00032122
     atom   10 type  1   force =     0.00000402   -0.00012002    0.00021003
     atom   11 type  1   force =    -0.00018011   -0.00006408    0.00008789
     atom   12 type  1   force =     0.00011394    0.00008778   -0.00018506
     atom   13 type  1   force =     0.00013036   -0.00028865    0.00021980
     atom   14 type  1   force =     0.00005652    0.00007009   -0.00002652
     atom   15 type  1   force =    -0.00000333    0.00002078   -0.00039838
     atom   16 type  1   force =     0.00001663   -0.00006037    0.00013533
     atom   17 type  1   force =    -0.00012894   -0.00004906   -0.00009847
     atom   18 type  1   force =    -0.00000089    0.00006528   -0.00011663
     atom   19 type  1   force =     0.00010704   -0.00027351    0.00021965
     atom   20 type  1   force =     0.00001158    0.00013908    0.00004088
     atom   21 type  1   force =    -0.00005489    0.00006681   -0.00004616
     atom   22 type  1   force =     0.00000097   -0.00010568    0.00013167
     atom   23 type  1   force =    -0.00010822   -0.00007818   -0.00003719
     atom   24 type  1   force =    -0.00007085    0.00004829    0.00014384
     atom   25 type  2   force =    -0.00013214   -0.00015867   -0.00024616
     atom   26 type  2   force =    -0.00039488    0.00022603   -0.00032284
     atom   27 type  2   force =    -0.00055082    0.00033908   -0.00024640
     atom   28 type  2   force =     0.00065014   -0.00001115    0.00017357
     atom   29 type  2   force =     0.00019571    0.00015834   -0.00007528
     atom   30 type  2   force =     0.00002147    0.00013247   -0.00022466
     The non-local contrib.  to forces
     atom    1 type  1   force =     0.00014607   -0.00027644    0.00029864
     atom    2 type  1   force =     0.00162501   -0.00086208   -0.00040079
     atom    3 type  1   force =     0.00180481    0.00031921    0.00042221
     atom    4 type  1   force =    -0.00001065    0.00008103    0.00014826
     atom    5 type  1   force =    -0.00023040   -0.00133463   -0.00032688
     atom    6 type  1   force =     0.00090638   -0.00041401    0.00120072
     atom    7 type  1   force =     0.00002228   -0.00018906    0.00024179
     atom    8 type  1   force =    -0.00124390   -0.00076565   -0.00068633
     atom    9 type  1   force =    -0.00114581    0.00043645   -0.00036220
     atom   10 type  1   force =    -0.00006384    0.00003168    0.00005305
     atom   11 type  1   force =    -0.00023903   -0.00050863   -0.00227484
     atom   12 type  1   force =    -0.00128656   -0.00056468    0.00066187
     atom   13 type  1   force =     0.00007599   -0.00020788    0.00029909
     atom   14 type  1   force =    -0.00003773    0.00157542   -0.00110037
     atom   15 type  1   force =     0.00023793    0.00021715    0.00171389
     atom   16 type  1   force =     0.00000953    0.00014354    0.00035035
     atom   17 type  1   force =    -0.00120523    0.00054386   -0.00083774
     atom   18 type  1   force =    -0.00004611    0.00183781   -0.00004733
     atom   19 type  1   force =     0.00010733   -0.00029471    0.00007066
     atom   20 type  1   force =     0.00022016   -0.00009947   -0.00163662
     atom   21 type  1   force =     0.00042255   -0.00165673    0.00104936
     atom   22 type  1   force =    -0.00000578    0.00000189    0.00014090
     atom   23 type  1   force =     0.00076391    0.00070325   -0.00042107
     atom   24 type  1   force =    -0.00060694    0.00070093    0.00209396
     atom   25 type  2   force =     0.04830763    0.03976869   -0.00533801
     atom   26 type  2   force =    -0.04826840   -0.03998537    0.00535467
     atom   27 type  2   force =     0.06016719   -0.01837406   -0.00271732
     atom   28 type  2   force =    -0.05997481    0.01857024    0.00273028
     atom   29 type  2   force =     0.01539328   -0.06031364    0.00805832
     atom   30 type  2   force =    -0.01563613    0.06036788   -0.00805530
     The ionic contribution  to forces
     atom    1 type  1   force =     0.00145826    0.00302430    0.03742422
     atom    2 type  1   force =     0.16319344    0.55959429    5.35248063
     atom    3 type  1   force =    -0.02226533   -0.56715221   -5.36381017
     atom    4 type  1   force =     0.00125782    0.00348747    0.02719358
     atom    5 type  1   force =     0.09436146    0.52071262    5.35426192
     atom    6 type  1   force =    -0.02630144   -0.63791851   -5.35447936
     atom    7 type  1   force =    -0.00018239    0.00354693    0.03732547
     atom    8 type  1   force =     0.03068807    0.55991352    5.35213646
     atom    9 type  1   force =    -0.16673046   -0.56549033   -5.37186579
     atom   10 type  1   force =    -0.00012496    0.00343098    0.02677651
     atom   11 type  1   force =     0.09281876    0.58995469    5.26626048
     atom   12 type  1   force =    -0.16571865   -0.64323780   -5.35477338
     atom   13 type  1   force =     0.00037360    0.00362638    0.03539344
     atom   14 type  1   force =     0.09476162    0.67900204    5.34298358
     atom   15 type  1   force =    -0.09469900   -0.58761224   -5.26539188
     atom   16 type  1   force =     0.00054936    0.00424582    0.03401839
     atom   17 type  1   force =     0.02741662    0.64146801    5.35140085
     atom   18 type  1   force =    -0.09579733   -0.52133039   -5.38434244
     atom   19 type  1   force =     0.00097870    0.00241511    0.03079905
     atom   20 type  1   force =     0.09605269    0.59302248    5.26150151
     atom   21 type  1   force =    -0.09488880   -0.67961130   -5.34973983
     atom   22 type  1   force =     0.00087173    0.00292678    0.03008388
     atom   23 type  1   force =     0.16291124    0.64074728    5.35344581
     atom   24 type  1   force =    -0.09762532   -0.59161901   -5.28118380
     atom   25 type  2   force =    -0.67372903   -0.48537818    0.01683265
     atom   26 type  2   force =     0.70804095    0.47554350   -0.11638280
     atom   27 type  2   force =    -0.78680883    0.32253431   -0.02966566
     atom   28 type  2   force =     0.76558923   -0.29093638    0.00154644
     atom   29 type  2   force =    -0.14422475    0.79685364   -0.11047328
     atom   30 type  2   force =     0.12777276   -0.83576380    0.07024349
     The local contribution  to forces
     atom    1 type  1   force =    -0.00149831   -0.00302818   -0.03759168
     atom    2 type  1   force =    -0.16472531   -0.55856453   -5.35188315
     atom    3 type  1   force =     0.02050661    0.56682638    5.36326371
     atom    4 type  1   force =    -0.00126379   -0.00365795   -0.02713254
     atom    5 type  1   force =    -0.09419995   -0.51943817   -5.35369018
     atom    6 type  1   force =     0.02541414    0.63839694    5.35332296
     atom    7 type  1   force =     0.00025493   -0.00360799   -0.03746598
     atom    8 type  1   force =    -0.02938344   -0.55898385   -5.35126169
     atom    9 type  1   force =     0.16787876    0.56513496    5.37187576
     atom   10 type  1   force =     0.00020073   -0.00358933   -0.02666778
     atom   11 type  1   force =    -0.09277062   -0.58951485   -5.26389029
     atom   12 type  1   force =     0.16709059    0.64388134    5.35389414
     atom   13 type  1   force =    -0.00032869   -0.00370583   -0.03545770
     atom   14 type  1   force =    -0.09465111   -0.68047352   -5.34189910
     atom   15 type  1   force =     0.09445685    0.58742010    5.26331578
     atom   16 type  1   force =    -0.00053241   -0.00445196   -0.03426624
     atom   17 type  1   force =    -0.02637340   -0.64205059   -5.35061102
     atom   18 type  1   force =     0.09585168    0.51958527    5.38420969
     atom   19 type  1   force =    -0.00098815   -0.00239396   -0.03064461
     atom   20 type  1   force =    -0.09624839   -0.59278415   -5.25984588
     atom   21 type  1   force =     0.09442334    0.68129803    5.34863492
     atom   22 type  1   force =    -0.00085508   -0.00304029   -0.03013396
     atom   23 type  1   force =    -0.16377808   -0.64150090   -5.35300191
     atom   24 type  1   force =     0.09814941    0.59097490    5.27922303
     atom   25 type  2   force =     0.62529017    0.44545141   -0.01173553
     atom   26 type  2   force =    -0.66016853   -0.43533145    0.11071057
     atom   27 type  2   force =     0.72609137   -0.30382177    0.03214201
     atom   28 type  2   force =    -0.70496479    0.27235609   -0.00409767
     atom   29 type  2   force =     0.12902696   -0.73638196    0.10234519
     atom   30 type  2   force =    -0.11211447    0.77552983   -0.06240765
     The core correction contribution to forces
     atom    1 type  1   force =     0.00000778   -0.00000363   -0.00004020
     atom    2 type  1   force =    -0.00003583    0.00002756    0.00000912
     atom    3 type  1   force =    -0.00003365   -0.00001535   -0.00000546
     atom    4 type  1   force =    -0.00001001    0.00000255    0.00002811
     atom    5 type  1   force =     0.00000041    0.00002981   -0.00001582
     atom    6 type  1   force =    -0.00002047    0.00001980    0.00000969
     atom    7 type  1   force =     0.00001154   -0.00000584   -0.00003984
     atom    8 type  1   force =     0.00002557    0.00000769    0.00001745
     atom    9 type  1   force =     0.00003083    0.00000161    0.00001238
     atom   10 type  1   force =    -0.00000829    0.00000443    0.00002893
     atom   11 type  1   force =     0.00001081    0.00000752    0.00001817
     atom   12 type  1   force =     0.00003085    0.00000844    0.00001276
     atom   13 type  1   force =     0.00000904   -0.00000380   -0.00003446
     atom   14 type  1   force =    -0.00001603   -0.00003604    0.00001320
     atom   15 type  1   force =     0.00000002   -0.00000641   -0.00005809
     atom   16 type  1   force =    -0.00001027   -0.00000004    0.00001341
     atom   17 type  1   force =     0.00003608   -0.00000930   -0.00002689
     atom   18 type  1   force =    -0.00000937   -0.00003323    0.00004451
     atom   19 type  1   force =     0.00000884   -0.00000214   -0.00002485
     atom   20 type  1   force =    -0.00001208    0.00000241    0.00004787
     atom   21 type  1   force =    -0.00001200    0.00003875   -0.00001024
     atom   22 type  1   force =    -0.00001039    0.00000371    0.00002151
     atom   23 type  1   force =    -0.00000780   -0.00002704   -0.00003625
     atom   24 type  1   force =     0.00001141   -0.00001143   -0.00001057
     atom   25 type  2   force =     0.00000000    0.00000000    0.00000000
     atom   26 type  2   force =     0.00000000    0.00000000    0.00000000
     atom   27 type  2   force =     0.00000000    0.00000000    0.00000000
     atom   28 type  2   force =     0.00000000    0.00000000    0.00000000
     atom   29 type  2   force =     0.00000000    0.00000000    0.00000000
     atom   30 type  2   force =     0.00000000    0.00000000    0.00000000
     The Hubbard contrib.    to forces
     atom    1 type  1   force =     0.00000000    0.00000000    0.00000000
     atom    2 type  1   force =     0.00000000    0.00000000    0.00000000
     atom    3 type  1   force =     0.00000000    0.00000000    0.00000000
     atom    4 type  1   force =     0.00000000    0.00000000    0.00000000
     atom    5 type  1   force =     0.00000000    0.00000000    0.00000000
     atom    6 type  1   force =     0.00000000    0.00000000    0.00000000
     atom    7 type  1   force =     0.00000000    0.00000000    0.00000000
     atom    8 type  1   force =     0.00000000    0.00000000    0.00000000
     atom    9 type  1   force =     0.00000000    0.00000000    0.00000000
     atom   10 type  1   force =     0.00000000    0.00000000    0.00000000
     atom   11 type  1   force =     0.00000000    0.00000000    0.00000000
     atom   12 type  1   force =     0.00000000    0.00000000    0.00000000
     atom   13 type  1   force =     0.00000000    0.00000000    0.00000000
     atom   14 type  1   force =     0.00000000    0.00000000    0.00000000
     atom   15 type  1   force =     0.00000000    0.00000000    0.00000000
     atom   16 type  1   force =     0.00000000    0.00000000    0.00000000
     atom   17 type  1   force =     0.00000000    0.00000000    0.00000000
     atom   18 type  1   force =     0.00000000    0.00000000    0.00000000
     atom   19 type  1   force =     0.00000000    0.00000000    0.00000000
     atom   20 type  1   force =     0.00000000    0.00000000    0.00000000
     atom   21 type  1   force =     0.00000000    0.00000000    0.00000000
     atom   22 type  1   force =     0.00000000    0.00000000    0.00000000
     atom   23 type  1   force =     0.00000000    0.00000000    0.00000000
     atom   24 type  1   force =     0.00000000    0.00000000    0.00000000
     atom   25 type  2   force =     0.00000000    0.00000000    0.00000000
     atom   26 type  2   force =     0.00000000    0.00000000    0.00000000
     atom   27 type  2   force =     0.00000000    0.00000000    0.00000000
     atom   28 type  2   force =     0.00000000    0.00000000    0.00000000
     atom   29 type  2   force =     0.00000000    0.00000000    0.00000000
     atom   30 type  2   force =     0.00000000    0.00000000    0.00000000
     The SCF correction term to forces
     atom    1 type  1   force =     0.00000052    0.00000225    0.00001924
     atom    2 type  1   force =     0.00000314   -0.00000500   -0.00002324
     atom    3 type  1   force =     0.00000368    0.00000470    0.00001851
     atom    4 type  1   force =     0.00000046    0.00000211    0.00001922
     atom    5 type  1   force =    -0.00000055   -0.00000600   -0.00002333
     atom    6 type  1   force =     0.00000302    0.00000015    0.00001958
     atom    7 type  1   force =     0.00000007    0.00000227    0.00001923
     atom    8 type  1   force =    -0.00000419   -0.00000531   -0.00002295
     atom    9 type  1   force =    -0.00000302    0.00000415    0.00001847
     atom   10 type  1   force =     0.00000032    0.00000207    0.00001917
     atom   11 type  1   force =    -0.00000009   -0.00000297   -0.00002579
     atom   12 type  1   force =    -0.00000235    0.00000032    0.00001941
     atom   13 type  1   force =     0.00000035    0.00000234    0.00001927
     atom   14 type  1   force =    -0.00000029    0.00000204   -0.00002399
     atom   15 type  1   force =     0.00000083    0.00000202    0.00002177
     atom   16 type  1   force =     0.00000037    0.00000212    0.00001927
     atom   17 type  1   force =    -0.00000307   -0.00000120   -0.00002382
     atom   18 type  1   force =     0.00000018    0.00000568    0.00001880
     atom   19 type  1   force =     0.00000026    0.00000204    0.00001924
     atom   20 type  1   force =    -0.00000084   -0.00000234   -0.00002615
     atom   21 type  1   force =    -0.00000004   -0.00000208    0.00001948
     atom   22 type  1   force =     0.00000043    0.00000207    0.00001920
     atom   23 type  1   force =     0.00000245   -0.00000091   -0.00002391
     atom   24 type  1   force =     0.00000052    0.00000275    0.00002107
     atom   25 type  2   force =    -0.00000095   -0.00000074   -0.00000541
     atom   26 type  2   force =     0.00000105   -0.00000078   -0.00000543
     atom   27 type  2   force =    -0.00000061    0.00000044   -0.00000558
     atom   28 type  2   force =     0.00000046   -0.00000125   -0.00000563
     atom   29 type  2   force =     0.00000016    0.00000016   -0.00000567
     atom   30 type  2   force =    -0.00000075   -0.00000159   -0.00000536

     Total force =     0.001690     Total SCF correction =     0.000106


     Computing stress (Cartesian axis) and pressure

          total   stress  (Ry/bohr**3)                   (kbar)     P=        0.48
   0.00000207   0.00000013   0.00000389            0.31        0.02        0.57
   0.00000013   0.00000296  -0.00000557            0.02        0.44       -0.82
   0.00000389  -0.00000557   0.00000477            0.57       -0.82        0.70


     Writing all to output data dir ../../results/server/3h2_abs/3H2abs_C.save/
 
     init_run     :      1.21s CPU      1.43s WALL (       2 calls)
     electrons    :    609.96s CPU    667.48s WALL (      41 calls)
     update_pot   :      7.28s CPU      7.75s WALL (      39 calls)
     forces       :      9.35s CPU     10.93s WALL (      41 calls)
     stress       :     88.43s CPU     91.28s WALL (      41 calls)

     Called by init_run:
     wfcinit      :      0.75s CPU      0.85s WALL (       2 calls)
     potinit      :      0.12s CPU      0.13s WALL (       2 calls)
     hinit0       :      0.19s CPU      0.26s WALL (       2 calls)

     Called by electrons:
     c_bands      :    529.37s CPU    564.87s WALL (     610 calls)
     sum_band     :     62.35s CPU     70.57s WALL (     610 calls)
     v_of_rho     :      1.01s CPU      2.16s WALL (     634 calls)
     newd         :      5.45s CPU      7.33s WALL (     634 calls)
     mix_rho      :      6.59s CPU     12.70s WALL (     610 calls)

     Called by c_bands:
     init_us_2    :      3.19s CPU      4.40s WALL (   23472 calls)
     init_us_2:cp :      3.12s CPU      4.29s WALL (   23472 calls)
     cegterg      :    471.38s CPU    500.94s WALL (   10983 calls)

     Called by *egterg:
     cdiaghg      :    172.24s CPU    182.77s WALL (   45166 calls)
     h_psi        :    229.74s CPU    245.28s WALL (   46213 calls)
     s_psi        :     10.88s CPU     11.31s WALL (   46213 calls)
     g_psi        :      0.80s CPU      0.86s WALL (   35194 calls)

     Called by h_psi:
     h_psi:calbec :     26.93s CPU     29.52s WALL (   46213 calls)
     vloc_psi     :    189.44s CPU    201.44s WALL (   46213 calls)
     add_vuspsi   :     12.06s CPU     12.78s WALL (   46213 calls)

     General routines
     calbec       :     47.83s CPU     51.68s WALL (   60883 calls)
     fft          :      4.19s CPU      6.00s WALL (    4106 calls)
     ffts         :      1.98s CPU      3.05s WALL (   15716 calls)
     fftw         :    188.06s CPU    201.01s WALL ( 4377898 calls)
     interpolate  :      0.35s CPU      0.87s WALL (     634 calls)
 
     Parallel routines
 
     PWSCF        :  11m58.43s CPU  13m 4.13s WALL

 
   This run was terminated on:  20:23:37   2Sep2024            

=------------------------------------------------------------------------------=
   JOB DONE.
=------------------------------------------------------------------------------=
