
     Program PWSCF v.7.2 starts on  2Sep2024 at 19:45:24 

     This program is part of the open-source Quantum ESPRESSO suite
     for quantum simulation of materials; please cite
         "P. Giannozzi et al., J. Phys.:Condens. Matter 21 395502 (2009);
         "P. Giannozzi et al., J. Phys.:Condens. Matter 29 465901 (2017);
         "P. Giannozzi et al., J. Chem. Phys. 152 154105 (2020);
          URL http://www.quantum-espresso.org", 
     in publications or presentations arising from this work. More details at
     http://www.quantum-espresso.org/quote

     Parallel version (MPI & OpenMP), running on      96 processor cores
     Number of MPI processes:                96
     Threads/MPI process:                     1

     MPI processes distributed on     2 nodes
     366337 MiB available memory on the printing compute node when the environment starts
 
     Reading input from hydrogen_absorption3.in

     Current dimensions of program PWSCF are:
     Max number of different atomic species (ntypx) = 10
     Max number of k-points (npk) =  40000
     Max angular momentum in pseudopotentials (lmaxx) =  4

     IMPORTANT: XC functional enforced from input :
     Exchange-correlation= LDA
                           (   1   1   0   0   0   0   0)
     Any further DFT definition will be discarded
     Please, verify this is what you really want

 
     K-points division:     npool     =       3
     R & G space division:  proc/nbgrp/npool/nimage =      32
     Subspace diagonalization in iterative solution of the eigenvalue problem:
     a serial algorithm will be used

 
     Parallelization info
     --------------------
     sticks:   dense  smooth     PW     G-vecs:    dense   smooth      PW
     Min          73      29      8                 6758     1710     272
     Max          74      31      9                 6770     1714     282
     Sum        2347     955    283               216381    54765    8881
 
     Using Slab Decomposition
 

     Title: 
     3H2_absorption_C                                                           


     bravais-lattice index     =            0
     lattice parameter (alat)  =       8.0000  a.u.
     unit-cell volume          =    1601.3137 (a.u.)^3
     number of atoms/cell      =           30
     number of atomic types    =            2
     number of electrons       =       102.00
     number of Kohn-Sham states=           61
     kinetic-energy cutoff     =      40.0000  Ry
     charge density cutoff     =     400.0000  Ry
     scf convergence threshold =      1.0E-06
     mixing beta               =       0.0500
     number of iterations used =            8  local-TF  mixing
     energy convergence thresh.=      1.0E-04
     force convergence thresh. =      1.0E-03
     press convergence thresh. =      5.0E-01
     Exchange-correlation= LDA
                           (   1   1   0   0   0   0   0)
     nstep                     =           50


     celldm(1)=   8.000004  celldm(2)=   0.000000  celldm(3)=   0.000000
     celldm(4)=   0.000000  celldm(5)=   0.000000  celldm(6)=   0.000000

     crystal axes: (cart. coord. in units of alat)
               a(1) = (   1.154038   0.000189  -0.028246 )  
               a(2) = (  -0.576999   0.999487   0.006610 )  
               a(3) = (  -0.056944  -0.018118   2.712768 )  

     reciprocal axes: (cart. coord. in units 2 pi/alat)
               b(1) = (  0.866968  0.500354  0.021540 )  
               b(2) = (  0.000000  1.000469  0.006682 )  
               b(3) = (  0.009027  0.002772  0.368835 )  


     PseudoPot. # 1 for C  read from file:
     ../../potentials/C.pz-n-rrkjus_psl.0.1.UPF
     MD5 check sum: a3cecbabebb5b3a1aff122f23eb09bb0
     Pseudo is Ultrasoft + core correction, Zval =  4.0
     Generated using "atomic" code by A. Dal Corso  v.5.0.2 svn rev. 9415
     Using radial grid of 1073 points,  4 beta functions with: 
                l(1) =   0
                l(2) =   0
                l(3) =   1
                l(4) =   1
     Q(r) pseudized with 0 coefficients 


     PseudoPot. # 2 for H  read from file:
     ../../potentials/H.pz-rrkjus_psl.0.1.UPF
     MD5 check sum: 1467ebfaa2880178e80d097b970df8c7
     Pseudo is Ultrasoft, Zval =  1.0
     Generated using "atomic" code by A. Dal Corso  v.5.0.2 svn rev. 9415
     Using radial grid of  929 points,  2 beta functions with: 
                l(1) =   0
                l(2) =   0
     Q(r) pseudized with 0 coefficients 


     atomic species   valence    mass     pseudopotential
        C              4.00    12.01100     C ( 1.00)
        H              1.00     1.00784     H ( 1.00)

     No symmetry found



   Cartesian axes

     site n.     atom                  positions (alat units)
         1           C   tau(   1) = (  -0.0163773  -0.0077523   0.4639731  )
         2           C   tau(   2) = (  -0.0059512   0.0000037   1.1940866  )
         3           C   tau(   3) = (  -0.0607028  -0.0213481   2.3949472  )
         4           C   tau(   4) = (  -0.0163749   0.3255183   0.4612508  )
         5           C   tau(   5) = (   0.2824664   0.1664578   1.1888409  )
         6           C   tau(   6) = (  -0.0606230   0.3116513   2.3914291  )
         7           C   tau(   7) = (   0.5606770  -0.0076298   0.4499241  )
         8           C   tau(   8) = (   0.5711034  -0.0002067   1.1819286  )
         9           C   tau(   9) = (   0.5162694  -0.0214923   2.3775553  )
        10           C   tau(  10) = (   0.5606515   0.3255909   0.4472869  )
        11           C   tau(  11) = (   0.8596301   0.1666335   1.1722087  )
        12           C   tau(  12) = (   0.5165093   0.3118313   2.3742550  )
        13           C   tau(  13) = (  -0.3047947   0.4920339   0.4673829  )
        14           C   tau(  14) = (  -0.2947007   0.4995626   1.1958522  )
        15           C   tau(  15) = (  -0.3491674   0.4782756   2.3969561  )
        16           C   tau(  16) = (  -0.3048676   0.8252468   0.4645823  )
        17           C   tau(  17) = (  -0.0061549   0.6662048   1.1884667  )
        18           C   tau(  18) = (  -0.3492756   0.8114783   2.3941276  )
        19           C   tau(  19) = (   0.2721778   0.4920990   0.4532114  )
        20           C   tau(  20) = (   0.2822983   0.4999228   1.1850796  )
        21           C   tau(  21) = (   0.2276814   0.4785555   2.3809346  )
        22           C   tau(  22) = (   0.2721693   0.8253502   0.4503521  )
        23           C   tau(  23) = (   0.5710457   0.6664154   1.1754327  )
        24           C   tau(  24) = (   0.2278188   0.8115705   2.3806499  )
        25           H   tau(  25) = (   0.4310950   0.8058296   1.7552484  )
        26           H   tau(  26) = (   0.3178308   0.9480078   1.7656829  )
        27           H   tau(  27) = (  -0.2330412   0.6104606   1.8036137  )
        28           H   tau(  28) = (  -0.0574700   0.5624247   1.8034018  )
        29           H   tau(  29) = (   0.5713698   0.7452624   1.8240869  )
        30           H   tau(  30) = (   0.5057072   0.5663125   1.8244020  )

     number of k points=    36  Gaussian smearing, width (Ry)=  0.0100
                       cart. coord. in units 2pi/alat
        k(    1) = (   0.0745041   0.1257616   0.0945606), wk =   0.0555556
        k(    2) = (   0.0699906   0.1243756  -0.0898569), wk =   0.0555556
        k(    3) = (   0.0745041   0.2925065   0.0956743), wk =   0.0555556
        k(    4) = (   0.0699906   0.2911205  -0.0887433), wk =   0.0555556
        k(    5) = (   0.0745042   0.4592514   0.0967879), wk =   0.0555556
        k(    6) = (   0.0699906   0.4578654  -0.0876297), wk =   0.0555556
        k(    7) = (   0.0745041  -0.3744731   0.0912197), wk =   0.0555556
        k(    8) = (   0.0699906  -0.3758591  -0.0931979), wk =   0.0555556
        k(    9) = (   0.0745041  -0.2077282   0.0923333), wk =   0.0555556
        k(   10) = (   0.0699906  -0.2091142  -0.0920842), wk =   0.0555556
        k(   11) = (   0.0745041  -0.0409833   0.0934470), wk =   0.0555556
        k(   12) = (   0.0699906  -0.0423693  -0.0909706), wk =   0.0555556
        k(   13) = (   0.2189988   0.2091540   0.0981506), wk =   0.0555556
        k(   14) = (   0.2144853   0.2077679  -0.0862669), wk =   0.0555556
        k(   15) = (   0.2189988   0.3758989   0.0992643), wk =   0.0555556
        k(   16) = (   0.2144853   0.3745128  -0.0851533), wk =   0.0555556
        k(   17) = (   0.2189989   0.5426438   0.1003779), wk =   0.0555556
        k(   18) = (   0.2144853   0.5412577  -0.0840396), wk =   0.0555556
        k(   19) = (   0.2189988  -0.2910807   0.0948097), wk =   0.0555556
        k(   20) = (   0.2144853  -0.2924668  -0.0896078), wk =   0.0555556
        k(   21) = (   0.2189988  -0.1243358   0.0959234), wk =   0.0555556
        k(   22) = (   0.2144853  -0.1257219  -0.0884942), wk =   0.0555556
        k(   23) = (   0.2189988   0.0424091   0.0970370), wk =   0.0555556
        k(   24) = (   0.2144853   0.0410230  -0.0873805), wk =   0.0555556
        k(   25) = (   0.3634935   0.2925463   0.1017407), wk =   0.0555556
        k(   26) = (   0.3589800   0.2911603  -0.0826769), wk =   0.0555556
        k(   27) = (   0.3634936   0.4592912   0.1028543), wk =   0.0555556
        k(   28) = (   0.3589800   0.4579052  -0.0815632), wk =   0.0555556
        k(   29) = (   0.3634936   0.6260361   0.1039680), wk =   0.0555556
        k(   30) = (   0.3589801   0.6246501  -0.0804496), wk =   0.0555556
        k(   31) = (   0.3634935  -0.2076884   0.0983998), wk =   0.0555556
        k(   32) = (   0.3589800  -0.2090744  -0.0860178), wk =   0.0555556
        k(   33) = (   0.3634935  -0.0409435   0.0995134), wk =   0.0555556
        k(   34) = (   0.3589800  -0.0423295  -0.0849042), wk =   0.0555556
        k(   35) = (   0.3634935   0.1258014   0.1006270), wk =   0.0555556
        k(   36) = (   0.3589800   0.1244154  -0.0837905), wk =   0.0555556

     Dense  grid:   216381 G-vectors     FFT dimensions: (  60,  60, 144)

     Smooth grid:    54765 G-vectors     FFT dimensions: (  40,  40,  90)

     Estimated max dynamical RAM per process >      13.26 MB

     Estimated total dynamical RAM >       1.14 GB

     Check: negative core charge=   -0.000002

     Initial potential from superposition of free atoms

     starting charge     101.9991, renormalised to     102.0000
     Starting wfcs are  102 randomized atomic wfcs

     total cpu time spent up to now is        0.9 secs

     Self-consistent Calculation

     iteration #  1     ecut=    40.00 Ry     beta= 0.05
     Davidson diagonalization with overlap
     ethr =  1.00E-02,  avg # of iterations =  3.1

     total cpu time spent up to now is        2.0 secs

     total energy              =    -294.61326612 Ry
     estimated scf accuracy    <       1.90651663 Ry

     iteration #  2     ecut=    40.00 Ry     beta= 0.05
     Davidson diagonalization with overlap
     ethr =  1.87E-03,  avg # of iterations =  3.4

     total cpu time spent up to now is        2.9 secs

     total energy              =    -295.52812199 Ry
     estimated scf accuracy    <       2.35052659 Ry

     iteration #  3     ecut=    40.00 Ry     beta= 0.05
     Davidson diagonalization with overlap
     ethr =  1.87E-03,  avg # of iterations =  1.0

     total cpu time spent up to now is        3.4 secs

     total energy              =    -293.54667614 Ry
     estimated scf accuracy    <       3.62666315 Ry

     iteration #  4     ecut=    40.00 Ry     beta= 0.05
     Davidson diagonalization with overlap
     ethr =  1.87E-03,  avg # of iterations =  2.0

     total cpu time spent up to now is        4.2 secs

     total energy              =    -293.75228988 Ry
     estimated scf accuracy    <       0.27592170 Ry

     iteration #  5     ecut=    40.00 Ry     beta= 0.05
     Davidson diagonalization with overlap
     ethr =  2.71E-04,  avg # of iterations =  5.2

     total cpu time spent up to now is        5.3 secs

     total energy              =    -293.72927614 Ry
     estimated scf accuracy    <       0.20066255 Ry

     iteration #  6     ecut=    40.00 Ry     beta= 0.05
     Davidson diagonalization with overlap
     ethr =  1.97E-04,  avg # of iterations =  3.2

     total cpu time spent up to now is        6.2 secs

     total energy              =    -293.73508777 Ry
     estimated scf accuracy    <       0.04443885 Ry

     iteration #  7     ecut=    40.00 Ry     beta= 0.05
     Davidson diagonalization with overlap
     c_bands:  1 eigenvalues not converged
     ethr =  4.36E-05,  avg # of iterations = 10.2

     total cpu time spent up to now is        7.8 secs

     total energy              =    -293.76914688 Ry
     estimated scf accuracy    <       0.04052020 Ry

     iteration #  8     ecut=    40.00 Ry     beta= 0.05
     Davidson diagonalization with overlap
     ethr =  3.97E-05,  avg # of iterations =  1.5

     total cpu time spent up to now is        8.5 secs

     total energy              =    -293.75073141 Ry
     estimated scf accuracy    <       0.03104636 Ry

     iteration #  9     ecut=    40.00 Ry     beta= 0.05
     Davidson diagonalization with overlap
     ethr =  3.04E-05,  avg # of iterations =  4.5

     total cpu time spent up to now is        9.5 secs

     total energy              =    -293.76133561 Ry
     estimated scf accuracy    <       0.00478490 Ry

     iteration # 10     ecut=    40.00 Ry     beta= 0.05
     Davidson diagonalization with overlap
     c_bands:  1 eigenvalues not converged
     ethr =  4.69E-06,  avg # of iterations = 12.0

     total cpu time spent up to now is       11.3 secs

     total energy              =    -293.76367599 Ry
     estimated scf accuracy    <       0.01391047 Ry

     iteration # 11     ecut=    40.00 Ry     beta= 0.05
     Davidson diagonalization with overlap
     ethr =  4.69E-06,  avg # of iterations =  1.9

     total cpu time spent up to now is       12.0 secs

     total energy              =    -293.76429788 Ry
     estimated scf accuracy    <       0.01485356 Ry

     iteration # 12     ecut=    40.00 Ry     beta= 0.05
     Davidson diagonalization with overlap
     ethr =  4.69E-06,  avg # of iterations =  1.0

     total cpu time spent up to now is       12.5 secs

     total energy              =    -293.75551112 Ry
     estimated scf accuracy    <       0.01614922 Ry

     iteration # 13     ecut=    40.00 Ry     beta= 0.05
     Davidson diagonalization with overlap
     ethr =  4.69E-06,  avg # of iterations =  5.4

     total cpu time spent up to now is       13.5 secs

     total energy              =    -293.75625451 Ry
     estimated scf accuracy    <       0.00130465 Ry

     iteration # 14     ecut=    40.00 Ry     beta= 0.05
     Davidson diagonalization with overlap
     c_bands:  1 eigenvalues not converged
     ethr =  1.28E-06,  avg # of iterations =  6.9

     total cpu time spent up to now is       14.7 secs

     total energy              =    -293.75681410 Ry
     estimated scf accuracy    <       0.00026333 Ry

     iteration # 15     ecut=    40.00 Ry     beta= 0.05
     Davidson diagonalization with overlap
     ethr =  2.58E-07,  avg # of iterations =  2.0

     total cpu time spent up to now is       15.3 secs

     total energy              =    -293.75654501 Ry
     estimated scf accuracy    <       0.00055144 Ry

     iteration # 16     ecut=    40.00 Ry     beta= 0.05
     Davidson diagonalization with overlap
     ethr =  2.58E-07,  avg # of iterations =  4.8

     total cpu time spent up to now is       16.3 secs

     total energy              =    -293.75666454 Ry
     estimated scf accuracy    <       0.00011297 Ry

     iteration # 17     ecut=    40.00 Ry     beta= 0.05
     Davidson diagonalization with overlap
     ethr =  1.11E-07,  avg # of iterations =  5.0

     total cpu time spent up to now is       17.5 secs

     total energy              =    -293.75661912 Ry
     estimated scf accuracy    <       0.00035271 Ry

     iteration # 18     ecut=    40.00 Ry     beta= 0.05
     Davidson diagonalization with overlap
     ethr =  1.11E-07,  avg # of iterations =  2.4

     total cpu time spent up to now is       18.2 secs

     total energy              =    -293.75670578 Ry
     estimated scf accuracy    <       0.00013757 Ry

     iteration # 19     ecut=    40.00 Ry     beta= 0.05
     Davidson diagonalization with overlap
     ethr =  1.11E-07,  avg # of iterations =  2.2

     total cpu time spent up to now is       18.9 secs

     total energy              =    -293.75662752 Ry
     estimated scf accuracy    <       0.00026750 Ry

     iteration # 20     ecut=    40.00 Ry     beta= 0.05
     Davidson diagonalization with overlap
     ethr =  1.11E-07,  avg # of iterations =  1.4

     total cpu time spent up to now is       19.4 secs

     total energy              =    -293.75669644 Ry
     estimated scf accuracy    <       0.00013672 Ry

     iteration # 21     ecut=    40.00 Ry     beta= 0.05
     Davidson diagonalization with overlap
     ethr =  1.11E-07,  avg # of iterations =  1.0

     total cpu time spent up to now is       19.9 secs

     total energy              =    -293.75661922 Ry
     estimated scf accuracy    <       0.00024066 Ry

     iteration # 22     ecut=    40.00 Ry     beta= 0.05
     Davidson diagonalization with overlap
     ethr =  1.11E-07,  avg # of iterations =  1.0

     total cpu time spent up to now is       20.5 secs

     total energy              =    -293.75660352 Ry
     estimated scf accuracy    <       0.00011271 Ry

     iteration # 23     ecut=    40.00 Ry     beta= 0.05
     Davidson diagonalization with overlap
     ethr =  1.10E-07,  avg # of iterations =  1.0

     total cpu time spent up to now is       21.0 secs

     total energy              =    -293.75658753 Ry
     estimated scf accuracy    <       0.00006452 Ry

     iteration # 24     ecut=    40.00 Ry     beta= 0.05
     Davidson diagonalization with overlap
     ethr =  6.33E-08,  avg # of iterations =  3.0

     total cpu time spent up to now is       21.6 secs

     total energy              =    -293.75661182 Ry
     estimated scf accuracy    <       0.00002875 Ry

     iteration # 25     ecut=    40.00 Ry     beta= 0.05
     Davidson diagonalization with overlap
     ethr =  2.82E-08,  avg # of iterations =  2.6

     total cpu time spent up to now is       22.3 secs

     total energy              =    -293.75657804 Ry
     estimated scf accuracy    <       0.00006082 Ry

     iteration # 26     ecut=    40.00 Ry     beta= 0.05
     Davidson diagonalization with overlap
     ethr =  2.82E-08,  avg # of iterations =  5.0

     total cpu time spent up to now is       23.3 secs

     total energy              =    -293.75658842 Ry
     estimated scf accuracy    <       0.00002053 Ry

     iteration # 27     ecut=    40.00 Ry     beta= 0.05
     Davidson diagonalization with overlap
     ethr =  2.01E-08,  avg # of iterations =  2.0

     total cpu time spent up to now is       23.8 secs

     total energy              =    -293.75658886 Ry
     estimated scf accuracy    <       0.00000688 Ry

     iteration # 28     ecut=    40.00 Ry     beta= 0.05
     Davidson diagonalization with overlap
     ethr =  6.75E-09,  avg # of iterations =  3.9

     total cpu time spent up to now is       24.5 secs

     total energy              =    -293.75658999 Ry
     estimated scf accuracy    <       0.00000621 Ry

     iteration # 29     ecut=    40.00 Ry     beta= 0.05
     Davidson diagonalization with overlap
     ethr =  6.09E-09,  avg # of iterations =  1.0

     total cpu time spent up to now is       25.0 secs

     total energy              =    -293.75659222 Ry
     estimated scf accuracy    <       0.00000451 Ry

     iteration # 30     ecut=    40.00 Ry     beta= 0.05
     Davidson diagonalization with overlap
     ethr =  4.42E-09,  avg # of iterations =  4.0

     total cpu time spent up to now is       26.0 secs

     total energy              =    -293.75658812 Ry
     estimated scf accuracy    <       0.00001227 Ry

     iteration # 31     ecut=    40.00 Ry     beta= 0.05
     Davidson diagonalization with overlap
     ethr =  4.42E-09,  avg # of iterations =  4.0

     total cpu time spent up to now is       26.8 secs

     total energy              =    -293.75658929 Ry
     estimated scf accuracy    <       0.00000216 Ry

     iteration # 32     ecut=    40.00 Ry     beta= 0.05
     Davidson diagonalization with overlap
     ethr =  2.12E-09,  avg # of iterations =  1.9

     total cpu time spent up to now is       27.4 secs

     total energy              =    -293.75658933 Ry
     estimated scf accuracy    <       0.00000185 Ry

     iteration # 33     ecut=    40.00 Ry     beta= 0.05
     Davidson diagonalization with overlap
     ethr =  1.82E-09,  avg # of iterations =  1.0

     total cpu time spent up to now is       27.9 secs

     total energy              =    -293.75658979 Ry
     estimated scf accuracy    <       0.00000175 Ry

     iteration # 34     ecut=    40.00 Ry     beta= 0.05
     Davidson diagonalization with overlap
     ethr =  1.72E-09,  avg # of iterations =  2.2

     total cpu time spent up to now is       28.6 secs

     total energy              =    -293.75658861 Ry
     estimated scf accuracy    <       0.00000219 Ry

     iteration # 35     ecut=    40.00 Ry     beta= 0.05
     Davidson diagonalization with overlap
     ethr =  1.72E-09,  avg # of iterations =  3.6

     total cpu time spent up to now is       29.5 secs

     total energy              =    -293.75658913 Ry
     estimated scf accuracy    <       0.00000171 Ry

     iteration # 36     ecut=    40.00 Ry     beta= 0.05
     Davidson diagonalization with overlap
     ethr =  1.67E-09,  avg # of iterations =  1.4

     total cpu time spent up to now is       30.1 secs

     total energy              =    -293.75658887 Ry
     estimated scf accuracy    <       0.00000111 Ry

     iteration # 37     ecut=    40.00 Ry     beta= 0.05
     Davidson diagonalization with overlap
     ethr =  1.09E-09,  avg # of iterations =  2.0

     total cpu time spent up to now is       30.6 secs

     total energy              =    -293.75658881 Ry
     estimated scf accuracy    <       0.00000173 Ry

     iteration # 38     ecut=    40.00 Ry     beta= 0.05
     Davidson diagonalization with overlap
     ethr =  1.09E-09,  avg # of iterations =  1.6

     total cpu time spent up to now is       31.3 secs

     End of self-consistent calculation

          k = 0.0745 0.1258 0.0946 (  6849 PWs)   bands (ev):

   -13.5463 -13.4207 -13.1987  -9.1944  -9.1693  -9.0966  -9.0680  -8.9217
    -8.8999  -8.1113  -8.0102  -7.9116  -7.2986  -7.1922  -7.1105  -6.4335
    -6.2708  -6.2544  -6.1912  -6.1438  -6.0515  -6.0391  -2.5229  -1.7232
    -1.0534  -0.9867  -0.9106  -0.7773  -0.5662  -0.5579  -0.5024  -0.4956
    -0.4342  -0.4271   0.5367   2.4033   2.4419   2.4743   2.5389   2.5837
     2.6712   2.7396   2.7774   2.9044   3.0210   3.1880   3.5514   3.6762
     3.7361   4.1152   4.6868   7.1168   7.6348   7.7233   7.8126   8.1452
     8.2670   8.2757   8.8334   8.9152   9.8250

          k = 0.0700 0.1244-0.0899 (  6836 PWs)   bands (ev):

   -13.5468 -13.4198 -13.1991  -9.1911  -9.1686  -9.1018  -9.0692  -8.9195
    -8.8993  -8.1115  -8.0098  -7.9118  -7.2984  -7.1923  -7.1107  -6.4357
    -6.2694  -6.2408  -6.1934  -6.1607  -6.0474  -6.0366  -2.5264  -1.7220
    -1.0534  -0.9869  -0.9103  -0.7708  -0.5661  -0.5579  -0.5025  -0.4956
    -0.4342  -0.4271   0.5316   2.3917   2.4431   2.4746   2.5389   2.5834
     2.6715   2.7397   2.7780   2.9293   3.0372   3.1754   3.5605   3.6423
     3.7504   4.0971   4.6904   7.1302   7.6235   7.7238   7.7375   8.1336
     8.2624   8.3933   8.8677   8.8791   9.8366

          k = 0.0745 0.2925 0.0957 (  6837 PWs)   bands (ev):

   -13.1293 -13.0073 -12.7893 -10.6728 -10.5673 -10.3758  -9.7248  -9.6219
    -9.4444  -8.3630  -8.2755  -8.1116  -6.4139  -6.3077  -6.2510  -6.1484
    -5.0939  -5.0200  -4.8908  -4.1938  -4.1248  -3.9978  -2.3113  -2.2455
    -2.1505  -2.0338  -1.3623  -1.2991  -1.2698  -1.2148  -0.3811  -0.1554
    -0.0929  -0.0262   0.3642   0.9528   1.0870   1.1614   1.2232   1.6440
     1.9003   1.9605   1.9737   2.0210   2.4419   2.6458   3.2507   3.4052
     3.8450   4.1921   4.7404   7.2903   7.7650   8.2072   8.6149   9.0559
     9.3380   9.6879   9.8579  10.3231  10.8299

          k = 0.0700 0.2911-0.0887 (  6850 PWs)   bands (ev):

   -13.1300 -13.0061 -12.7898 -10.6724 -10.5680 -10.3755  -9.7218  -9.6271
    -9.4422  -8.3659  -8.2705  -8.1137  -6.4063  -6.3326  -6.2256  -6.1566
    -5.0924  -5.0221  -4.8901  -4.1943  -4.1240  -3.9980  -2.3111  -2.2460
    -2.1501  -2.0297  -1.3628  -1.2985  -1.2936  -1.2141  -0.3453  -0.1554
    -0.0930  -0.0261   0.3422   0.9620   1.0864   1.1614   1.2232   1.6487
     1.9004   1.9657   1.9924   2.0253   2.4305   2.6115   3.2935   3.3718
     3.7202   4.4565   4.5953   7.2832   7.7584   8.2306   8.6013   9.0295
     9.4493   9.6335   9.8456  10.3206  10.8674

          k = 0.0745 0.4593 0.0968 (  6841 PWs)   bands (ev):

   -12.3839 -12.2682 -12.0574 -11.8897 -11.7759 -11.5721  -9.9621  -9.8578
    -9.6775  -8.5749  -8.4875  -8.3163  -6.2568  -5.1768  -5.0939  -5.0026
    -3.9535  -3.8746  -3.7906  -3.6111  -3.5313  -3.4524  -2.4290  -2.3505
    -2.2803  -1.9908  -1.9242  -1.8219  -1.1887  -0.8992  -0.8333  -0.7446
    -0.6861  -0.4528  -0.0665   0.4250   0.5410   0.6047   0.6676   0.8580
     0.9724   1.0353   1.0956   1.3239   1.7532   2.4550   3.1709   3.2996
     3.8245   4.2738   4.7379   7.5812   7.9930   8.4277   9.0705   9.2844
     9.6587  10.0634  11.8531  12.2921  12.6583

          k = 0.0700 0.4579-0.0876 (  6853 PWs)   bands (ev):

   -12.3848 -12.2667 -12.0581 -11.8895 -11.7762 -11.5720  -9.9591  -9.8630
    -9.6754  -8.5780  -8.4821  -8.3186  -6.2568  -5.1763  -5.0950  -5.0021
    -3.9535  -3.8746  -3.7907  -3.6113  -3.5310  -3.4525  -2.4289  -2.3507
    -2.2802  -1.9911  -1.9240  -1.8219  -1.1671  -0.9019  -0.8323  -0.7554
    -0.7278  -0.4709  -0.0014   0.4569   0.5411   0.6048   0.6677   0.8014
     0.9723   1.0353   1.0955   1.3216   1.8055   2.4072   3.1774   3.2920
     3.7538   4.4453   4.6449   7.5803   8.0049   8.4105   9.0893   9.2638
     9.6744  10.0602  12.0445  12.2797  12.4994

          k = 0.0745-0.3745 0.0912 (  6852 PWs)   bands (ev):

   -12.7973 -12.6769 -12.4632 -11.3188 -11.2106 -11.0109  -9.8818  -9.7782
    -9.5986  -8.5032  -8.4160  -8.2470  -6.2777  -5.7267  -5.6577  -5.5287
    -4.4652  -4.3945  -4.2775  -3.0974  -3.0300  -3.0146  -2.9500  -2.9139
    -2.8501  -1.9395  -1.8713  -1.7832  -1.6442  -1.0057  -0.1551   0.1295
     0.1431   0.1615   0.2105   0.2229   0.2836   0.2908   0.5214   1.0444
     1.4346   1.5010   1.5568   1.7453   1.8608   2.5262   3.2364   3.3304
     3.8211   4.3819   4.6259   7.4529   7.9215   8.3477   9.0025   9.0930
     9.5836   9.9076  11.0525  11.4501  11.7505

          k = 0.0700-0.3759-0.0932 (  6834 PWs)   bands (ev):

   -12.7972 -12.6770 -12.4631 -11.3198 -11.2090 -11.0116  -9.8789  -9.7831
    -9.5966  -8.5064  -8.4106  -8.2493  -6.2774  -5.7318  -5.6504  -5.5310
    -4.4653  -4.3942  -4.2776  -3.0971  -3.0300  -3.0151  -2.9497  -2.9139
    -2.8501  -1.9396  -1.8709  -1.7837  -1.6607  -0.9597  -0.1822   0.1317
     0.1448   0.1612   0.2109   0.2229   0.2841   0.2911   0.4682   1.0769
     1.4348   1.5010   1.5568   1.7560   1.9126   2.4854   3.2131   3.3305
     3.8134   4.3838   4.6516   7.4744   7.8964   8.3456   8.9396   9.2249
     9.4697   9.9443  11.0399  11.4697  11.5899

          k = 0.0745-0.2077 0.0923 (  6839 PWs)   bands (ev):

   -13.3793 -13.2546 -13.0348  -9.9557  -9.8569  -9.6712  -9.4877  -9.3866
    -9.2115  -8.1874  -8.0973  -7.9553  -6.9687  -6.8682  -6.7523  -6.2916
    -5.7028  -5.6268  -5.4925  -5.2590  -5.1848  -5.0496  -2.3244  -1.6225
    -1.5709  -1.5572  -1.4715  -0.8857  -0.8186  -0.7430  -0.6051  -0.3995
    -0.3375  -0.2695   0.4680   1.6708   1.8824   1.9576   2.0044   2.1685
     2.3061   2.3296   2.4012   2.4460   2.7555   3.0936   3.3036   3.5459
     3.7812   4.2712   4.5982   7.1272   7.6926   8.0974   8.1816   8.6428
     8.7120   9.1828   9.2873   9.6503   9.9098

          k = 0.0700-0.2091-0.0921 (  6851 PWs)   bands (ev):

   -13.3795 -13.2544 -13.0349  -9.9568  -9.8550  -9.6721  -9.4850  -9.3911
    -9.2096  -8.1896  -8.0933  -7.9571  -6.9617  -6.8823  -6.7447  -6.2922
    -5.7005  -5.6299  -5.4916  -5.2578  -5.1864  -5.0492  -2.3357  -1.6215
    -1.5599  -1.5397  -1.4720  -0.8856  -0.8184  -0.7434  -0.6304  -0.3995
    -0.3375  -0.2695   0.4739   1.6755   1.8830   1.9577   2.0043   2.1324
     2.3261   2.3365   2.4012   2.4465   2.7962   3.0911   3.2974   3.5107
     3.7574   4.2710   4.6352   7.1583   7.6375   8.1149   8.2002   8.6464
     8.7266   9.1090   9.2808   9.7146   9.8649

          k = 0.0745-0.0410 0.0934 (  6856 PWs)   bands (ev):

   -13.6299 -13.5035 -13.2808  -8.8081  -8.7105  -8.5474  -8.4116  -8.3961
    -8.3127  -8.3037  -8.1684  -8.1627  -7.1840  -7.1601  -7.1006  -7.0772
    -6.9549  -6.9474  -6.7768  -6.7050  -6.5503  -6.2834  -2.6207  -1.8232
    -0.8610  -0.6499  -0.6412  -0.5862  -0.5791  -0.5176  -0.5104  -0.4852
    -0.4164  -0.3501   0.5546   2.7126   2.7832   2.8400   2.8473   2.8845
     2.9246   2.9341   2.9697   3.0134   3.1448   3.4289   3.5093   3.8826
     3.9568   4.0072   4.6451   7.1583   7.1823   7.4087   7.6592   7.8019
     8.0441   8.2530   8.2815   8.5913   9.9701

          k = 0.0700-0.0424-0.0910 (  6856 PWs)   bands (ev):

   -13.6303 -13.5029 -13.2811  -8.8057  -8.7146  -8.5456  -8.4110  -8.3969
    -8.3143  -8.3018  -8.1673  -8.1642  -7.1926  -7.1604  -7.0834  -7.0768
    -6.9641  -6.9475  -6.7817  -6.6945  -6.5565  -6.2818  -2.6285  -1.8071
    -0.8707  -0.6499  -0.6412  -0.5862  -0.5791  -0.5175  -0.5103  -0.4852
    -0.4164  -0.3501   0.5548   2.6661   2.7810   2.8399   2.8474   2.8880
     2.9251   2.9515   2.9751   3.0202   3.2713   3.4012   3.4977   3.7605
     3.9609   4.0113   4.6846   7.1457   7.2079   7.4537   7.6498   7.7708
     7.9767   8.2434   8.3199   8.6219   9.9603

          k = 0.2190 0.2092 0.0982 (  6843 PWs)   bands (ev):

   -13.1291 -13.0080 -12.7892 -10.6758 -10.5670 -10.3785  -9.7209  -9.6220
    -9.4407  -8.3633  -8.2696  -8.1112  -6.4086  -6.3392  -6.2128  -6.1563
    -5.0919  -5.0202  -4.8884  -4.1962  -4.1270  -4.0009  -2.3107  -2.2449
    -2.1500  -2.0313  -1.3643  -1.3030  -1.2976  -1.2198  -0.4116  -0.1514
    -0.0868  -0.0204   0.3171   0.9196   1.0845   1.1577   1.2197   1.7061
     1.9045   1.9703   1.9831   2.0249   2.4651   2.5811   3.2893   3.3427
     3.7240   4.4548   4.8261   7.2577   7.8203   8.1698   8.6114   9.0502
     9.4336   9.6741   9.8948  10.3211  10.8650

          k = 0.2145 0.2078-0.0863 (  6835 PWs)   bands (ev):

   -13.1304 -13.0057 -12.7902 -10.6728 -10.5720 -10.3764  -9.7209  -9.6220
    -9.4407  -8.3618  -8.2722  -8.1101  -6.4192  -6.3037  -6.2517  -6.1419
    -5.0926  -5.0191  -4.8887  -4.1961  -4.1272  -4.0009  -2.3104  -2.2455
    -2.1496  -2.0377  -1.3642  -1.3040  -1.3019  -1.2198  -0.3809  -0.1514
    -0.0868  -0.0204   0.2827   0.9854   1.0850   1.1577   1.2197   1.6409
     1.9041   1.9600   1.9730   2.0237   2.4596   2.6241   3.2274   3.3824
     3.8443   4.2573   4.9165   7.3074   7.7155   8.2351   8.6104   9.0430
     9.4797   9.6610   9.8516  10.3721  10.8672

          k = 0.2190 0.3759 0.0993 (  6837 PWs)   bands (ev):

   -12.5489 -12.4325 -12.2194 -11.0896 -11.0667 -10.9836 -10.9520 -10.7843
   -10.7626  -7.2734  -7.1786  -7.0853  -6.5347  -6.4131  -6.3547  -6.2139
    -3.9212  -3.8511  -3.7480  -3.0329  -3.0131  -2.9599  -2.9481  -2.8561
    -2.8422  -1.3666  -0.7684  -0.7613  -0.7332  -0.6985  -0.6941  -0.6248
    -0.6196  -0.2168  -0.1764  -0.1336  -0.0779   0.3915   0.4323   0.6261
     0.7803   0.8509   0.8966   1.1423   1.5505   2.0290   2.2019   4.1924
     4.5056   5.0129   5.3846   6.5487   7.0178   7.2936   9.4808  10.8472
    10.8550  11.2194  11.2300  11.5602  11.6605

          k = 0.2145 0.3745-0.0852 (  6833 PWs)   bands (ev):

   -12.5503 -12.4300 -12.2205 -11.0877 -11.0662 -10.9867 -10.9531 -10.7830
   -10.7621  -7.2740  -7.1772  -7.0862  -6.5334  -6.4128  -6.3575  -6.2125
    -3.9211  -3.8514  -3.7478  -3.0329  -3.0137  -2.9599  -2.9471  -2.8561
    -2.8425  -1.3551  -0.7974  -0.7652  -0.7557  -0.6989  -0.6943  -0.6246
    -0.6196  -0.2163  -0.1427  -0.1296  -0.0789   0.3997   0.4485   0.6793
     0.7809   0.8509   0.8971   1.1345   1.4408   2.0197   2.2560   4.1709
     4.5616   4.9535   5.4065   6.5349   7.0471   7.2800   9.4973  10.8416
    10.8558  11.2208  11.2433  11.6076  11.6583

          k = 0.2190 0.5426 0.1004 (  6833 PWs)   bands (ev):

   -12.1369 -12.0226 -11.8148 -11.6449 -11.5352 -11.3319 -11.1595 -11.0475
   -10.8543  -7.1351  -7.0522  -6.9216  -6.2800  -6.1414  -6.0891  -5.9970
    -4.5390  -4.4586  -4.3833  -2.5574  -2.4830  -2.4095  -2.0017  -1.9291
    -1.8411  -1.1399  -1.0608  -1.0528  -1.0037  -0.9852  -0.9716  -0.9059
    -0.5787  -0.3354  -0.2705  -0.2408  -0.2032   0.1734   0.1852   0.2568
     0.3091   0.3815   0.5759   0.9757   1.3123   1.6124   2.0636   4.3866
     4.7622   5.2411   5.7058   6.2416   6.7191   7.0928   9.5841  11.1162
    11.4794  11.8322  11.9744  12.1001  12.3513

          k = 0.2145 0.5413-0.0840 (  6819 PWs)   bands (ev):

   -12.1374 -12.0217 -11.8152 -11.6463 -11.5327 -11.3329 -11.1569 -11.0520
   -10.8524  -7.1379  -7.0470  -6.9241  -6.2758  -6.1614  -6.0640  -6.0061
    -4.5403  -4.4559  -4.3846  -2.5576  -2.4826  -2.4097  -2.0017  -1.9290
    -1.8411  -1.1399  -1.0592  -1.0556  -1.0078  -0.9890  -0.9705  -0.9099
    -0.5660  -0.3360  -0.2707  -0.2385  -0.2034   0.1414   0.1816   0.2575
     0.3085   0.4142   0.6179   1.0010   1.2658   1.5190   2.1423   4.3861
     4.7723   5.1885   5.7387   6.2777   6.6788   7.1017   9.5825  11.1261
    11.4628  11.8317  11.9526  12.1346  12.3333

          k = 0.2190-0.2911 0.0948 (  6850 PWs)   bands (ev):

   -12.8797 -12.7597 -12.5442 -10.9158 -10.8058 -10.6147 -10.4339 -10.3329
   -10.1415  -7.7622  -7.6688  -7.5375  -6.5724  -6.4941  -6.3589  -6.1912
    -4.0617  -3.9909  -3.8707  -3.6009  -3.5346  -3.4173  -3.1207  -3.0566
    -2.9536  -1.7560  -1.1367  -1.1073  -1.0459  -0.9658  -0.3930  -0.3241
    -0.2682  -0.2473   0.3492   0.4968   0.5667   0.6194   0.6905   1.1543
     1.3834   1.4617   1.5081   1.5606   1.8923   2.2606   2.6863   3.9051
     4.3223   4.5977   4.9264   6.9335   7.3684   7.7444   9.6273   9.8691
    10.1529  10.4058  10.6464  10.9098  11.3264

          k = 0.2145-0.2925-0.0896 (  6841 PWs)   bands (ev):

   -12.8804 -12.7584 -12.5448 -10.9134 -10.8100 -10.6129 -10.4356 -10.3301
   -10.1427  -7.7604  -7.6720  -7.5361  -6.5819  -6.4704  -6.3768  -6.1873
    -4.0613  -3.9913  -3.8706  -3.6011  -3.5342  -3.4175  -3.1208  -3.0564
    -2.9537  -1.7726  -1.1134  -1.1026  -1.0460  -0.9658  -0.3927  -0.3240
    -0.2784  -0.2485   0.3193   0.4973   0.5674   0.6211   0.7872   1.1685
     1.3802   1.4203   1.4619   1.5113   1.8571   2.3361   2.7122   3.8962
     4.3169   4.6528   4.8752   6.9036   7.4102   7.7385   9.6568   9.7864
    10.1932  10.4439  10.6259  10.8389  11.3568

          k = 0.2190-0.1243 0.0959 (  6838 PWs)   bands (ev):

   -13.2955 -13.1726 -12.9526 -10.3526 -10.2466 -10.0610  -8.9585  -8.9506
    -8.8623  -8.8561  -8.6907  -8.6867  -6.3385  -6.0828  -6.0693  -6.0060
    -5.9658  -5.8656  -5.8573  -4.7501  -4.6798  -4.5492  -2.2300  -1.5415
    -1.5370  -1.5099  -1.4772  -1.4707  -1.3924  -1.3856  -0.5757  -0.1572
    -0.0876  -0.0225   0.3290   1.2698   1.5770   1.6411   1.6984   2.0122
     2.2119   2.2901   2.3409   2.6661   2.7415   2.7851   3.1954   3.3507
     3.8927   3.9852   4.8111   7.6787   7.7103   8.1805   8.2290   8.7202
     8.7405   9.2256   9.7600  10.1760  10.5258

          k = 0.2145-0.1257-0.0885 (  6850 PWs)   bands (ev):

   -13.2965 -13.1709 -12.9533 -10.3504 -10.2505 -10.0595  -8.9576  -8.9508
    -8.8639  -8.8560  -8.6894  -8.6874  -6.3401  -6.0827  -6.0476  -6.0065
    -5.9930  -5.8654  -5.8497  -4.7498  -4.6802  -4.5491  -2.2471  -1.5409
    -1.5340  -1.4868  -1.4772  -1.4679  -1.3923  -1.3861  -0.5845  -0.1572
    -0.0876  -0.0225   0.3154   1.3195   1.5767   1.6410   1.6982   1.9583
     2.2118   2.2901   2.3410   2.6464   2.7297   2.8118   3.2164   3.3454
     3.8965   3.9848   4.8113   7.6799   7.7151   8.1477   8.2354   8.7371
     8.7547   9.2646   9.6630  10.2363  10.4730

          k = 0.2190 0.0424 0.0970 (  6832 PWs)   bands (ev):

   -13.3790 -13.2556 -13.0345  -9.9596  -9.8554  -9.6748  -9.4859  -9.3859
    -9.2101  -8.1860  -8.0900  -7.9516  -6.9644  -6.8730  -6.7488  -6.2862
    -5.7040  -5.6267  -5.4936  -5.2614  -5.1866  -5.0529  -2.3247  -1.6241
    -1.5786  -1.5631  -1.4775  -0.8850  -0.8178  -0.7428  -0.6378  -0.3947
    -0.3306  -0.2631   0.3827   1.6802   1.8815   1.9533   2.0010   2.1564
     2.3243   2.3595   2.4060   2.4507   2.7455   3.1208   3.2934   3.5362
     3.7523   4.2200   4.8683   7.1553   7.6395   8.1082   8.1714   8.6648
     8.7633   9.1660   9.2350   9.6771  10.0136

          k = 0.2145 0.0410-0.0874 (  6848 PWs)   bands (ev):

   -13.3801 -13.2536 -13.0354  -9.9566  -9.8607  -9.6727  -9.4841  -9.3891
    -9.2088  -8.1849  -8.0922  -7.9505  -6.9622  -6.8768  -6.7474  -6.2860
    -5.7006  -5.6314  -5.4922  -5.2594  -5.1895  -5.0521  -2.3390  -1.6239
    -1.5646  -1.5578  -1.4774  -0.8850  -0.8180  -0.7425  -0.6351  -0.3948
    -0.3306  -0.2631   0.3695   1.6904   1.8823   1.9533   2.0012   2.1567
     2.3272   2.3680   2.4058   2.4497   2.7709   3.1123   3.2711   3.4649
     3.7694   4.2583   4.8684   7.1507   7.6521   8.1165   8.2137   8.6240
     8.6810   9.1254   9.3131   9.7976   9.9437

          k = 0.3635 0.2925 0.1017 (  6841 PWs)   bands (ev):

   -12.3836 -12.2692 -12.0572 -11.8923 -11.7754 -11.5742  -9.9581  -9.8588
    -9.6739  -8.5743  -8.4811  -8.3149  -6.2353  -5.1799  -5.0968  -5.0055
    -3.9547  -3.8748  -3.7914  -3.6090  -3.5298  -3.4528  -2.4280  -2.3518
    -2.2829  -1.9929  -1.9279  -1.8251  -1.2346  -0.9022  -0.8364  -0.7753
    -0.7458  -0.4637  -0.1134   0.5134   0.5445   0.6104   0.6727   0.8288
     0.9760   1.0413   1.1011   1.2725   1.7755   2.4013   3.1623   3.2828
     3.7386   4.5189   5.0252   7.5708   7.9975   8.3872   9.1531   9.3634
     9.6964  10.0583  11.9574  12.2281  12.5150

          k = 0.3590 0.2912-0.0827 (  6848 PWs)   bands (ev):

   -12.3856 -12.2657 -12.0586 -11.8899 -11.7798 -11.5724  -9.9588  -9.8575
    -9.6745  -8.5733  -8.4828  -8.3142  -6.2353  -5.1796  -5.0975  -5.0052
    -3.9549  -3.8745  -3.7916  -3.6087  -3.5305  -3.4525  -2.4280  -2.3520
    -2.2828  -1.9933  -1.9273  -1.8252  -1.2128  -0.9049  -0.8681  -0.8350
    -0.7464  -0.4116  -0.0062   0.4493   0.5442   0.6103   0.6728   0.7534
     0.9758   1.0413   1.1010   1.3274   1.7674   2.4090   3.1511   3.2842
     3.8070   4.4033   5.0793   7.5812   7.9685   8.4114   9.1683   9.3455
     9.6996  10.0614  12.0125  12.3013  12.5467

          k = 0.3635 0.4593 0.1029 (  6826 PWs)   bands (ev):

   -12.1388 -12.0204 -11.8163 -11.6457 -11.5372 -11.3325 -11.1560 -11.0489
   -10.8515  -7.1328  -7.0459  -6.9163  -6.2581  -6.1740  -6.0742  -6.0006
    -4.5392  -4.4570  -4.3869  -2.5602  -2.4844  -2.4118  -2.0039  -1.9326
    -1.8445  -1.1371  -1.0583  -1.0526  -1.0412  -0.9982  -0.9696  -0.9092
    -0.6669  -0.3319  -0.2657  -0.2044  -0.1971   0.1786   0.2254   0.2624
     0.3113   0.3891   0.6413   0.9682   1.2025   1.5653   2.0970   4.4069
     4.7920   5.4196   5.7340   6.2445   6.6806   7.0645   9.7364  11.1308
    11.4673  11.7996  11.9346  11.9943  12.3364

          k = 0.3590 0.4579-0.0816 (  6817 PWs)   bands (ev):

   -12.1365 -12.0245 -11.8146 -11.6479 -11.5334 -11.3341 -11.1570 -11.0472
   -10.8523  -7.1336  -7.0439  -6.9176  -6.2611  -6.1645  -6.0843  -5.9969
    -4.5381  -4.4592  -4.3858  -2.5601  -2.4846  -2.4117  -2.0038  -1.9328
    -1.8444  -1.1379  -1.0849  -1.0566  -1.0439  -0.9978  -0.9731  -0.9105
    -0.5462  -0.3313  -0.2656  -0.2162  -0.1979   0.1172   0.1815   0.2587
     0.3110   0.3433   0.6323   1.0023   1.2989   1.5684   2.0632   4.3645
     4.9083   5.2744   5.8078   6.2400   6.6590   7.0798   9.7486  11.1293
    11.4598  11.8040  11.9061  12.0300  12.3173

          k = 0.3635 0.6260 0.1040 (  6834 PWs)   bands (ev):

   -12.0665 -12.0441 -11.9558 -11.9221 -11.7443 -11.7227 -10.5952 -10.4937
   -10.3001  -7.8530  -7.7610  -7.6087  -6.2035  -5.6121  -5.5181  -5.4362
    -4.2312  -4.1476  -4.0855  -3.1894  -3.1052  -3.0356  -1.8686  -1.7914
    -1.7341  -1.4556  -1.4426  -1.3875  -1.3822  -1.3010  -1.2913  -1.1498
    -0.7255  -0.4868   0.0485   0.3804   0.4023   0.4592   0.4668   0.5165
     0.5370   0.5565   0.9539   1.0021   1.3503   1.7689   2.5439   4.0137
     4.3692   4.8799   5.2947   6.8403   7.2785   7.7218  10.1785  10.3385
    10.5532  10.9844  11.7989  12.4740  12.6911

          k = 0.3590 0.6247-0.0804 (  6837 PWs)   bands (ev):

   -12.0658 -12.0439 -11.9569 -11.9225 -11.7438 -11.7225 -10.5973 -10.4901
   -10.3017  -7.8502  -7.7658  -7.6067  -6.2037  -5.6112  -5.5198  -5.4354
    -4.2313  -4.1474  -4.0856  -3.1895  -3.1050  -3.0358  -1.8687  -1.7912
    -1.7342  -1.4555  -1.4426  -1.3876  -1.3822  -1.3005  -1.2914  -1.1649
    -0.7221  -0.4430   0.0459   0.3812   0.4026   0.4595   0.4684   0.4891
     0.5193   0.5433   0.9641   1.0049   1.3255   1.7958   2.5675   3.9843
     4.4321   4.8246   5.3012   6.8464   7.2554   7.7396  10.1954  10.2830
    10.6143  10.9484  11.8355  12.4388  12.6705

          k = 0.3635-0.2077 0.0984 (  6839 PWs)   bands (ev):

   -12.6308 -12.5138 -12.2999 -11.6452 -11.5306 -11.3314  -9.2634  -9.2571
    -9.1671  -9.1611  -8.9896  -8.9864  -6.2116  -4.8314  -4.8272  -4.7544
    -4.7504  -4.6413  -4.6375  -2.8017  -2.7892  -2.7309  -2.7265  -2.6405
    -2.6363  -2.5485  -2.4853  -2.3765  -1.5271  -0.9986  -0.3623  -0.3371
    -0.2847  -0.2063  -0.1036   0.4527   0.4703   0.5400   0.6027   0.9741
     1.3154   1.3888   1.4474   1.5471   2.4654   2.5279   3.0119   3.1787
     3.8011   3.9112   4.9418   8.2911   8.3162   8.7076   8.7391   9.1513
     9.1947  10.8717  11.1105  11.7402  11.9663

          k = 0.3590-0.2091-0.0860 (  6847 PWs)   bands (ev):

   -12.6323 -12.5112 -12.3011 -11.6433 -11.5339 -11.3300  -9.2631  -9.2572
    -9.1677  -9.1611  -8.9892  -8.9866  -6.2114  -4.8308  -4.8267  -4.7551
    -4.7514  -4.6413  -4.6370  -2.8015  -2.7897  -2.7311  -2.7259  -2.6405
    -2.6365  -2.5488  -2.4849  -2.3766  -1.5258  -1.0369  -0.3554  -0.3193
    -0.2866  -0.2050  -0.0118   0.4377   0.4696   0.5400   0.6027   0.8450
     1.3154   1.3888   1.4474   1.6110   2.4635   2.5312   3.0141   3.1739
     3.8058   3.9126   4.9385   8.3042   8.3081   8.6862   8.7402   9.1727
     9.1932  10.8361  11.1237  11.7312  11.9835

          k = 0.3635-0.0409 0.0995 (  6827 PWs)   bands (ev):

   -12.8795 -12.7608 -12.5442 -10.9150 -10.8062 -10.6140 -10.4363 -10.3298
   -10.1437  -7.7589  -7.6709  -7.5321  -6.5643  -6.4889  -6.3600  -6.1883
    -4.0645  -3.9946  -3.8746  -3.6020  -3.5357  -3.4186  -3.1234  -3.0607
    -2.9581  -1.7707  -1.1473  -1.0988  -1.0399  -0.9597  -0.3936  -0.3378
    -0.3196  -0.2488   0.3613   0.4975   0.5664   0.6192   0.7055   1.1566
     1.3818   1.4623   1.4816   1.5131   1.9001   2.2908   2.7252   3.8366
     4.2472   4.7254   5.1199   6.9080   7.3728   7.7460   9.6626   9.9723
    10.2115  10.4447  10.6419  10.8452  11.3148

          k = 0.3590-0.0423-0.0849 (  6850 PWs)   bands (ev):

   -12.8812 -12.7578 -12.5455 -10.9133 -10.8091 -10.6127 -10.4339 -10.3339
   -10.1420  -7.7616  -7.6658  -7.5347  -6.5722  -6.4710  -6.3724  -6.1858
    -4.0643  -3.9949  -3.8745  -3.6021  -3.5355  -3.4187  -3.1235  -3.0606
    -2.9581  -1.7751  -1.1687  -1.0998  -1.0398  -0.9601  -0.3919  -0.3230
    -0.2724  -0.2452   0.3103   0.4972   0.5662   0.6200   0.7472   1.1536
     1.3800   1.4581   1.4668   1.5135   1.8771   2.2913   2.7262   3.8547
     4.2185   4.7526   5.1139   6.9310   7.3536   7.7465   9.6793   9.9373
    10.2275  10.4061  10.6542  10.8680  11.3129

          k = 0.3635 0.1258 0.1006 (  6840 PWs)   bands (ev):

   -12.7967 -12.6789 -12.4629 -11.3218 -11.2089 -11.0133  -9.8794  -9.7777
    -9.5964  -8.5015  -8.4101  -8.2444  -6.2556  -5.7304  -5.6549  -5.5287
    -4.4677  -4.3965  -4.2799  -3.0997  -3.0338  -3.0170  -2.9535  -2.9178
    -2.8535  -1.9379  -1.8693  -1.7824  -1.6688  -1.0295  -0.2833   0.1285
     0.1528   0.1647   0.2101   0.2292   0.2808   0.2942   0.4775   1.0747
     1.4365   1.5059   1.5611   1.7746   1.8603   2.4897   3.2102   3.3220
     3.7929   4.3942   5.0781   7.4642   7.8923   8.3417   8.9455   9.3361
     9.5276   9.9495  11.0404  11.4572  11.6508

          k = 0.3590 0.1244-0.0838 (  6857 PWs)   bands (ev):

   -12.7986 -12.6757 -12.4643 -11.3192 -11.2133 -11.0115  -9.8780  -9.7801
    -9.5954  -8.5018  -8.4097  -8.2446  -6.2554  -5.7314  -5.6536  -5.5292
    -4.4675  -4.3969  -4.2799  -3.1000  -3.0333  -3.0171  -2.9533  -2.9181
    -2.8535  -1.9375  -1.8699  -1.7820  -1.6671  -1.0724  -0.2082   0.1322
     0.1572   0.1658   0.2112   0.2292   0.2833   0.2943   0.4870   0.9952
     1.4365   1.5059   1.5609   1.7461   1.9135   2.4935   3.1953   3.3184
     3.7633   4.4599   5.0533   7.4640   7.8964   8.3406   8.9951   9.2122
     9.6180   9.9275  11.0484  11.4634  11.8103

     the Fermi energy is     6.0075 ev

!    total energy              =    -293.75658885 Ry
     estimated scf accuracy    <       0.00000079 Ry
     smearing contrib. (-TS)   =      -0.00005239 Ry
     internal energy E=F+TS    =    -293.75653646 Ry

     The total energy is F=E-TS. E is the sum of the following terms:
     one-electron contribution =    -164.04916166 Ry
     hartree contribution      =     129.82115361 Ry
     xc contribution           =    -103.91127838 Ry
     ewald contribution        =    -155.61725004 Ry

     convergence has been achieved in  38 iterations

     Forces acting on atoms (cartesian axes, Ry/au):

     atom    1 type  1   force =     0.00029708    0.00051463    0.00025111
     atom    2 type  1   force =    -0.00107051    0.00016315    0.00465708
     atom    3 type  1   force =    -0.00081943   -0.00135677   -0.00323827
     atom    4 type  1   force =    -0.00037850   -0.00047305    0.00002739
     atom    5 type  1   force =     0.00397969   -0.00078900   -0.00041485
     atom    6 type  1   force =    -0.00409517    0.00326706   -0.00127342
     atom    7 type  1   force =     0.00009921   -0.00006094   -0.00002405
     atom    8 type  1   force =    -0.00089777    0.00287157   -0.00377997
     atom    9 type  1   force =     0.00064301    0.00377549    0.00029193
     atom   10 type  1   force =    -0.00005042    0.00000598   -0.00041257
     atom   11 type  1   force =    -0.00355786    0.00313695   -0.00199820
     atom   12 type  1   force =     0.00184288   -0.00410241    0.00444624
     atom   13 type  1   force =    -0.00054182   -0.00005443    0.00001580
     atom   14 type  1   force =     0.00158323   -0.00365856    0.00081148
     atom   15 type  1   force =     0.00389930   -0.00499580    0.00420190
     atom   16 type  1   force =    -0.00033781   -0.00032867   -0.00024753
     atom   17 type  1   force =     0.00079252    0.00193258    0.00204881
     atom   18 type  1   force =     0.00153755   -0.00130222   -0.00211151
     atom   19 type  1   force =    -0.00004202    0.00007988    0.00005283
     atom   20 type  1   force =    -0.00005394    0.00086290    0.00106118
     atom   21 type  1   force =     0.00154158   -0.00190331   -0.00084724
     atom   22 type  1   force =    -0.00090603   -0.00031519    0.00017352
     atom   23 type  1   force =    -0.00089584    0.00006996    0.00077119
     atom   24 type  1   force =     0.00064600    0.00084193   -0.00425797
     atom   25 type  2   force =    -0.26476344    0.14663468   -0.13666351
     atom   26 type  2   force =    -0.08041207    0.13325470   -0.01922484
     atom   27 type  2   force =     0.00757588   -0.00558930    0.00086299
     atom   28 type  2   force =     0.01716499    0.00092657   -0.00062828
     atom   29 type  2   force =     0.24818480   -0.17015392    0.12984954
     atom   30 type  2   force =     0.06903491   -0.10325445    0.02559921
     The non-local contrib.  to forces
     atom    1 type  1   force =    -0.00023388    0.00054990    0.00082051
     atom    2 type  1   force =     0.00467216   -0.00623500    0.00706611
     atom    3 type  1   force =     0.00292639   -0.00726343   -0.00925654
     atom    4 type  1   force =     0.00117365   -0.00078912    0.00017725
     atom    5 type  1   force =    -0.00029812    0.00262233    0.00547515
     atom    6 type  1   force =     0.00396164    0.00042424    0.00314435
     atom    7 type  1   force =    -0.00081763   -0.00000437    0.00032157
     atom    8 type  1   force =    -0.00511248    0.00369773   -0.00927591
     atom    9 type  1   force =    -0.00308582    0.00174271   -0.00052657
     atom   10 type  1   force =     0.00059094    0.00012895   -0.00026893
     atom   11 type  1   force =    -0.00158421    0.00229325   -0.01246363
     atom   12 type  1   force =    -0.00648583   -0.00057098    0.00048815
     atom   13 type  1   force =    -0.00171529    0.00006373    0.00067336
     atom   14 type  1   force =    -0.00302932    0.00177298   -0.00685223
     atom   15 type  1   force =     0.00027761    0.00108408    0.01040491
     atom   16 type  1   force =     0.00042644    0.00009934   -0.00036379
     atom   17 type  1   force =     0.00275546   -0.00133226   -0.00293617
     atom   18 type  1   force =    -0.00410997    0.00378055   -0.01092734
     atom   19 type  1   force =    -0.00070969    0.00034613    0.00058430
     atom   20 type  1   force =     0.00677895   -0.00070728    0.00792104
     atom   21 type  1   force =     0.00377782   -0.00059058   -0.01180077
     atom   22 type  1   force =     0.00022285   -0.00064617    0.00013035
     atom   23 type  1   force =    -0.00417192    0.00121898    0.00652319
     atom   24 type  1   force =     0.00539585   -0.00277681   -0.00892078
     atom   25 type  2   force =     0.00797768    0.02449779    0.02675314
     atom   26 type  2   force =     0.03626180   -0.04201308   -0.00423270
     atom   27 type  2   force =     0.05873232   -0.01500586    0.00025420
     atom   28 type  2   force =    -0.05913709    0.01699360    0.00022641
     atom   29 type  2   force =    -0.05974174   -0.04088031   -0.02075937
     atom   30 type  2   force =     0.02128112    0.05370640   -0.00126709
     The ionic contribution  to forces
     atom    1 type  1   force =    -0.02118363   -0.00181769   -0.86223954
     atom    2 type  1   force =     0.21553235    0.16333439    5.15365924
     atom    3 type  1   force =    -0.07775074    0.13691231   -4.17042898
     atom    4 type  1   force =    -0.01258644   -0.00976986   -0.87160226
     atom    5 type  1   force =     0.17902019    0.05473910    5.50242380
     atom    6 type  1   force =    -0.05683774   -0.07027629   -4.37621942
     atom    7 type  1   force =    -0.02731282   -0.00205801   -0.86348639
     atom    8 type  1   force =     0.05523068    0.13629772    5.39346252
     atom    9 type  1   force =    -0.14060603    0.07486042   -4.52384325
     atom   10 type  1   force =    -0.02109684   -0.01035601   -0.86872621
     atom   11 type  1   force =     0.07911120    0.08998393    5.27212593
     atom   12 type  1   force =    -0.16228808   -0.20271909   -4.49514866
     atom   13 type  1   force =    -0.02909578   -0.00970211   -0.86752146
     atom   14 type  1   force =     0.14595561   -0.02633173    5.12001735
     atom   15 type  1   force =    -0.05695309   -0.16146720   -4.20639055
     atom   16 type  1   force =    -0.01549726   -0.00028122   -0.87056245
     atom   17 type  1   force =     0.09547779    0.03863336    5.13771633
     atom   18 type  1   force =     0.01919995    0.10499140   -4.22849109
     atom   19 type  1   force =    -0.02354016   -0.01121611   -0.86389052
     atom   20 type  1   force =     0.10807803   -0.11768099    5.27211998
     atom   21 type  1   force =    -0.14906786   -0.19027803   -4.38712233
     atom   22 type  1   force =    -0.02295216   -0.00773176   -0.87636636
     atom   23 type  1   force =     0.15464220   -0.01944403    5.06556107
     atom   24 type  1   force =    -0.21945503    0.04098029   -4.18186362
     atom   25 type  2   force =    -0.47066442    0.11912973   -0.31841166
     atom   26 type  2   force =    -0.77316019    0.99127331    0.19307526
     atom   27 type  2   force =    -0.56639379    0.17482054   -0.04624449
     atom   28 type  2   force =     0.83604680   -0.30192887   -0.04956104
     atom   29 type  2   force =     1.19412181    0.31229055    0.07636762
     atom   30 type  2   force =    -0.23597455   -1.29518803   -0.25840881
     The local contribution  to forces
     atom    1 type  1   force =     0.02169928    0.00180453    0.86195358
     atom    2 type  1   force =    -0.22118210   -0.15703904   -5.15614350
     atom    3 type  1   force =     0.07405615   -0.13107741    4.17672329
     atom    4 type  1   force =     0.01110161    0.01005771    0.87165683
     atom    5 type  1   force =    -0.17470351   -0.05804509   -5.50794855
     atom    6 type  1   force =     0.04892021    0.07310489    4.37208002
     atom    7 type  1   force =     0.02819084    0.00200679    0.86342223
     atom    8 type  1   force =    -0.05107657   -0.13699672   -5.38797106
     atom    9 type  1   force =     0.14421220   -0.07275199    4.52462712
     atom   10 type  1   force =     0.02051480    0.01023864    0.86879603
     atom   11 type  1   force =    -0.08115573   -0.08913821   -5.26178627
     atom   12 type  1   force =     0.17039436    0.19915350    4.49907449
     atom   13 type  1   force =     0.03019953    0.00958737    0.86715295
     atom   14 type  1   force =    -0.14138042    0.02093427   -5.11275778
     atom   15 type  1   force =     0.06058889    0.15541703    4.20069918
     atom   16 type  1   force =     0.01477579   -0.00013490    0.87087762
     atom   17 type  1   force =    -0.09748647   -0.03541460   -5.13298521
     atom   18 type  1   force =    -0.01358261   -0.10992832    4.23740577
     atom   19 type  1   force =     0.02417563    0.01096537    0.86363970
     atom   20 type  1   force =    -0.11471621    0.11913726   -5.27882512
     atom   21 type  1   force =     0.14691713    0.18882038    4.39793129
     atom   22 type  1   force =     0.02185892    0.00804568    0.87660762
     atom   23 type  1   force =    -0.15147203    0.01828868   -5.07134558
     atom   24 type  1   force =     0.21481929   -0.03732547    4.18674590
     atom   25 type  2   force =     0.19792088    0.00304106    0.15486330
     atom   26 type  2   force =     0.65651723   -0.81601731   -0.20820648
     atom   27 type  2   force =     0.51525400   -0.16540083    0.04671164
     atom   28 type  2   force =    -0.75976866    0.28586658    0.04856486
     atom   29 type  2   force =    -0.88622343   -0.44154251    0.07409233
     atom   30 type  2   force =     0.28372630    1.13825121    0.28513116
     The core correction contribution to forces
     atom    1 type  1   force =     0.00002230   -0.00002273   -0.00006205
     atom    2 type  1   force =    -0.00006659    0.00012925    0.00002713
     atom    3 type  1   force =     0.00000009    0.00010022   -0.00007231
     atom    4 type  1   force =    -0.00005957    0.00002706    0.00001606
     atom    5 type  1   force =    -0.00004224   -0.00011612   -0.00035999
     atom    6 type  1   force =    -0.00008444   -0.00002656   -0.00005692
     atom    7 type  1   force =     0.00004064    0.00000051   -0.00006069
     atom    8 type  1   force =     0.00003816   -0.00011046   -0.00005963
     atom    9 type  1   force =     0.00007904   -0.00002315    0.00022173
     atom   10 type  1   force =    -0.00005389   -0.00000589    0.00000545
     atom   11 type  1   force =     0.00006701    0.00001009    0.00003650
     atom   12 type  1   force =     0.00017979    0.00001753    0.00023354
     atom   13 type  1   force =     0.00007013    0.00000039   -0.00006522
     atom   14 type  1   force =     0.00003996   -0.00004015    0.00031640
     atom   15 type  1   force =    -0.00003378   -0.00003526   -0.00024276
     atom   16 type  1   force =    -0.00003831   -0.00000707    0.00002139
     atom   17 type  1   force =     0.00001788    0.00005041    0.00016009
     atom   18 type  1   force =     0.00001968   -0.00009022    0.00011181
     atom   19 type  1   force =     0.00004156   -0.00001447   -0.00006074
     atom   20 type  1   force =    -0.00020080    0.00007365   -0.00020287
     atom   21 type  1   force =    -0.00005542    0.00008099    0.00035759
     atom   22 type  1   force =    -0.00002635    0.00002071    0.00002305
     atom   23 type  1   force =     0.00013170    0.00000766   -0.00003394
     atom   24 type  1   force =    -0.00009066   -0.00003272    0.00002110
     atom   25 type  2   force =     0.00000000    0.00000000    0.00000000
     atom   26 type  2   force =     0.00000000    0.00000000    0.00000000
     atom   27 type  2   force =     0.00000000    0.00000000    0.00000000
     atom   28 type  2   force =     0.00000000    0.00000000    0.00000000
     atom   29 type  2   force =     0.00000000    0.00000000    0.00000000
     atom   30 type  2   force =     0.00000000    0.00000000    0.00000000
     The Hubbard contrib.    to forces
     atom    1 type  1   force =     0.00000000    0.00000000    0.00000000
     atom    2 type  1   force =     0.00000000    0.00000000    0.00000000
     atom    3 type  1   force =     0.00000000    0.00000000    0.00000000
     atom    4 type  1   force =     0.00000000    0.00000000    0.00000000
     atom    5 type  1   force =     0.00000000    0.00000000    0.00000000
     atom    6 type  1   force =     0.00000000    0.00000000    0.00000000
     atom    7 type  1   force =     0.00000000    0.00000000    0.00000000
     atom    8 type  1   force =     0.00000000    0.00000000    0.00000000
     atom    9 type  1   force =     0.00000000    0.00000000    0.00000000
     atom   10 type  1   force =     0.00000000    0.00000000    0.00000000
     atom   11 type  1   force =     0.00000000    0.00000000    0.00000000
     atom   12 type  1   force =     0.00000000    0.00000000    0.00000000
     atom   13 type  1   force =     0.00000000    0.00000000    0.00000000
     atom   14 type  1   force =     0.00000000    0.00000000    0.00000000
     atom   15 type  1   force =     0.00000000    0.00000000    0.00000000
     atom   16 type  1   force =     0.00000000    0.00000000    0.00000000
     atom   17 type  1   force =     0.00000000    0.00000000    0.00000000
     atom   18 type  1   force =     0.00000000    0.00000000    0.00000000
     atom   19 type  1   force =     0.00000000    0.00000000    0.00000000
     atom   20 type  1   force =     0.00000000    0.00000000    0.00000000
     atom   21 type  1   force =     0.00000000    0.00000000    0.00000000
     atom   22 type  1   force =     0.00000000    0.00000000    0.00000000
     atom   23 type  1   force =     0.00000000    0.00000000    0.00000000
     atom   24 type  1   force =     0.00000000    0.00000000    0.00000000
     atom   25 type  2   force =     0.00000000    0.00000000    0.00000000
     atom   26 type  2   force =     0.00000000    0.00000000    0.00000000
     atom   27 type  2   force =     0.00000000    0.00000000    0.00000000
     atom   28 type  2   force =     0.00000000    0.00000000    0.00000000
     atom   29 type  2   force =     0.00000000    0.00000000    0.00000000
     atom   30 type  2   force =     0.00000000    0.00000000    0.00000000
     The SCF correction term to forces
     atom    1 type  1   force =    -0.00000671    0.00000121   -0.00022024
     atom    2 type  1   force =    -0.00002606   -0.00002588    0.00004926
     atom    3 type  1   force =    -0.00005104   -0.00002788   -0.00020258
     atom    4 type  1   force =    -0.00000747    0.00000174   -0.00021934
     atom    5 type  1   force =     0.00000364    0.00001137   -0.00000411
     atom    6 type  1   force =    -0.00005458    0.00004137   -0.00022030
     atom    7 type  1   force =    -0.00000154   -0.00000528   -0.00021962
     atom    8 type  1   force =     0.00002271   -0.00001612    0.00006526
     atom    9 type  1   force =     0.00004389   -0.00005192   -0.00018595
     atom   10 type  1   force =    -0.00000516    0.00000087   -0.00021775
     atom   11 type  1   force =     0.00000414   -0.00001152    0.00009042
     atom   12 type  1   force =     0.00004291    0.00001723   -0.00020015
     atom   13 type  1   force =    -0.00000014   -0.00000321   -0.00022269
     atom   14 type  1   force =    -0.00000233    0.00000666    0.00008889
     atom   15 type  1   force =     0.00001995    0.00000614   -0.00026774
     atom   16 type  1   force =    -0.00000420   -0.00000423   -0.00021914
     atom   17 type  1   force =     0.00002813   -0.00000375    0.00009492
     atom   18 type  1   force =     0.00001077   -0.00005504   -0.00020952
     atom   19 type  1   force =    -0.00000908   -0.00000047   -0.00021876
     atom   20 type  1   force =     0.00000635    0.00004084    0.00004930
     atom   21 type  1   force =    -0.00002981    0.00006451   -0.00021188
     atom   22 type  1   force =    -0.00000902   -0.00000307   -0.00021999
     atom   23 type  1   force =    -0.00002551   -0.00000073    0.00006761
     atom   24 type  1   force =    -0.00002318   -0.00000278   -0.00023942
     atom   25 type  2   force =     0.00000269   -0.00003331    0.00013286
     atom   26 type  2   force =    -0.00003064    0.00001237    0.00014023
     atom   27 type  2   force =    -0.00001638   -0.00000257    0.00014279
     atom   28 type  2   force =     0.00002422   -0.00000416    0.00014265
     atom   29 type  2   force =     0.00002844   -0.00002106    0.00015011
     atom   30 type  2   force =     0.00000231   -0.00002345    0.00014511

     Total force =     0.508976     Total SCF correction =     0.000982


     Computing stress (Cartesian axis) and pressure

          total   stress  (Ry/bohr**3)                   (kbar)     P=       44.23
   0.00034458  -0.00025634   0.00011136           50.69      -37.71       16.38
  -0.00025634   0.00031399  -0.00012065          -37.71       46.19      -17.75
   0.00011136  -0.00012065   0.00024353           16.38      -17.75       35.82


     BFGS Geometry Optimization
     Energy error            =      0.0E+00 Ry
     Gradient error          =      2.6E-01 Ry/Bohr
     Cell gradient error     =      5.1E+01 kbar

     number of scf cycles    =   1
     number of bfgs steps    =   0

     enthalpy           new  =    -293.7565888519 Ry

     new trust radius        =       0.3320817998 bohr
     new conv_thr            =       0.0000010000 Ry

     new unit-cell volume =   1637.60338 a.u.^3 (   242.66778 Ang^3 )
     density =      2.01393 g/cm^3

CELL_PARAMETERS (alat=  8.00000437)
   1.163899283  -0.007120571  -0.025205373
  -0.588356125   1.011010280   0.002028994
  -0.049765285  -0.026077410   2.729180387

ATOMIC_POSITIONS (crystal)
C            -0.0080183770       -0.0045911714        0.1709723417
C             0.0204699511        0.0080066769        0.4405809014
C            -0.0119037945       -0.0055278272        0.8825827842
C             0.1585427546        0.3286939955        0.1708806933
C             0.3541658744        0.1743805457        0.4414826133
C             0.1546467305        0.3281842692        0.8822974679
C             0.4919699366       -0.0046346120        0.1709868810
C             0.5205561734        0.0080467008        0.4409172659
C             0.4883549988       -0.0051434691        0.8815421366
C             0.6586062081        0.3287328748        0.1709196022
C             0.8537026147        0.1749349591        0.4404784973
C             0.6549202325        0.3273327770        0.8814411995
C            -0.0080507250        0.4953810247        0.1709998622
C             0.0201658190        0.5073307173        0.4398347350
C            -0.0116576215        0.4938948922        0.8824518118
C             0.1585543635        0.8286970944        0.1708779259
C             0.3538142032        0.6747020639        0.4402354559
C             0.1548649764        0.8276917567        0.8820387968
C             0.4919560093        0.4953683398        0.1709837801
C             0.5204598742        0.5081848287        0.4410822511
C             0.4881711717        0.4944503903        0.8815161435
C             0.6585126760        0.8287075694        0.1708573236
C             0.8537504902        0.6745917296        0.4405775837
C             0.6549750650        0.8279602890        0.8821781980
H             0.7948646413        0.8361600094        0.6469738223
H             0.7874900727        0.9768994188        0.6558119347
H             0.1427310382        0.6221003244        0.6648710167
H             0.2723487968        0.5748540630        0.6661889027
H             0.9241491217        0.7366297342        0.6862186756
H             0.7621790419        0.5658772128        0.6802607490



     Writing config-only to output data dir ../../results/server/3h2_abs/3H2abs_C.save/
     NEW-OLD atomic charge density approx. for the potential

     Check: negative core charge=   -0.000002
     extrapolated charge  104.26032, renormalised to  102.00000

     total cpu time spent up to now is       34.1 secs

     Self-consistent Calculation

     iteration #  1     ecut=    40.00 Ry     beta= 0.05
     Davidson diagonalization with overlap
     c_bands:  1 eigenvalues not converged
     c_bands:  1 eigenvalues not converged
     c_bands:  4 eigenvalues not converged
     c_bands:  3 eigenvalues not converged
     c_bands:  3 eigenvalues not converged
     c_bands:  3 eigenvalues not converged
     c_bands:  3 eigenvalues not converged
     c_bands:  2 eigenvalues not converged
     c_bands:  1 eigenvalues not converged
     c_bands:  2 eigenvalues not converged
     ethr =  1.00E-06,  avg # of iterations = 20.3

     total cpu time spent up to now is       37.7 secs

     total energy              =    -293.81728601 Ry
     estimated scf accuracy    <       0.20788443 Ry

     iteration #  2     ecut=    40.00 Ry     beta= 0.05
     Davidson diagonalization with overlap
     ethr =  2.04E-04,  avg # of iterations =  9.8

     total cpu time spent up to now is       39.2 secs

     total energy              =    -293.90011913 Ry
     estimated scf accuracy    <       0.02101103 Ry

     iteration #  3     ecut=    40.00 Ry     beta= 0.05
     Davidson diagonalization with overlap
     c_bands:  1 eigenvalues not converged
     ethr =  2.06E-05,  avg # of iterations = 11.2

     total cpu time spent up to now is       40.8 secs

     total energy              =    -293.90185081 Ry
     estimated scf accuracy    <       0.01741010 Ry

     iteration #  4     ecut=    40.00 Ry     beta= 0.05
     Davidson diagonalization with overlap
     ethr =  1.71E-05,  avg # of iterations =  1.2

     total cpu time spent up to now is       41.3 secs

     total energy              =    -293.89777209 Ry
     estimated scf accuracy    <       0.01161480 Ry

     iteration #  5     ecut=    40.00 Ry     beta= 0.05
     Davidson diagonalization with overlap
     ethr =  1.14E-05,  avg # of iterations =  2.1

     total cpu time spent up to now is       42.0 secs

     total energy              =    -293.89882277 Ry
     estimated scf accuracy    <       0.00018049 Ry

     iteration #  6     ecut=    40.00 Ry     beta= 0.05
     Davidson diagonalization with overlap
     c_bands:  1 eigenvalues not converged
     c_bands:  1 eigenvalues not converged
     ethr =  1.77E-07,  avg # of iterations = 10.2

     total cpu time spent up to now is       43.8 secs

     total energy              =    -293.89904905 Ry
     estimated scf accuracy    <       0.00023208 Ry

     iteration #  7     ecut=    40.00 Ry     beta= 0.05
     Davidson diagonalization with overlap
     ethr =  1.77E-07,  avg # of iterations =  1.7

     total cpu time spent up to now is       44.4 secs

     total energy              =    -293.89899612 Ry
     estimated scf accuracy    <       0.00023188 Ry

     iteration #  8     ecut=    40.00 Ry     beta= 0.05
     Davidson diagonalization with overlap
     ethr =  1.77E-07,  avg # of iterations =  2.0

     total cpu time spent up to now is       45.0 secs

     total energy              =    -293.89896622 Ry
     estimated scf accuracy    <       0.00007973 Ry

     iteration #  9     ecut=    40.00 Ry     beta= 0.05
     Davidson diagonalization with overlap
     ethr =  7.82E-08,  avg # of iterations =  2.3

     total cpu time spent up to now is       45.6 secs

     total energy              =    -293.89897722 Ry
     estimated scf accuracy    <       0.00000824 Ry

     iteration # 10     ecut=    40.00 Ry     beta= 0.05
     Davidson diagonalization with overlap
     ethr =  8.08E-09,  avg # of iterations =  4.0

     total cpu time spent up to now is       46.4 secs

     total energy              =    -293.89897725 Ry
     estimated scf accuracy    <       0.00000702 Ry

     iteration # 11     ecut=    40.00 Ry     beta= 0.05
     Davidson diagonalization with overlap
     ethr =  6.88E-09,  avg # of iterations =  2.1

     total cpu time spent up to now is       47.1 secs

     total energy              =    -293.89897817 Ry
     estimated scf accuracy    <       0.00000255 Ry

     iteration # 12     ecut=    40.00 Ry     beta= 0.05
     Davidson diagonalization with overlap
     ethr =  2.50E-09,  avg # of iterations =  3.8

     total cpu time spent up to now is       48.0 secs

     total energy              =    -293.89897901 Ry
     estimated scf accuracy    <       0.00000566 Ry

     iteration # 13     ecut=    40.00 Ry     beta= 0.05
     Davidson diagonalization with overlap
     ethr =  2.50E-09,  avg # of iterations =  1.0

     total cpu time spent up to now is       48.5 secs

     total energy              =    -293.89897848 Ry
     estimated scf accuracy    <       0.00000529 Ry

     iteration # 14     ecut=    40.00 Ry     beta= 0.05
     Davidson diagonalization with overlap
     ethr =  2.50E-09,  avg # of iterations =  1.0

     total cpu time spent up to now is       49.0 secs

     total energy              =    -293.89897805 Ry
     estimated scf accuracy    <       0.00000361 Ry

     iteration # 15     ecut=    40.00 Ry     beta= 0.05
     Davidson diagonalization with overlap
     ethr =  2.50E-09,  avg # of iterations =  1.0

     total cpu time spent up to now is       49.5 secs

     total energy              =    -293.89897803 Ry
     estimated scf accuracy    <       0.00000202 Ry

     iteration # 16     ecut=    40.00 Ry     beta= 0.05
     Davidson diagonalization with overlap
     ethr =  1.98E-09,  avg # of iterations =  1.0

     total cpu time spent up to now is       50.0 secs

     total energy              =    -293.89897737 Ry
     estimated scf accuracy    <       0.00000182 Ry

     iteration # 17     ecut=    40.00 Ry     beta= 0.05
     Davidson diagonalization with overlap
     ethr =  1.79E-09,  avg # of iterations =  2.1

     total cpu time spent up to now is       50.6 secs

     End of self-consistent calculation

          k = 0.0744 0.1255 0.0942 (  6849 PWs)   bands (ev):

   -13.5904 -13.4686 -13.2515  -9.3017  -9.2477  -9.2059  -9.1506  -9.0363
    -8.9820  -8.3859  -8.2820  -8.1904  -7.3657  -7.2562  -7.1787  -6.3938
    -6.3644  -6.3167  -6.2900  -6.1746  -6.1446  -4.3646  -2.5118  -1.6210
    -1.1073  -1.0419  -0.9660  -0.8563  -0.7886  -0.7582  -0.7356  -0.7179
    -0.6883  -0.6159   0.4902   2.2271   2.2337   2.3042   2.3317   2.3596
     2.3969   2.4766   2.5101   2.5431   2.8595   2.9633   3.1514   3.4954
     3.5376   3.6969   3.9746   6.8814   7.4066   7.4846   7.5643   7.9080
     7.9934   8.0325   8.5795   8.6344   9.7789

          k = 0.0704 0.1236-0.0891 (  6836 PWs)   bands (ev):

   -13.5909 -13.4678 -13.2518  -9.3009  -9.2458  -9.2073  -9.1537  -9.0358
    -8.9807  -8.3859  -8.2820  -8.1904  -7.3656  -7.2562  -7.1788  -6.3940
    -6.3669  -6.3160  -6.2861  -6.1749  -6.1462  -4.3626  -2.5282  -1.5957
    -1.1073  -1.0420  -0.9657  -0.8562  -0.7885  -0.7591  -0.7441  -0.7179
    -0.6883  -0.6159   0.4882   2.1940   2.2298   2.3044   2.3399   2.3634
     2.3983   2.4768   2.5242   2.6003   2.8567   2.9306   3.1523   3.4527
     3.5852   3.6581   3.9889   6.8895   7.4018   7.4759   7.5022   7.8928
     8.0154   8.1377   8.5833   8.6055   9.8118

          k = 0.0755 0.2910 0.0958 (  6837 PWs)   bands (ev):

   -13.1773 -13.0589 -12.8455 -10.7674 -10.6638 -10.4763  -9.8037  -9.7041
    -9.5284  -8.5468  -8.4570  -8.3027  -6.5398  -6.4560  -6.3259  -5.1838
    -5.1126  -4.9796  -4.3605  -4.2831  -4.2057  -4.1363  -2.3638  -2.2991
    -2.2057  -2.0397  -1.6393  -1.5730  -1.4890  -1.2034  -0.3912  -0.3647
    -0.2952  -0.2241   0.2306   0.8065   0.8464   0.9142   0.9755   1.5057
     1.6769   1.7546   1.8101   1.8520   2.2678   2.4835   2.8776   3.2291
     3.4204   3.6247   4.2767   7.0452   7.5051   7.9549   8.3617   8.7982
     9.0863   9.3959   9.5610  10.0245  10.5197

          k = 0.0715 0.2890-0.0875 (  6850 PWs)   bands (ev):

   -13.1780 -13.0577 -12.8461 -10.7668 -10.6648 -10.4759  -9.8018  -9.7074
    -9.5271  -8.5482  -8.4545  -8.3038  -6.5392  -6.4571  -6.3254  -5.1864
    -5.1082  -4.9815  -4.3591  -4.2861  -4.2023  -4.1370  -2.3636  -2.2994
    -2.2053  -2.0469  -1.6393  -1.5728  -1.4892  -1.2146  -0.3659  -0.3469
    -0.2953  -0.2241   0.1899   0.8421   0.8477   0.9147   0.9756   1.5064
     1.6769   1.7545   1.8094   1.8819   2.2141   2.4486   2.9512   3.1134
     3.3421   3.8846   4.1677   7.0280   7.5235   7.9612   8.3511   8.7755
     9.1985   9.3401   9.5597  10.0071  10.5443

          k = 0.0765 0.4565 0.0974 (  6841 PWs)   bands (ev):

   -12.4402 -12.3273 -12.1211 -11.9652 -11.8539 -11.6541 -10.0585  -9.9576
    -9.7792  -8.7120  -8.6233  -8.4577  -5.3875  -5.3004  -5.2029  -4.1447
    -4.0908  -4.0125  -3.9359  -3.6722  -3.6027  -3.5190  -2.6147  -2.5353
    -2.4694  -2.1639  -2.0984  -1.9975  -1.2352  -1.1220  -1.0584  -0.9715
    -0.7380  -0.4732  -0.2022   0.3098   0.3625   0.3817   0.4498   0.7247
     0.7749   0.8476   0.9124   1.1738   1.6102   2.2537   2.8469   3.1164
     3.3764   3.7390   4.4152   7.3053   7.7087   8.1435   8.7730   8.9858
     9.3480   9.7463  11.7146  11.9385  12.3028

          k = 0.0725 0.4545-0.0859 (  6853 PWs)   bands (ev):

   -12.4410 -12.3258 -12.1218 -11.9648 -11.8547 -11.6538 -10.0566  -9.9608
    -9.7779  -8.7137  -8.6204  -8.4589  -5.3874  -5.3005  -5.2029  -4.1475
    -4.0835  -4.0180  -3.9344  -3.6742  -3.5993  -3.5204  -2.6144  -2.5357
    -2.4692  -2.1644  -2.0979  -1.9976  -1.2051  -1.1246  -1.0585  -0.9716
    -0.8369  -0.4894  -0.0454   0.3101   0.3697   0.3817   0.4499   0.6144
     0.7744   0.8476   0.9123   1.1962   1.6683   2.2022   2.8405   3.1024
     3.3056   3.8870   4.3623   7.3005   7.7248   8.1274   8.7928   8.9609
     9.3681   9.7405  11.8704  11.9306  12.2818

          k = 0.0713-0.3708 0.0894 (  6852 PWs)   bands (ev):

   -12.8574 -12.7400 -12.5310 -11.3889 -11.2833 -11.0875 -10.0013  -9.9008
    -9.7232  -8.6102  -8.5218  -8.3571  -5.8361  -5.7542  -5.6313  -4.7063
    -4.6311  -4.5104  -4.1429  -3.2916  -3.2358  -3.2231  -3.1678  -3.1117
    -3.0704  -1.9984  -1.9323  -1.8455  -1.6741  -1.0286  -0.2086  -0.0586
    -0.0238   0.0077   0.0465   0.0582   0.0872   0.1155   0.4273   0.8828
     1.1836   1.2579   1.3195   1.5506   1.7006   2.3195   2.9451   3.1572
     3.4025   3.8247   4.3737   7.1846   7.6418   8.0607   8.6766   8.8242
     9.2561   9.5813  10.7078  11.1054  11.5421

          k = 0.0673-0.3728-0.0939 (  6834 PWs)   bands (ev):

   -12.8571 -12.7405 -12.5308 -11.3898 -11.2817 -11.0882  -9.9995  -9.9037
    -9.7220  -8.6119  -8.5189  -8.3583  -5.8342  -5.7575  -5.6298  -4.7070
    -4.6297  -4.5111  -4.1426  -3.2908  -3.2364  -3.2240  -3.1670  -3.1115
    -3.0706  -1.9985  -1.9321  -1.8460  -1.7033  -0.9286  -0.2917  -0.0605
    -0.0241   0.0086   0.0437   0.0512   0.0879   0.1158   0.3772   0.9305
     1.1839   1.2579   1.3197   1.5961   1.7538   2.2717   2.8683   3.1672
     3.4295   3.8247   4.3926   7.2034   7.6197   8.0578   8.6389   8.9234
     9.1493   9.6141  10.6986  11.1327  11.3910

          k = 0.0723-0.2054 0.0910 (  6839 PWs)   bands (ev):

   -13.4295 -13.3082 -13.0933 -10.0447  -9.9476  -9.7657  -9.6381  -9.5397
    -9.3673  -8.2640  -8.1730  -8.0305  -7.0465  -6.9595  -6.8350  -5.9067
    -5.8306  -5.6910  -5.4250  -5.3512  -5.2165  -4.2837  -2.3277  -1.8903
    -1.8240  -1.7377  -1.4945  -0.9391  -0.8738  -0.7988  -0.5947  -0.5797
    -0.5103  -0.4388   0.3599   1.5208   1.6413   1.7161   1.7639   1.9543
     2.0785   2.1364   2.1569   2.2078   2.4425   2.9028   3.1697   3.2720
     3.5205   3.7717   4.1518   6.8789   7.4437   7.8098   7.8832   8.3660
     8.4290   8.8922   8.9674   9.3935   9.6736

          k = 0.0683-0.2073-0.0923 (  6851 PWs)   bands (ev):

   -13.4295 -13.3083 -13.0933 -10.0457  -9.9458  -9.7664  -9.6366  -9.5422
    -9.3662  -8.2653  -8.1708  -8.0314  -7.0445  -6.9632  -6.8334  -5.9077
    -5.8289  -5.6916  -5.4250  -5.3512  -5.2165  -4.2832  -2.3457  -1.8902
    -1.8242  -1.7375  -1.4385  -0.9391  -0.8737  -0.7993  -0.6538  -0.5801
    -0.5103  -0.4387   0.3800   1.5354   1.6417   1.7162   1.7639   1.8842
     2.0786   2.1556   2.1599   2.2088   2.5529   2.8826   3.0743   3.2591
     3.6090   3.6886   4.2021   6.9109   7.3858   7.8287   7.9128   8.3610
     8.4166   8.8285   8.9824   9.4595   9.6102

          k = 0.0734-0.0399 0.0926 (  6856 PWs)   bands (ev):

   -13.6748 -13.5520 -13.3343  -9.0058  -8.9099  -8.7526  -8.5320  -8.4583
    -8.4361  -8.3614  -8.2973  -8.2209  -7.2778  -7.2652  -7.1908  -7.1847
    -7.0665  -7.0532  -6.9181  -6.8369  -6.6958  -4.3945  -2.6095  -1.7137
    -0.9355  -0.8674  -0.8321  -0.8144  -0.7965  -0.7622  -0.6897  -0.5381
    -0.4715  -0.4048   0.5211   2.4191   2.4850   2.5474   2.5646   2.6226
     2.6288   2.7038   2.7471   2.8556   2.9278   3.2794   3.3568   3.5365
     3.6078   3.8493   3.9333   6.9081   6.9531   7.1562   7.4083   7.5447
     7.7861   7.9756   8.0132   8.3126  10.0658

          k = 0.0694-0.0419-0.0907 (  6856 PWs)   bands (ev):

   -13.6750 -13.5517 -13.3345  -9.0046  -8.9119  -8.7517  -8.5330  -8.4566
    -8.4349  -8.3637  -8.2979  -8.2200  -7.2784  -7.2670  -7.1903  -7.1810
    -7.0667  -7.0549  -6.9190  -6.8352  -6.6965  -4.3931  -2.6264  -1.6749
    -0.9356  -0.8676  -0.8459  -0.8303  -0.7965  -0.7622  -0.6897  -0.5380
    -0.4715  -0.4048   0.5273   2.3244   2.4838   2.5628   2.6115   2.6284
     2.7037   2.7453   2.7748   2.8911   2.9436   3.0561   3.3566   3.4491
     3.7541   3.8496   3.9292   6.9041   6.9612   7.1964   7.3969   7.5364
     7.7212   7.9632   8.0373   8.3469  10.0476

          k = 0.2182 0.2092 0.0976 (  6843 PWs)   bands (ev):

   -13.1739 -13.0560 -12.8423 -10.7353 -10.6301 -10.4444  -9.8501  -9.7524
    -9.5746  -8.5804  -8.4877  -8.3350  -6.4981  -6.4172  -6.2838  -5.2040
    -5.1306  -5.0002  -4.3084  -4.2517  -4.1607  -4.0946  -2.3756  -2.3107
    -2.2168  -2.0197  -1.5677  -1.4997  -1.4142  -1.2504  -0.4519  -0.4066
    -0.3834  -0.3146   0.1173   0.8320   0.8909   0.9610   1.0220   1.5960
     1.6340   1.7074   1.7597   1.8130   2.3115   2.3798   2.9468   3.0751
     3.3423   3.9485   4.1643   7.0306   7.5871   7.9396   8.3575   8.7964
     9.3003   9.4614   9.7047  10.0451  10.5569

[...]
     atom    1 type  1   force =    -0.00325398   -0.00529540   -0.00028566
     atom    2 type  1   force =     0.00371872   -0.00264760   -0.00130698
     atom    3 type  1   force =     0.00682746    0.00300817   -0.00285191
     atom    4 type  1   force =     0.00135271    0.00201195   -0.00046694
     atom    5 type  1   force =    -0.00284753   -0.00137172    0.00023653
     atom    6 type  1   force =     0.00298762    0.00306509    0.00145905
     atom    7 type  1   force =    -0.00306663   -0.00386696   -0.00025911
     atom    8 type  1   force =    -0.00065124   -0.00063489    0.00000551
     atom    9 type  1   force =     0.00109450   -0.00428799   -0.00005590
     atom   10 type  1   force =     0.00165536    0.00602299   -0.00002082
     atom   11 type  1   force =    -0.00432552    0.00495273   -0.00426999
     atom   12 type  1   force =    -0.00292180   -0.00311205    0.00408736
     atom   13 type  1   force =    -0.00179390   -0.00291430    0.00044349
     atom   14 type  1   force =     0.00271414   -0.00045587    0.00038362
     atom   15 type  1   force =    -0.00249735   -0.00671432    0.00312143
     atom   16 type  1   force =     0.00396996    0.00422401    0.00001533
     atom   17 type  1   force =    -0.00183237    0.00218503   -0.00205579
     atom   18 type  1   force =    -0.00444613    0.00354238    0.00297980
     atom   19 type  1   force =    -0.00177651   -0.00466060    0.00048028
     atom   20 type  1   force =     0.00133358   -0.00231135   -0.00237509
     atom   21 type  1   force =    -0.00042670    0.00030339    0.00122920
     atom   22 type  1   force =     0.00235592    0.00243939   -0.00130798
     atom   23 type  1   force =     0.00087078    0.00144961   -0.00196326
     atom   24 type  1   force =     0.00015237    0.00480851    0.00243951
     atom   25 type  2   force =     0.04240559    0.04642358    0.00105194
     atom   26 type  2   force =    -0.04219115   -0.04678012   -0.00095608
     atom   27 type  2   force =     0.05576180   -0.02191550    0.01836844
     atom   28 type  2   force =    -0.05561271    0.02200598   -0.01845821
     atom   29 type  2   force =     0.00296955   -0.06280463    0.00017524
     atom   30 type  2   force =    -0.00330157    0.06291360   -0.00019955
     The ionic contribution  to forces
     atom    1 type  1   force =    -0.01542110   -0.04941623   -0.47117534
     atom    2 type  1   force =     0.20779020    0.40023470    5.25121724
     atom    3 type  1   force =    -0.01735178   -0.35977242   -4.68630883
     atom    4 type  1   force =    -0.00409567   -0.03474468   -0.55929052
     atom    5 type  1   force =     0.09690140    0.35865981    5.26148933
     atom    6 type  1   force =    -0.03876903   -0.44342288   -4.64178040
     atom    7 type  1   force =    -0.02493388   -0.06160270   -0.54480507
     atom    8 type  1   force =     0.02420507    0.40519397    5.20889819
     atom    9 type  1   force =    -0.15629032   -0.35216529   -4.82437822
     atom   10 type  1   force =    -0.01131244   -0.04078452   -0.64404564
     atom   11 type  1   force =     0.09236361    0.43880255    5.12676192
     atom   12 type  1   force =    -0.13660891   -0.43889744   -4.72829699
     atom   13 type  1   force =    -0.02295356   -0.06265261   -0.62238033
     atom   14 type  1   force =     0.09413787    0.49316363    5.17590426
     atom   15 type  1   force =    -0.09187016   -0.38600783   -4.61396312
     atom   16 type  1   force =    -0.00355717   -0.03547131   -0.55858294
     atom   17 type  1   force =     0.02489282    0.46527838    5.20887308
     atom   18 type  1   force =    -0.10185570   -0.28867306   -4.85373367
     atom   19 type  1   force =    -0.00961060   -0.05885216   -0.57272223
     atom   20 type  1   force =     0.10985359    0.39838663    5.13057091
     atom   21 type  1   force =    -0.09458200   -0.47463048   -4.64281819
     atom   22 type  1   force =     0.00141858   -0.02848545   -0.48484108
     atom   23 type  1   force =     0.17356034    0.46984539    5.22067634
     atom   24 type  1   force =    -0.10976836   -0.35441561   -4.63445862
     atom   25 type  2   force =    -0.57466816   -0.54088972    0.26318556
     atom   26 type  2   force =     0.62481351    0.57592696    0.16617631
     atom   27 type  2   force =    -0.73341150    0.39626924   -0.01502399
     atom   28 type  2   force =     0.70609906   -0.34109583    0.04773161
     atom   29 type  2   force =     0.01218293    0.82944890   -0.04336540
     atom   30 type  2   force =    -0.02115862   -0.87922992    0.08048583
     The local contribution  to forces
     atom    1 type  1   force =     0.01594556    0.05054233    0.46764433
     atom    2 type  1   force =    -0.20988625   -0.39971425   -5.25042745
     atom    3 type  1   force =     0.01401185    0.35847823    4.68616204
     atom    4 type  1   force =     0.00393289    0.03412276    0.55918041
     atom    5 type  1   force =    -0.09627959   -0.35584926   -5.26139633
     atom    6 type  1   force =     0.03612599    0.44200738    4.63825277
     atom    7 type  1   force =     0.02554657    0.06216337    0.54437652
     atom    8 type  1   force =    -0.02259112   -0.40486427   -5.20827664
     atom    9 type  1   force =     0.15721391    0.35497487    4.82706547
     atom   10 type  1   force =     0.01095607    0.03898816    0.64689551
     atom   11 type  1   force =    -0.09101928   -0.43976083   -5.12361638
     atom   12 type  1   force =     0.13948938    0.44030423    4.72629769
     atom   13 type  1   force =     0.02316649    0.06338929    0.62496372
     atom   14 type  1   force =    -0.09581058   -0.49525133   -5.17541940
     atom   15 type  1   force =     0.09246880    0.38843554    4.61066000
     atom   16 type  1   force =     0.00238253    0.03386712    0.55795932
     atom   17 type  1   force =    -0.02302297   -0.46543798   -5.20816500
     atom   18 type  1   force =     0.10378920    0.28624918    4.85521642
     atom   19 type  1   force =     0.00995746    0.06024159    0.57299335
     atom   20 type  1   force =    -0.10987173   -0.39815462   -5.12791700
     atom   21 type  1   force =     0.09529469    0.47525059    4.64118509
     atom   22 type  1   force =    -0.00186853    0.02736418    0.48206077
     atom   23 type  1   force =    -0.17536897   -0.46957345   -5.21917928
     atom   24 type  1   force =     0.10913790    0.35249796    4.63253351
     atom   25 type  2   force =     0.53168048    0.49392412   -0.26282880
     atom   26 type  2   force =    -0.58282744   -0.52908716   -0.16449067
     atom   27 type  2   force =     0.67951103   -0.37527558   -0.00187214
     atom   28 type  2   force =    -0.65184586    0.32076403   -0.03088451
     atom   29 type  2   force =    -0.01535212   -0.76684455    0.04213192
     atom   30 type  2   force =     0.02595439    0.81667984   -0.08064014
     The core correction contribution to forces
     atom    1 type  1   force =     0.00011335    0.00012520   -0.00023819
     atom    2 type  1   force =    -0.00015891    0.00007328   -0.00002383
     atom    3 type  1   force =    -0.00014481   -0.00000712   -0.00009332
     atom    4 type  1   force =    -0.00007489   -0.00011910    0.00004167
     atom    5 type  1   force =     0.00006175    0.00000382   -0.00005854
     atom    6 type  1   force =    -0.00005355   -0.00002422   -0.00017883
     atom    7 type  1   force =     0.00013521    0.00017197   -0.00005816
     atom    8 type  1   force =    -0.00002406    0.00000830    0.00004014
     atom    9 type  1   force =    -0.00006653    0.00008511    0.00019741
     atom   10 type  1   force =    -0.00005439   -0.00017276    0.00024552
     atom   11 type  1   force =     0.00013743   -0.00012263    0.00004915
     atom   12 type  1   force =    -0.00001163   -0.00002493   -0.00000857
     atom   13 type  1   force =     0.00009512    0.00013711    0.00014697
     atom   14 type  1   force =    -0.00006770    0.00005949    0.00006198
     atom   15 type  1   force =     0.00002891    0.00015531   -0.00012913
     atom   16 type  1   force =    -0.00013382   -0.00013582    0.00003382
     atom   17 type  1   force =     0.00009178   -0.00002838   -0.00002426
     atom   18 type  1   force =     0.00010806   -0.00016615    0.00024968
     atom   19 type  1   force =     0.00004359    0.00014254    0.00002035
     atom   20 type  1   force =    -0.00004613    0.00005601    0.00006957
     atom   21 type  1   force =     0.00003508    0.00008335   -0.00011874
     atom   22 type  1   force =    -0.00012442   -0.00013602   -0.00014117
     atom   23 type  1   force =     0.00001905   -0.00006043   -0.00001637
     atom   24 type  1   force =     0.00009634   -0.00010045   -0.00004885
     atom   25 type  2   force =     0.00000000    0.00000000    0.00000000
     atom   26 type  2   force =     0.00000000    0.00000000    0.00000000
     atom   27 type  2   force =     0.00000000    0.00000000    0.00000000
     atom   28 type  2   force =     0.00000000    0.00000000    0.00000000
     atom   29 type  2   force =     0.00000000    0.00000000    0.00000000
     atom   30 type  2   force =     0.00000000    0.00000000    0.00000000
     The Hubbard contrib.    to forces
     atom    1 type  1   force =     0.00000000    0.00000000    0.00000000
     atom    2 type  1   force =     0.00000000    0.00000000    0.00000000
     atom    3 type  1   force =     0.00000000    0.00000000    0.00000000
     atom    4 type  1   force =     0.00000000    0.00000000    0.00000000
     atom    5 type  1   force =     0.00000000    0.00000000    0.00000000
     atom    6 type  1   force =     0.00000000    0.00000000    0.00000000
     atom    7 type  1   force =     0.00000000    0.00000000    0.00000000
     atom    8 type  1   force =     0.00000000    0.00000000    0.00000000
     atom    9 type  1   force =     0.00000000    0.00000000    0.00000000
     atom   10 type  1   force =     0.00000000    0.00000000    0.00000000
     atom   11 type  1   force =     0.00000000    0.00000000    0.00000000
     atom   12 type  1   force =     0.00000000    0.00000000    0.00000000
     atom   13 type  1   force =     0.00000000    0.00000000    0.00000000
     atom   14 type  1   force =     0.00000000    0.00000000    0.00000000
     atom   15 type  1   force =     0.00000000    0.00000000    0.00000000
     atom   16 type  1   force =     0.00000000    0.00000000    0.00000000
     atom   17 type  1   force =     0.00000000    0.00000000    0.00000000
     atom   18 type  1   force =     0.00000000    0.00000000    0.00000000
     atom   19 type  1   force =     0.00000000    0.00000000    0.00000000
     atom   20 type  1   force =     0.00000000    0.00000000    0.00000000
     atom   21 type  1   force =     0.00000000    0.00000000    0.00000000
     atom   22 type  1   force =     0.00000000    0.00000000    0.00000000
     atom   23 type  1   force =     0.00000000    0.00000000    0.00000000
     atom   24 type  1   force =     0.00000000    0.00000000    0.00000000
     atom   25 type  2   force =     0.00000000    0.00000000    0.00000000
     atom   26 type  2   force =     0.00000000    0.00000000    0.00000000
     atom   27 type  2   force =     0.00000000    0.00000000    0.00000000
     atom   28 type  2   force =     0.00000000    0.00000000    0.00000000
     atom   29 type  2   force =     0.00000000    0.00000000    0.00000000
     atom   30 type  2   force =     0.00000000    0.00000000    0.00000000
     The SCF correction term to forces
     atom    1 type  1   force =    -0.00000669   -0.00000935   -0.00002002
     atom    2 type  1   force =    -0.00003310    0.00000168    0.00004655
     atom    3 type  1   force =     0.00000827   -0.00002326   -0.00003589
     atom    4 type  1   force =    -0.00001242   -0.00000443   -0.00001780
     atom    5 type  1   force =    -0.00002643    0.00000307    0.00002390
     atom    6 type  1   force =     0.00001112    0.00001435   -0.00004748
     atom    7 type  1   force =     0.00000445   -0.00000298   -0.00001917
     atom    8 type  1   force =     0.00002074   -0.00002864    0.00003353
     atom    9 type  1   force =    -0.00000772   -0.00001115   -0.00002446
     atom   10 type  1   force =     0.00000783   -0.00000803   -0.00001852
     atom   11 type  1   force =     0.00002329   -0.00003188    0.00003877
     atom   12 type  1   force =    -0.00001045    0.00003904   -0.00004549
     atom   13 type  1   force =    -0.00000522   -0.00001560   -0.00001693
     atom   14 type  1   force =     0.00002238    0.00001568    0.00002464
     atom   15 type  1   force =    -0.00000238    0.00002842   -0.00005085
     atom   16 type  1   force =    -0.00000296   -0.00001813   -0.00001820
     atom   17 type  1   force =     0.00001922    0.00001122    0.00004451
     atom   18 type  1   force =    -0.00001466   -0.00001392   -0.00004230
     atom   19 type  1   force =    -0.00000089   -0.00000780   -0.00001823
     atom   20 type  1   force =    -0.00002926    0.00003969    0.00003536
     atom   21 type  1   force =     0.00001313    0.00001909   -0.00005857
     atom   22 type  1   force =    -0.00000539   -0.00000923   -0.00001897
     atom   23 type  1   force =    -0.00002909    0.00004034    0.00003397
     atom   24 type  1   force =     0.00002755   -0.00002722   -0.00003585
     atom   25 type  2   force =    -0.00000096   -0.00000033    0.00001098
     atom   26 type  2   force =    -0.00000268   -0.00000127    0.00001124
     atom   27 type  2   force =     0.00000435    0.00000013    0.00001655
     atom   28 type  2   force =    -0.00000027    0.00000218    0.00001545
     atom   29 type  2   force =    -0.00000130   -0.00000161    0.00001903
     atom   30 type  2   force =     0.00000013   -0.00000229    0.00001898

     Total force =     0.018567     Total SCF correction =     0.000219


     Computing stress (Cartesian axis) and pressure

          total   stress  (Ry/bohr**3)                   (kbar)     P=       -0.43
  -0.00001231  -0.00000484  -0.00000434           -1.81       -0.71       -0.64
  -0.00000484  -0.00000208  -0.00000216           -0.71       -0.31       -0.32
  -0.00000434  -0.00000216   0.00000569           -0.64       -0.32        0.84

     Energy error            =      5.7E-04 Ry
     Gradient error          =      4.7E-03 Ry/Bohr
     Cell gradient error     =      1.8E+00 kbar

     number of scf cycles    =  50
     number of bfgs steps    =  48

     enthalpy           old  =    -294.0426333409 Ry
     enthalpy           new  =    -294.0432071077 Ry

     CASE: enthalpy          _new < enthalpy          _old

     new trust radius        =       0.0403042138 bohr

     The maximum number of steps has been reached.

     End of BFGS Geometry Optimization
     new unit-cell volume =   1665.12186 a.u.^3 (   246.74560 Ang^3 )
     density =      1.98064 g/cm^3

CELL_PARAMETERS (alat=  8.00000437)
   1.155269246   0.000561219  -0.023515637
  -0.579593355   0.996657318  -0.070788414
  -0.041001218  -0.208656142   2.841850781

ATOMIC_POSITIONS (crystal)
C            -0.0480101614       -0.0610129383        0.1696675811
C             0.0358713839        0.0661219575        0.4415466316
C             0.0208713451        0.0081752408        0.8860193483
C             0.1182601350        0.2717991823        0.1691339861
C             0.3690903324        0.2326914646        0.4415426464
C             0.1878693095        0.3415704007        0.8861979974
C             0.4516183190       -0.0615896814        0.1692263966
C             0.5355811712        0.0658677987        0.4413690071
C             0.5217172526        0.0089753475        0.8852708831
C             0.6179073564        0.2713506312        0.1686301437
C             0.8689996507        0.2324122132        0.4413923916
C             0.6887474332        0.3424355676        0.8856766369
C            -0.0484910511        0.4382942665        0.1687645086
C             0.0352266793        0.5657420496        0.4413397376
C             0.0220128142        0.5091875367        0.8859134258
C             0.1180741383        0.7716207335        0.1691287279
C             0.3688229790        0.7324336444        0.4414830118
C             0.1882295588        0.8420273856        0.8851659652
C             0.4518435584        0.4385662754        0.1690761039
C             0.5355626428        0.5661352491        0.4413484304
C             0.5210512397        0.5083441411        0.8860133196
C             0.6184225505        0.7720036300        0.1695564183
C             0.8688851625        0.7325846993        0.4415063047
C             0.6874757045        0.8414804779        0.8858235582
H             0.7136257351        0.9639203062        0.6563607418
H             0.8890914008        1.1018203069        0.6623399286
H             0.2131102962        0.5891987707        0.6562101049
H             0.3233722842        0.5292296674        0.6754393928
H             0.7825883882        0.5954417311        0.6665292674
H             0.6978647089        0.4110691220        0.6613687553



     Writing config-only to output data dir ../../results/server/3h2_abs/3H2abs_C.save/
     NEW-OLD atomic charge density approx. for the potential

     Check: negative core charge=   -0.000002
     extrapolated charge  102.12417, renormalised to  102.00000

     Writing all to output data dir ../../results/server/3h2_abs/3H2abs_C.save/
 
     init_run     :      0.57s CPU      0.71s WALL (       1 calls)
     electrons    :    690.13s CPU    733.96s WALL (      50 calls)
     update_pot   :     13.03s CPU     13.53s WALL (      50 calls)
     forces       :     11.19s CPU     13.19s WALL (      50 calls)
     stress       :    104.77s CPU    108.26s WALL (      50 calls)

     Called by init_run:
     wfcinit      :      0.32s CPU      0.38s WALL (       1 calls)
     potinit      :      0.08s CPU      0.09s WALL (       1 calls)
     hinit0       :      0.13s CPU      0.17s WALL (       1 calls)

     Called by electrons:
     c_bands      :    598.43s CPU    627.71s WALL (     889 calls)
     sum_band     :     72.56s CPU     78.17s WALL (     889 calls)
     v_of_rho     :      1.51s CPU      2.22s WALL (     936 calls)
     newd         :      6.21s CPU      7.33s WALL (     936 calls)
     mix_rho      :      7.61s CPU     10.51s WALL (     889 calls)

     Called by c_bands:
     init_us_2    :      5.00s CPU      6.03s WALL (   22548 calls)
     init_us_2:cp :      4.92s CPU      5.94s WALL (   22548 calls)
     cegterg      :    538.14s CPU    562.34s WALL (   10668 calls)

     Called by *egterg:
     cdiaghg      :    171.80s CPU    179.34s WALL (   45652 calls)
     h_psi        :    294.31s CPU    307.49s WALL (   46300 calls)
     s_psi        :     15.06s CPU     15.51s WALL (   46300 calls)
     g_psi        :      1.07s CPU      1.11s WALL (   35620 calls)

     Called by h_psi:
     h_psi:calbec :     24.09s CPU     25.73s WALL (   46300 calls)
     vloc_psi     :    252.63s CPU    263.38s WALL (   46300 calls)
     add_vuspsi   :     15.88s CPU     16.58s WALL (   46300 calls)

     General routines
     calbec       :     38.70s CPU     41.79s WALL (   59968 calls)
     fft          :      3.43s CPU      4.81s WALL (    5970 calls)
     ffts         :      2.52s CPU      3.13s WALL (   23762 calls)
     fftw         :    256.52s CPU    267.57s WALL ( 4162988 calls)
     interpolate  :      0.46s CPU      0.77s WALL (     936 calls)
     davcio       :      0.00s CPU      0.01s WALL (      12 calls)
 
     Parallel routines
 
     PWSCF        :  13m43.08s CPU  14m36.24s WALL

 
   This run was terminated on:  20: 0: 0   2Sep2024            

=------------------------------------------------------------------------------=
   JOB DONE.
=------------------------------------------------------------------------------=
