
     Program PWSCF v.7.3.1 starts on  6Aug2024 at 20:12:47 

     This program is part of the open-source Quantum ESPRESSO suite
     for quantum simulation of materials; please cite
         "P. Giannozzi et al., J. Phys.:Condens. Matter 21 395502 (2009);
         "P. Giannozzi et al., J. Phys.:Condens. Matter 29 465901 (2017);
         "P. Giannozzi et al., J. Chem. Phys. 152 154105 (2020);
          URL http://www.quantum-espresso.org", 
     in publications or presentations arising from this work. More details at
     http://www.quantum-espresso.org/quote

     Parallel version (MPI & OpenMP), running on       4 processor cores
     Number of MPI processes:                 2
     Threads/MPI process:                     2

     MPI processes distributed on     1 nodes
     2574 MiB available memory on the printing compute node when the environment starts

     Reading input from hydrogen_absorption2.in

     Current dimensions of program PWSCF are:
     Max number of different atomic species (ntypx) = 10
     Max number of k-points (npk) =  40000
     Max angular momentum in pseudopotentials (lmaxx) =  4

     File ../results/2h2_abs/2H2abs_C.update deleted, as requested

     File ../results/2h2_abs/2H2abs_C.bfgs deleted, as requested

     IMPORTANT: XC functional enforced from input :
     Exchange-correlation= LDA
                           (   1   1   0   0   0   0   0)
     Any further DFT definition will be discarded
     Please, verify this is what you really want


     R & G space division:  proc/nbgrp/npool/nimage =       2
     Subspace diagonalization in iterative solution of the eigenvalue problem:
     a serial algorithm will be used


     Parallelization info
     --------------------
     sticks:   dense  smooth     PW     G-vecs:    dense   smooth      PW
     Min         882     351     84                59496    14997    1857
     Max         883     352     85                59501    15000    1858
     Sum        1765     703    169               118997    29997    3715

     Using Slab Decomposition


     Title: 
     2H2_absorption_C                                                           


     bravais-lattice index     =            4
     lattice parameter (alat)  =       8.0000  a.u.
     unit-cell volume          =     880.6989 (a.u.)^3
     number of atoms/cell      =           28
     number of atomic types    =            2
     number of electrons       =       100.00
     number of Kohn-Sham states=           60
     kinetic-energy cutoff     =      40.0000  Ry
     charge density cutoff     =     400.0000  Ry
     scf convergence threshold =      1.0E-06
     mixing beta               =       0.0500
     number of iterations used =            8  local-TF  mixing
     energy convergence thresh.=      1.0E-04
     force convergence thresh. =      1.0E-03
     press convergence thresh. =      5.0E-01
     Exchange-correlation= LDA
                           (   1   1   0   0   0   0   0)
     nstep                     =           50


     celldm(1)=   8.000004  celldm(2)=   0.000000  celldm(3)=   1.986214
     celldm(4)=   0.000000  celldm(5)=   0.000000  celldm(6)=   0.000000

     crystal axes: (cart. coord. in units of alat)
               a(1) = (   1.000000   0.000000   0.000000 )  
               a(2) = (  -0.500000   0.866025   0.000000 )  
               a(3) = (   0.000000   0.000000   1.986214 )  

     reciprocal axes: (cart. coord. in units 2 pi/alat)
               b(1) = (  1.000000  0.577350 -0.000000 )  
               b(2) = (  0.000000  1.154701  0.000000 )  
               b(3) = (  0.000000 -0.000000  0.503470 )  


     PseudoPot. # 1 for C  read from file:
     /home/edoardocabiati/.burai/.pseudopot/C.pz-n-rrkjus_psl.0.1.UPF
     MD5 check sum: a3cecbabebb5b3a1aff122f23eb09bb0
     Pseudo is Ultrasoft + core correction, Zval =  4.0
     Generated using "atomic" code by A. Dal Corso  v.5.0.2 svn rev. 9415
     Using radial grid of 1073 points,  4 beta functions with: 
                l(1) =   0
                l(2) =   0
                l(3) =   1
                l(4) =   1
     Q(r) pseudized with 0 coefficients 


     PseudoPot. # 2 for H  read from file:
     /home/edoardocabiati/.burai/.pseudopot/H.pz-rrkjus_psl.0.1.UPF
     MD5 check sum: 1467ebfaa2880178e80d097b970df8c7
     Pseudo is Ultrasoft, Zval =  1.0
     Generated using "atomic" code by A. Dal Corso  v.5.0.2 svn rev. 9415
     Using radial grid of  929 points,  2 beta functions with: 
                l(1) =   0
                l(2) =   0
     Q(r) pseudized with 0 coefficients 


     atomic species   valence    mass     pseudopotential
     C                 4.00    12.01100     C ( 1.00)
     H                 1.00     1.00784     H ( 1.00)

     No symmetry found



   Cartesian axes

     site n.     atom                  positions (alat units)
         1        C      tau(   1) = (   0.0000000   0.0000000   0.3773807  )
         2        C      tau(   2) = (   0.0000000   0.0000000   0.8540722  )
         3        C      tau(   3) = (   0.0000000   0.0000000   1.7121169  )
         4        C      tau(   4) = (  -0.0000005   0.2886748   0.3773807  )
         5        C      tau(   5) = (   0.2500000   0.1443370   0.8540722  )
         6        C      tau(   6) = (  -0.0000005   0.2886748   1.7121169  )
         7        C      tau(   7) = (   0.5000000   0.0000000   0.3773807  )
         8        C      tau(   8) = (   0.5000000   0.0000000   0.8540722  )
         9        C      tau(   9) = (   0.5000000   0.0000000   1.7121169  )
        10        C      tau(  10) = (   0.4999995   0.2886748   0.3773807  )
        11        C      tau(  11) = (   0.7500000   0.1443370   0.8540722  )
        12        C      tau(  12) = (   0.4999995   0.2886748   1.7121169  )
        13        C      tau(  13) = (  -0.2500000   0.4330127   0.3773807  )
        14        C      tau(  14) = (  -0.2500000   0.4330127   0.8540722  )
        15        C      tau(  15) = (  -0.2500000   0.4330127   1.7121169  )
        16        C      tau(  16) = (  -0.2500005   0.7216875   0.3773807  )
        17        C      tau(  17) = (   0.0000000   0.5773497   0.8540722  )
        18        C      tau(  18) = (  -0.2500005   0.7216875   1.7121169  )
        19        C      tau(  19) = (   0.2500000   0.4330127   0.3773807  )
        20        C      tau(  20) = (   0.2500000   0.4330127   0.8540722  )
        21        C      tau(  21) = (   0.2500000   0.4330127   1.7121169  )
        22        C      tau(  22) = (   0.2499995   0.7216875   0.3773807  )
        23        C      tau(  23) = (   0.5000000   0.5773497   0.8540722  )
        24        C      tau(  24) = (   0.2499995   0.7216875   1.7121169  )
        25        H      tau(  25) = (   0.3345000   0.9794747   1.3506258  )
        26        H      tau(  26) = (   0.1787515   1.0292686   1.3307637  )
        27        H      tau(  27) = (  -0.0750000   0.5888973   1.3307637  )
        28        H      tau(  28) = (   0.0810000   0.5438640   1.3506258  )

     number of k points=     1  Gaussian smearing, width (Ry)=  0.0100
                       cart. coord. in units 2pi/alat
        k(    1) = (   0.0000000   0.0000000   0.0000000), wk =   2.0000000

     Dense  grid:   118997 G-vectors     FFT dimensions: (  54,  54, 108)

     Smooth grid:    29997 G-vectors     FFT dimensions: (  36,  36,  64)

     Estimated max dynamical RAM per process >     149.38 MB

     Estimated total dynamical RAM >     298.77 MB

     Check: negative core charge=   -0.000002

     Initial potential from superposition of free atoms

     starting charge      99.9991, renormalised to     100.0000
     Starting wfcs are  100 randomized atomic wfcs

     total cpu time spent up to now is        3.3 secs

     Self-consistent Calculation

     iteration #  1     ecut=    40.00 Ry     beta= 0.05
     Davidson diagonalization with overlap
     ethr =  1.00E-02,  avg # of iterations =  5.0

     total cpu time spent up to now is        7.5 secs

     total energy              =    -288.95211212 Ry
     estimated scf accuracy    <       6.16025237 Ry

     iteration #  2     ecut=    40.00 Ry     beta= 0.05
     Davidson diagonalization with overlap
     ethr =  6.16E-03,  avg # of iterations =  1.0

     total cpu time spent up to now is        9.3 secs

     total energy              =    -286.72553472 Ry
     estimated scf accuracy    <       6.11429002 Ry

     iteration #  3     ecut=    40.00 Ry     beta= 0.05
     Davidson diagonalization with overlap
     ethr =  6.11E-03,  avg # of iterations =  1.0

     total cpu time spent up to now is       11.9 secs

     total energy              =    -285.48063587 Ry
     estimated scf accuracy    <       2.27713732 Ry

     iteration #  4     ecut=    40.00 Ry     beta= 0.05
     Davidson diagonalization with overlap
     ethr =  2.28E-03,  avg # of iterations =  2.0

     total cpu time spent up to now is       18.1 secs

     total energy              =    -286.10907430 Ry
     estimated scf accuracy    <       0.17570220 Ry

     iteration #  5     ecut=    40.00 Ry     beta= 0.05
     Davidson diagonalization with overlap
     ethr =  1.76E-04,  avg # of iterations =  3.0

     total cpu time spent up to now is       19.9 secs

     total energy              =    -286.07303025 Ry
     estimated scf accuracy    <       0.42530570 Ry

     iteration #  6     ecut=    40.00 Ry     beta= 0.05
     Davidson diagonalization with overlap
     ethr =  1.76E-04,  avg # of iterations =  1.0

     total cpu time spent up to now is       21.3 secs

     total energy              =    -285.88018188 Ry
     estimated scf accuracy    <       0.30146653 Ry

     iteration #  7     ecut=    40.00 Ry     beta= 0.05
     Davidson diagonalization with overlap
     ethr =  1.76E-04,  avg # of iterations = 14.0

     total cpu time spent up to now is       24.6 secs

     total energy              =    -285.95201488 Ry
     estimated scf accuracy    <       0.04246456 Ry

     iteration #  8     ecut=    40.00 Ry     beta= 0.05
     Davidson diagonalization with overlap
     ethr =  4.25E-05,  avg # of iterations =  2.0

     total cpu time spent up to now is       27.3 secs

     total energy              =    -285.95455847 Ry
     estimated scf accuracy    <       0.02010591 Ry

     iteration #  9     ecut=    40.00 Ry     beta= 0.05
     Davidson diagonalization with overlap
     ethr =  2.01E-05,  avg # of iterations =  1.0

     total cpu time spent up to now is       28.9 secs

     total energy              =    -285.95049746 Ry
     estimated scf accuracy    <       0.01619285 Ry

     iteration # 10     ecut=    40.00 Ry     beta= 0.05
     Davidson diagonalization with overlap
     ethr =  1.62E-05,  avg # of iterations =  2.0

     total cpu time spent up to now is       30.6 secs

     total energy              =    -285.95272043 Ry
     estimated scf accuracy    <       0.00716398 Ry

     iteration # 11     ecut=    40.00 Ry     beta= 0.05
     Davidson diagonalization with overlap
     ethr =  7.16E-06,  avg # of iterations =  1.0

     total cpu time spent up to now is       32.4 secs

     total energy              =    -285.95566450 Ry
     estimated scf accuracy    <       0.00759201 Ry

     iteration # 12     ecut=    40.00 Ry     beta= 0.05
     Davidson diagonalization with overlap
     ethr =  7.16E-06,  avg # of iterations =  2.0

     total cpu time spent up to now is       35.4 secs

     total energy              =    -285.94990190 Ry
     estimated scf accuracy    <       0.01301167 Ry

     iteration # 13     ecut=    40.00 Ry     beta= 0.05
     Davidson diagonalization with overlap
     ethr =  7.16E-06,  avg # of iterations =  2.0

     total cpu time spent up to now is       37.8 secs

     total energy              =    -285.94932219 Ry
     estimated scf accuracy    <       0.00248669 Ry

     iteration # 14     ecut=    40.00 Ry     beta= 0.05
     Davidson diagonalization with overlap
     ethr =  2.49E-06,  avg # of iterations = 11.0

     total cpu time spent up to now is       43.8 secs

     total energy              =    -285.95024828 Ry
     estimated scf accuracy    <       0.00100124 Ry

     iteration # 15     ecut=    40.00 Ry     beta= 0.05
     Davidson diagonalization with overlap
     ethr =  1.00E-06,  avg # of iterations =  4.0

     total cpu time spent up to now is       48.4 secs

     total energy              =    -285.95028566 Ry
     estimated scf accuracy    <       0.00066673 Ry

     iteration # 16     ecut=    40.00 Ry     beta= 0.05
     Davidson diagonalization with overlap
     ethr =  6.67E-07,  avg # of iterations =  1.0

     total cpu time spent up to now is       51.7 secs

     total energy              =    -285.95013430 Ry
     estimated scf accuracy    <       0.00032618 Ry

     iteration # 17     ecut=    40.00 Ry     beta= 0.05
     Davidson diagonalization with overlap
     ethr =  3.26E-07,  avg # of iterations =  2.0

     total cpu time spent up to now is       54.2 secs

     total energy              =    -285.95017329 Ry
     estimated scf accuracy    <       0.00003141 Ry

     iteration # 18     ecut=    40.00 Ry     beta= 0.05
     Davidson diagonalization with overlap
     ethr =  3.14E-08,  avg # of iterations =  4.0

     total cpu time spent up to now is       57.3 secs

     total energy              =    -285.95017489 Ry
     estimated scf accuracy    <       0.00001801 Ry

     iteration # 19     ecut=    40.00 Ry     beta= 0.05
     Davidson diagonalization with overlap
     ethr =  1.80E-08,  avg # of iterations =  2.0

     total cpu time spent up to now is       59.6 secs

     total energy              =    -285.95017803 Ry
     estimated scf accuracy    <       0.00000969 Ry

     iteration # 20     ecut=    40.00 Ry     beta= 0.05
     Davidson diagonalization with overlap
     ethr =  9.69E-09,  avg # of iterations =  1.0

     total cpu time spent up to now is       61.3 secs

     total energy              =    -285.95017592 Ry
     estimated scf accuracy    <       0.00000728 Ry

     iteration # 21     ecut=    40.00 Ry     beta= 0.05
     Davidson diagonalization with overlap
     ethr =  7.28E-09,  avg # of iterations =  4.0

     total cpu time spent up to now is       63.2 secs

     total energy              =    -285.95017717 Ry
     estimated scf accuracy    <       0.00000110 Ry

     iteration # 22     ecut=    40.00 Ry     beta= 0.05
     Davidson diagonalization with overlap
     ethr =  1.10E-09,  avg # of iterations =  4.0

     total cpu time spent up to now is       65.4 secs

     End of self-consistent calculation

          k = 0.0000 0.0000 0.0000 (  3715 PWs)   bands (ev):

   -11.1354  -9.5487  -8.2872  -3.6177  -3.6094  -3.6032  -3.4074  -3.4059
    -3.4015  -2.8853  -2.7481  -2.6275  -1.6723  -1.6327  -1.5757  -1.4136
    -1.3941  -1.3882  -0.8178  -0.8138  -0.7965   0.0853   0.7377   5.7923
     5.7982   5.8029   6.3165   6.3566   6.3796   6.5095   6.6510   6.6577
     6.6631   7.0713   7.6571   8.5349   8.6429   8.7050   9.7502   9.8078
    10.1673  11.1327  11.1734  11.2071  11.2078  11.2396  11.5228  11.5272
    11.5779  11.5787  14.6335  14.7389  15.8598  16.3444  16.3919  17.2538
    17.7358  17.7867  17.8156  21.1262

     the Fermi energy is    13.7411 ev

!    total energy              =    -285.95017786 Ry
     estimated scf accuracy    <       0.00000096 Ry
     smearing contrib. (-TS)   =      -0.00000000 Ry
     internal energy E=F+TS    =    -285.95017786 Ry

     The total energy is F=E-TS. E is the sum of the following terms:
     one-electron contribution =     -70.11750650 Ry
     hartree contribution      =     111.98692548 Ry
     xc contribution           =    -112.89889113 Ry
     ewald contribution        =    -214.92070571 Ry

     convergence has been achieved in  22 iterations

     Forces acting on atoms (cartesian axes, Ry/au):

     atom    1 type  1   force =    -0.00413717    0.00210377   -0.00934575
     atom    2 type  1   force =     0.00535935   -0.00315012    0.01016426
     atom    3 type  1   force =    -0.00741693    0.00657449   -0.00095176
     atom    4 type  1   force =    -0.00254197    0.00182118   -0.03494764
     atom    5 type  1   force =     0.00314329   -0.00199132    0.05248160
     atom    6 type  1   force =     0.00347622   -0.00711935    0.01485946
     atom    7 type  1   force =     0.00169274   -0.00084510   -0.00462471
     atom    8 type  1   force =    -0.00292679    0.00094966    0.00162198
     atom    9 type  1   force =    -0.00055867   -0.00469924    0.00064755
     atom   10 type  1   force =     0.00413921   -0.00251334   -0.05217773
     atom   11 type  1   force =    -0.00424994    0.00313313    0.02896317
     atom   12 type  1   force =     0.01108254   -0.00134434   -0.00422574
     atom   13 type  1   force =     0.00212144   -0.00098021   -0.00436664
     atom   14 type  1   force =    -0.00320086    0.00116577    0.00070504
     atom   15 type  1   force =    -0.00281430   -0.00296822    0.00452096
     atom   16 type  1   force =     0.00434537   -0.00241549   -0.05218486
     atom   17 type  1   force =    -0.00415148    0.00321551    0.02893238
     atom   18 type  1   force =     0.00974447   -0.00308157   -0.00327979
     atom   19 type  1   force =    -0.00399980    0.00221219   -0.00940154
     atom   20 type  1   force =     0.00531242   -0.00309368    0.01025397
     atom   21 type  1   force =    -0.00983576    0.00404739   -0.00028340
     atom   22 type  1   force =    -0.00220381    0.00160206   -0.03534051
     atom   23 type  1   force =     0.00339689   -0.00208371    0.05240880
     atom   24 type  1   force =    -0.00030928   -0.00627705    0.00948389
     atom   25 type  2   force =     0.13124180   -0.04214093    0.01148307
     atom   26 type  2   force =    -0.13613887    0.04666768   -0.01317065
     atom   27 type  2   force =    -0.14334566    0.04883139   -0.01456171
     atom   28 type  2   force =     0.14277557   -0.03762055    0.01233631

     Total force =     0.317799     Total SCF correction =     0.002990


     Computing stress (Cartesian axis) and pressure

          total   stress  (Ry/bohr**3)                   (kbar)     P=     3145.62
   0.03106623   0.00003337   0.00005874         4570.00        4.91        8.64
   0.00003337   0.03100410  -0.00005462            4.91     4560.86       -8.04
   0.00005874  -0.00005462   0.00208005            8.64       -8.04      305.99


     BFGS Geometry Optimization
     Energy error            =      0.0E+00 Ry
     Gradient error          =      1.4E-01 Ry/Bohr
     Cell gradient error     =      4.6E+03 kbar

     number of scf cycles    =   1
     number of bfgs steps    =   0

     enthalpy           new  =    -285.9501778610 Ry

     new trust radius        =       0.5000000000 bohr
     new conv_thr            =       0.0000010000 Ry

     new unit-cell volume =   1041.00924 a.u.^3 (   154.26165 Ang^3 )
     density =      3.14639 g/cm^3

CELL_PARAMETERS (alat=  8.00000437)
   1.084241339   0.000090500   0.000159277
  -0.542042294   0.938789408  -0.000207916
   0.000316358  -0.000294203   1.997417536

ATOMIC_POSITIONS (crystal)
C               -0.0000000000        0.0000000000        0.1899362038    0   0   1
C               -0.0000000000        0.0000000000        0.4300693835    0   0   1
C                0.0000000000        0.0000000000        0.8619935031    0   0   1
C                0.1666660000        0.3333330000        0.1897614397    0   0   1
C                0.3333330000        0.1666660000        0.4303582510    0   0   1
C                0.1666660000        0.3333330000        0.8621014339    0   0   1
C                0.5000000000        0.0000000000        0.1899684307    0   0   1
C                0.5000000000        0.0000000000        0.4300110720    0   0   1
C                0.5000000000        0.0000000000        0.8620044203    0   0   1
C                0.6666660000        0.3333330000        0.1896438233    0   0   1
C                0.8333330000        0.1666660000        0.4301977090    0   0   1
C                0.6666660000        0.3333330000        0.8619711542    0   0   1
C               -0.0000000000        0.5000000000        0.1899701924    0   0   1
C               -0.0000000000        0.5000000000        0.4300048128    0   0   1
C               -0.0000000000        0.5000000000        0.8620308611    0   0   1
C                0.1666660000        0.8333330000        0.1896437746    0   0   1
C                0.3333330000        0.6666660000        0.4301974988    0   0   1
C                0.1666660000        0.8333330000        0.8619776115    0   0   1
C                0.5000000000        0.5000000000        0.1899358230    0   0   1
C                0.5000000000        0.5000000000        0.4300699958    0   0   1
C                0.5000000000        0.5000000000        0.8619980654    0   0   1
C                0.6666660000        0.8333330000        0.1897587579    0   0   1
C                0.8333330000        0.6666660000        0.4303577541    0   0   1
C                0.6666660000        0.8333330000        0.8620647391    0   0   1
H                0.9014495455        1.1303402490        0.6800783860
H                0.7715194934        1.1892276209        0.6699100942
H                0.2634387186        0.6807644957        0.6699005985
H                0.3966413094        0.6274110194        0.6800842104



     Writing config-only to output data dir ../results/2h2_abs/2H2abs_C.save/ :
     XML data file
     NEW-OLD atomic charge density approx. for the potential

     Check: negative core charge=   -0.000002

     total cpu time spent up to now is       69.3 secs

     Self-consistent Calculation

     iteration #  1     ecut=    40.00 Ry     beta= 0.05
     Davidson diagonalization with overlap
     c_bands:  1 eigenvalues not converged
     ethr =  1.00E-06,  avg # of iterations = 20.0

     total cpu time spent up to now is       76.1 secs

     total energy              =    -289.11888686 Ry
     estimated scf accuracy    <       0.23985030 Ry

     iteration #  2     ecut=    40.00 Ry     beta= 0.05
     Davidson diagonalization with overlap
     ethr =  2.40E-04,  avg # of iterations =  1.0

     total cpu time spent up to now is       77.6 secs

     total energy              =    -288.98091252 Ry
     estimated scf accuracy    <       0.22413328 Ry

     iteration #  3     ecut=    40.00 Ry     beta= 0.05
     Davidson diagonalization with overlap
     ethr =  2.24E-04,  avg # of iterations =  2.0

     total cpu time spent up to now is       79.4 secs

     total energy              =    -289.01886513 Ry
     estimated scf accuracy    <       0.00585906 Ry

     iteration #  4     ecut=    40.00 Ry     beta= 0.05
     Davidson diagonalization with overlap
     c_bands:  1 eigenvalues not converged
     ethr =  5.86E-06,  avg # of iterations = 20.0

     total cpu time spent up to now is       82.4 secs

     total energy              =    -289.02466141 Ry
     estimated scf accuracy    <       0.00403456 Ry

     iteration #  5     ecut=    40.00 Ry     beta= 0.05
     Davidson diagonalization with overlap
     c_bands:  1 eigenvalues not converged
     ethr =  4.03E-06,  avg # of iterations = 20.0

     total cpu time spent up to now is       84.7 secs

     total energy              =    -289.02289313 Ry
     estimated scf accuracy    <       0.00807388 Ry

     iteration #  6     ecut=    40.00 Ry     beta= 0.05
     Davidson diagonalization with overlap
     ethr =  4.03E-06,  avg # of iterations = 19.0

     total cpu time spent up to now is       86.7 secs

     total energy              =    -289.02306123 Ry
     estimated scf accuracy    <       0.00206856 Ry

     iteration #  7     ecut=    40.00 Ry     beta= 0.05
     Davidson diagonalization with overlap
     ethr =  2.07E-06,  avg # of iterations =  1.0

     total cpu time spent up to now is       88.3 secs

     total energy              =    -289.02297324 Ry
     estimated scf accuracy    <       0.00129104 Ry

     iteration #  8     ecut=    40.00 Ry     beta= 0.05
     Davidson diagonalization with overlap
     ethr =  1.29E-06,  avg # of iterations =  1.0

     total cpu time spent up to now is       91.0 secs

     total energy              =    -289.02294558 Ry
     estimated scf accuracy    <       0.00095843 Ry

     iteration #  9     ecut=    40.00 Ry     beta= 0.05
     Davidson diagonalization with overlap
     ethr =  9.58E-07,  avg # of iterations =  1.0

     total cpu time spent up to now is       93.9 secs

     total energy              =    -289.02287960 Ry
     estimated scf accuracy    <       0.00078255 Ry

     iteration # 10     ecut=    40.00 Ry     beta= 0.05
     Davidson diagonalization with overlap
     ethr =  7.83E-07,  avg # of iterations =  1.0

     total cpu time spent up to now is       96.8 secs

     total energy              =    -289.02286480 Ry
     estimated scf accuracy    <       0.00056209 Ry

     iteration # 11     ecut=    40.00 Ry     beta= 0.05
     Davidson diagonalization with overlap
     ethr =  5.62E-07,  avg # of iterations =  1.0

     total cpu time spent up to now is       99.2 secs

     total energy              =    -289.02271588 Ry
     estimated scf accuracy    <       0.00046275 Ry

     iteration # 12     ecut=    40.00 Ry     beta= 0.05
     Davidson diagonalization with overlap
     ethr =  4.63E-07,  avg # of iterations =  2.0

     total cpu time spent up to now is      101.9 secs

     total energy              =    -289.02271913 Ry
     estimated scf accuracy    <       0.00009485 Ry

     iteration # 13     ecut=    40.00 Ry     beta= 0.05
     Davidson diagonalization with overlap
     ethr =  9.49E-08,  avg # of iterations =  2.0

     total cpu time spent up to now is      104.6 secs

     total energy              =    -289.02273731 Ry
     estimated scf accuracy    <       0.00001797 Ry

     iteration # 14     ecut=    40.00 Ry     beta= 0.05
     Davidson diagonalization with overlap
     ethr =  1.80E-08,  avg # of iterations =  4.0

     total cpu time spent up to now is      108.1 secs

     total energy              =    -289.02274032 Ry
     estimated scf accuracy    <       0.00001458 Ry

     iteration # 15     ecut=    40.00 Ry     beta= 0.05
     Davidson diagonalization with overlap
     ethr =  1.46E-08,  avg # of iterations =  2.0

     total cpu time spent up to now is      110.8 secs

     total energy              =    -289.02273969 Ry
     estimated scf accuracy    <       0.00001138 Ry

     iteration # 16     ecut=    40.00 Ry     beta= 0.05
     Davidson diagonalization with overlap
     ethr =  1.14E-08,  avg # of iterations =  2.0

     total cpu time spent up to now is      113.2 secs

     total energy              =    -289.02274153 Ry
     estimated scf accuracy    <       0.00000149 Ry

     iteration # 17     ecut=    40.00 Ry     beta= 0.05
     Davidson diagonalization with overlap
     ethr =  1.49E-09,  avg # of iterations =  5.0

     total cpu time spent up to now is      116.1 secs

     total energy              =    -289.02274260 Ry
     estimated scf accuracy    <       0.00000191 Ry

     iteration # 18     ecut=    40.00 Ry     beta= 0.05
     Davidson diagonalization with overlap
     ethr =  1.49E-09,  avg # of iterations =  1.0

     total cpu time spent up to now is      118.3 secs

     total energy              =    -289.02274195 Ry
     estimated scf accuracy    <       0.00000158 Ry

     iteration # 19     ecut=    40.00 Ry     beta= 0.05
     Davidson diagonalization with overlap
     ethr =  1.49E-09,  avg # of iterations =  2.0

     total cpu time spent up to now is      120.6 secs

     End of self-consistent calculation

          k = 0.0000 0.0000 0.0000 (  3715 PWs)   bands (ev):

   -11.5608  -9.9106  -8.7178  -4.9341  -4.9282  -4.9248  -4.5692  -4.5523
    -4.5373  -3.5507  -3.4869  -3.4406  -3.3646  -3.3157  -3.2571  -2.5804
    -2.5387  -2.5082  -2.4912  -2.4795  -2.4739  -0.3422   0.2572   3.7563
     3.7632   3.7714   4.4188   4.4573   4.4822   4.7610   4.7688   4.7775
     5.3260   5.9783   6.4293   6.5642   6.7626   7.0109   7.8137   7.8767
     8.1954   8.1980   8.2383   8.6029   8.6078   8.6592   8.6637   9.2042
     9.2707   9.2975  12.1693  12.4428  13.5612  14.0221  14.0562  14.4748
    14.8841  14.9237  15.1551  18.7447

     the Fermi energy is    10.8165 ev

!    total energy              =    -289.02274497 Ry
     estimated scf accuracy    <       0.00000057 Ry
     smearing contrib. (-TS)   =      -0.00000000 Ry
     internal energy E=F+TS    =    -289.02274497 Ry

     The total energy is F=E-TS. E is the sum of the following terms:
     one-electron contribution =     -55.30887624 Ry
     hartree contribution      =      95.33172440 Ry
     xc contribution           =    -107.66787945 Ry
     ewald contribution        =    -221.37771368 Ry

     convergence has been achieved in  19 iterations

     Forces acting on atoms (cartesian axes, Ry/au):

     atom    1 type  1   force =    -0.00382325    0.00150684   -0.01346905
     atom    2 type  1   force =     0.00711028   -0.00381551    0.01415058
     atom    3 type  1   force =    -0.00336759    0.00386018   -0.00150069
     atom    4 type  1   force =    -0.00301404    0.00242151   -0.04710110
     atom    5 type  1   force =     0.00230618   -0.00188383    0.06372608
     atom    6 type  1   force =     0.00304990   -0.00654148    0.00995941
     atom    7 type  1   force =     0.00210514   -0.00145020   -0.00492713
     atom    8 type  1   force =    -0.00459308    0.00215534    0.00607046
     atom    9 type  1   force =     0.00120605   -0.00478207   -0.00392454
     atom   10 type  1   force =     0.00317471   -0.00168306   -0.06688435
     atom   11 type  1   force =    -0.00433558    0.00287896    0.04574318
     atom   12 type  1   force =     0.00715481    0.00092761   -0.00141734
     atom   13 type  1   force =     0.00267275   -0.00167338   -0.00465861
     atom   14 type  1   force =    -0.00486987    0.00238784    0.00506937
     atom   15 type  1   force =    -0.00161045   -0.00284043   -0.00082810
     atom   16 type  1   force =     0.00340629   -0.00151793   -0.06689783
     atom   17 type  1   force =    -0.00418674    0.00301061    0.04569068
     atom   18 type  1   force =     0.00576133   -0.00073209   -0.00062993
     atom   19 type  1   force =    -0.00367415    0.00159118   -0.01352069
     atom   20 type  1   force =     0.00703789   -0.00380375    0.01419916
     atom   21 type  1   force =    -0.00571546    0.00120289   -0.00094125
     atom   22 type  1   force =    -0.00257521    0.00218981   -0.04744773
     atom   23 type  1   force =     0.00255083   -0.00199090    0.06374934
     atom   24 type  1   force =    -0.00133723   -0.00521990    0.00529952
     atom   25 type  2   force =     0.03401191   -0.00939218    0.00065223
     atom   26 type  2   force =    -0.03793605    0.01379292   -0.00015711
     atom   27 type  2   force =    -0.04080349    0.01654262   -0.00084759
     atom   28 type  2   force =     0.04029413   -0.00714162    0.00084302

     Total force =     0.182309     Total SCF correction =     0.002439


     Computing stress (Cartesian axis) and pressure

          total   stress  (Ry/bohr**3)                   (kbar)     P=     1147.47
   0.01069432   0.00002365   0.00002284         1573.19        3.48        3.36
   0.00002365   0.01079122  -0.00003234            3.48     1587.44       -4.76
   0.00002284  -0.00003234   0.00191557            3.36       -4.76      281.79

     Energy error            =      3.1E+00 Ry
     Gradient error          =      6.7E-02 Ry/Bohr
     Cell gradient error     =      1.6E+03 kbar

     number of scf cycles    =   2
     number of bfgs steps    =   1

     enthalpy           old  =    -285.9501778610 Ry
     enthalpy           new  =    -289.0227449732 Ry

     CASE: enthalpy          _new < enthalpy          _old

     new trust radius        =       0.4013697255 bohr
     new conv_thr            =       0.0000006690 Ry

     new unit-cell volume =   1214.62079 a.u.^3 (   179.98823 Ang^3 )
     density =      2.69666 g/cm^3

CELL_PARAMETERS (alat=  8.00000437)
   1.133777410   0.000638210   0.000354646
  -0.566335618   0.985889910  -0.000885198
   0.000738867  -0.001729606   2.121649841

ATOMIC_POSITIONS (crystal)
C               -0.0000002000        0.0000004638        0.1888811950    0   0   1
C                0.0000002101       -0.0000004873        0.4311660153    0   0   1
C               -0.0000000223        0.0000000517        0.8618729105    0   0   1
C                0.1666653005        0.3333346220        0.1861491823    0   0   1
C                0.3333339464        0.1666638055        0.4350686014    0   0   1
C                0.1666661479        0.3333326570        0.8626110514    0   0   1
C                0.4999999268        0.0000001697        0.1896235320    0   0   1
C                0.5000000901       -0.0000002090        0.4305746986    0   0   1
C                0.4999999417        0.0000001351        0.8615823201    0   0   1
C                0.6666650067        0.3333353032        0.1846011810    0   0   1
C                0.8333336793        0.1666644248        0.4338751812    0   0   1
C                0.6666659790        0.3333330488        0.8619704656    0   0   1
C               -0.0000000692        0.5000001604        0.1896438845    0   0   1
C                0.0000000753        0.4999998254        0.4304975900    0   0   1
C               -0.0000000123        0.5000000285        0.8617926050    0   0   1
C                0.1666650065        0.8333353037        0.1846000007    0   0   1
C                0.3333336785        0.6666644266        0.4338706664    0   0   1
C                0.1666659906        0.8333330217        0.8620250014    0   0   1
C                0.4999997992        0.5000004656        0.1888774486    0   0   1
C                0.5000002109        0.4999995110        0.4311685271    0   0   1
C                0.4999999860        0.5000000324        0.8619117582    0   0   1
C                0.6666652954        0.8333346339        0.1861245344    0   0   1
C                0.8333339467        0.6666638047        0.4350729526    0   0   1
C                0.6666660787        0.8333328175        0.8622822502    0   0   1
H                0.9004650829        1.1312626290        0.6797548160
H                0.7723562661        1.1890609834        0.6703414321
H                0.2643987011        0.6811219665        0.6703087968
H                0.3963560360        0.6285479508        0.6797511230



     Writing config-only to output data dir ../results/2h2_abs/2H2abs_C.save/ :
     XML data file
     NEW-OLD atomic charge density approx. for the potential

     Check: negative core charge=   -0.000002

     total cpu time spent up to now is      125.2 secs

     Self-consistent Calculation

     iteration #  1     ecut=    40.00 Ry     beta= 0.05
     Davidson diagonalization with overlap
     c_bands:  1 eigenvalues not converged
     ethr =  1.00E-06,  avg # of iterations = 20.0

     total cpu time spent up to now is      131.4 secs

     total energy              =    -289.83854756 Ry
     estimated scf accuracy    <       0.09273429 Ry

     iteration #  2     ecut=    40.00 Ry     beta= 0.05
     Davidson diagonalization with overlap
     ethr =  9.27E-05,  avg # of iterations =  1.0

     total cpu time spent up to now is      133.4 secs

     total energy              =    -289.78846784 Ry
     estimated scf accuracy    <       0.08677254 Ry

     iteration #  3     ecut=    40.00 Ry     beta= 0.05
     Davidson diagonalization with overlap
     ethr =  8.68E-05,  avg # of iterations =  2.0

     total cpu time spent up to now is      135.2 secs

     total energy              =    -289.80326711 Ry
     estimated scf accuracy    <       0.00264562 Ry

     iteration #  4     ecut=    40.00 Ry     beta= 0.05
     Davidson diagonalization with overlap
     c_bands:  1 eigenvalues not converged
     ethr =  2.65E-06,  avg # of iterations = 20.0

     total cpu time spent up to now is      138.2 secs

     total energy              =    -289.80465543 Ry
     estimated scf accuracy    <       0.00173255 Ry

     iteration #  5     ecut=    40.00 Ry     beta= 0.05
     Davidson diagonalization with overlap
     ethr =  1.73E-06,  avg # of iterations =  2.0

     total cpu time spent up to now is      139.9 secs

     total energy              =    -289.80399902 Ry
     estimated scf accuracy    <       0.00228430 Ry

     iteration #  6     ecut=    40.00 Ry     beta= 0.05
     Davidson diagonalization with overlap
     ethr =  1.73E-06,  avg # of iterations =  2.0

     total cpu time spent up to now is      141.6 secs

     total energy              =    -289.80410125 Ry
     estimated scf accuracy    <       0.00040515 Ry

     iteration #  7     ecut=    40.00 Ry     beta= 0.05
     Davidson diagonalization with overlap
     ethr =  4.05E-07,  avg # of iterations =  2.0

     total cpu time spent up to now is      143.2 secs

     total energy              =    -289.80409751 Ry
     estimated scf accuracy    <       0.00027299 Ry

     iteration #  8     ecut=    40.00 Ry     beta= 0.05
     Davidson diagonalization with overlap
     ethr =  2.73E-07,  avg # of iterations =  1.0

     total cpu time spent up to now is      144.7 secs

     total energy              =    -289.80406358 Ry
     estimated scf accuracy    <       0.00019303 Ry

     iteration #  9     ecut=    40.00 Ry     beta= 0.05
     Davidson diagonalization with overlap
     ethr =  1.93E-07,  avg # of iterations =  2.0

     total cpu time spent up to now is      146.7 secs

     total energy              =    -289.80407261 Ry
     estimated scf accuracy    <       0.00009047 Ry

     iteration # 10     ecut=    40.00 Ry     beta= 0.05
     Davidson diagonalization with overlap
     ethr =  9.05E-08,  avg # of iterations =  1.0

     total cpu time spent up to now is      148.2 secs

     total energy              =    -289.80407326 Ry
     estimated scf accuracy    <       0.00006855 Ry

     iteration # 11     ecut=    40.00 Ry     beta= 0.05
     Davidson diagonalization with overlap
     ethr =  6.85E-08,  avg # of iterations =  1.0

     total cpu time spent up to now is      149.8 secs

     total energy              =    -289.80405611 Ry
     estimated scf accuracy    <       0.00004833 Ry

     iteration # 12     ecut=    40.00 Ry     beta= 0.05
     Davidson diagonalization with overlap
     ethr =  4.83E-08,  avg # of iterations =  8.0

     total cpu time spent up to now is      151.5 secs

     total energy              =    -289.80406363 Ry
     estimated scf accuracy    <       0.00001287 Ry

     iteration # 13     ecut=    40.00 Ry     beta= 0.05
     Davidson diagonalization with overlap
     ethr =  1.29E-08,  avg # of iterations =  2.0

     total cpu time spent up to now is      153.1 secs

     total energy              =    -289.80406583 Ry
     estimated scf accuracy    <       0.00000886 Ry

     iteration # 14     ecut=    40.00 Ry     beta= 0.05
     Davidson diagonalization with overlap
     ethr =  8.86E-09,  avg # of iterations =  1.0

     total cpu time spent up to now is      154.6 secs

     total energy              =    -289.80406443 Ry
     estimated scf accuracy    <       0.00001052 Ry

     iteration # 15     ecut=    40.00 Ry     beta= 0.05
     Davidson diagonalization with overlap
     ethr =  8.86E-09,  avg # of iterations =  2.0

     total cpu time spent up to now is      156.2 secs

     total energy              =    -289.80406440 Ry
     estimated scf accuracy    <       0.00000427 Ry

     iteration # 16     ecut=    40.00 Ry     beta= 0.05
     Davidson diagonalization with overlap
     ethr =  4.27E-09,  avg # of iterations =  2.0

     total cpu time spent up to now is      157.9 secs

     total energy              =    -289.80406525 Ry
     estimated scf accuracy    <       0.00000143 Ry

     iteration # 17     ecut=    40.00 Ry     beta= 0.05
     Davidson diagonalization with overlap
     ethr =  1.43E-09,  avg # of iterations =  4.0

     total cpu time spent up to now is      159.8 secs

     total energy              =    -289.80406616 Ry
     estimated scf accuracy    <       0.00000148 Ry

     iteration # 18     ecut=    40.00 Ry     beta= 0.05
     Davidson diagonalization with overlap
     ethr =  1.43E-09,  avg # of iterations =  1.0

     total cpu time spent up to now is      161.3 secs

     total energy              =    -289.80406588 Ry
     estimated scf accuracy    <       0.00000119 Ry

     iteration # 19     ecut=    40.00 Ry     beta= 0.05
     Davidson diagonalization with overlap
     ethr =  1.19E-09,  avg # of iterations =  2.0

     total cpu time spent up to now is      163.3 secs

     End of self-consistent calculation

          k = 0.0000 0.0000 0.0000 (  3715 PWs)   bands (ev):

   -11.8995 -10.7983  -9.8766  -6.0004  -5.9455  -5.9257  -5.4695  -5.4294
    -5.4286  -5.1211  -5.0249  -4.9865  -4.6088  -4.4911  -4.4098  -4.1859
    -4.1475  -4.1427  -3.9278  -3.9176  -3.8960  -1.0718  -0.7087   2.2599
     2.2816   2.3484   2.6780   2.6849   2.7687   2.9576   2.9775   3.0423
     3.6456   4.1169   4.7146   5.0266   5.1990   5.2626   6.1271   6.1371
     6.1568   6.1724   6.3647   6.3903   6.4393   6.4537   6.4733   7.4231
     7.5063   7.5208  10.1278  10.3407  11.1394  11.5737  11.6201  11.8579
    12.2299  12.2699  12.5359  15.9663

     the Fermi energy is     8.7243 ev

!    total energy              =    -289.80407044 Ry
     estimated scf accuracy    <       0.00000010 Ry
     smearing contrib. (-TS)   =      -0.00000000 Ry
     internal energy E=F+TS    =    -289.80407044 Ry

     The total energy is F=E-TS. E is the sum of the following terms:
     one-electron contribution =     -68.52622934 Ry
     hartree contribution      =      94.37226451 Ry
     xc contribution           =    -104.50285810 Ry
     ewald contribution        =    -211.14724751 Ry

     convergence has been achieved in  19 iterations

     Forces acting on atoms (cartesian axes, Ry/au):

     atom    1 type  1   force =    -0.00354525    0.00579929   -0.00463731
     atom    2 type  1   force =     0.00676379   -0.00784775    0.00621812
     atom    3 type  1   force =    -0.00638514    0.01069295   -0.00183042
     atom    4 type  1   force =    -0.00070010   -0.00358048    0.00102111
     atom    5 type  1   force =     0.00035245    0.00371301    0.00866385
     atom    6 type  1   force =     0.00390672   -0.01122902    0.00308722
     atom    7 type  1   force =    -0.00049143    0.00470382   -0.00412629
     atom    8 type  1   force =    -0.00257482   -0.00311010   -0.00066073
     atom    9 type  1   force =    -0.00014017    0.00251655   -0.00167033
     atom   10 type  1   force =     0.00408348   -0.00724210   -0.01000343
     atom   11 type  1   force =    -0.00433454    0.00704445   -0.00107445
     atom   12 type  1   force =     0.00727041   -0.00570803   -0.00402139
     atom   13 type  1   force =    -0.00006930    0.00452230   -0.00381763
     atom   14 type  1   force =    -0.00285516   -0.00293292   -0.00111309
     atom   15 type  1   force =    -0.00182646    0.00361366   -0.00007138
     atom   16 type  1   force =     0.00432714   -0.00700440   -0.00997718
     atom   17 type  1   force =    -0.00414147    0.00724873   -0.00107344
     atom   18 type  1   force =     0.00629352   -0.00667796   -0.00375058
     atom   19 type  1   force =    -0.00345415    0.00580719   -0.00464322
     atom   20 type  1   force =     0.00675790   -0.00775632    0.00625928
     atom   21 type  1   force =    -0.00814336    0.00868583   -0.00173302
     atom   22 type  1   force =    -0.00046137   -0.00370465    0.00089234
     atom   23 type  1   force =     0.00048159    0.00366606    0.00861404
     atom   24 type  1   force =     0.00096060   -0.01038142    0.00059234
     atom   25 type  2   force =     0.00759089   -0.00128142    0.00373739
     atom   26 type  2   force =    -0.00978868    0.00424139    0.00576394
     atom   27 type  2   force =    -0.00909895    0.00576950    0.00574935
     atom   28 type  2   force =     0.00922186    0.00043184    0.00360492

     Total force =     0.032001     Total SCF correction =     0.001070


     Computing stress (Cartesian axis) and pressure

          total   stress  (Ry/bohr**3)                   (kbar)     P=      316.96
   0.00318624  -0.00001075   0.00000646          468.71       -1.58        0.95
  -0.00001075   0.00286051  -0.00001419           -1.58      420.80       -2.09
   0.00000646  -0.00001419   0.00041723            0.95       -2.09       61.38

     Energy error            =      7.8E-01 Ry
     Gradient error          =      1.0E-02 Ry/Bohr
     Cell gradient error     =      4.7E+02 kbar

     number of scf cycles    =   3
     number of bfgs steps    =   2

     enthalpy           old  =    -289.0227449732 Ry
     enthalpy           new  =    -289.8040704376 Ry

     CASE: enthalpy          _new < enthalpy          _old

     new trust radius        =       0.1864917825 bohr
     new conv_thr            =       0.0000001000 Ry

     new unit-cell volume =   1292.07073 a.u.^3 (   191.46513 Ang^3 )
     density =      2.53502 g/cm^3

CELL_PARAMETERS (alat=  8.00000437)
   1.164105910   0.000073029   0.000442961
  -0.581994303   1.000708100  -0.001372225
   0.000874380  -0.002685116   2.166209956

ATOMIC_POSITIONS (crystal)
C               -0.0000001382        0.0000013267        0.1883385631    0   0   1
C                0.0000001170       -0.0000016206        0.4318599697    0   0   1
C                0.0000000121        0.0000003691        0.8616849715    0   0   1
C                0.1666651559        0.3333347359        0.1859411480    0   0   1
C                0.3333339318        0.1666619593        0.4362338843    0   0   1
C                0.1666661094        0.3333320766        0.8628566160    0   0   1
C                0.5000000003        0.0000008946        0.1892104432    0   0   1
C                0.5000001199       -0.0000001346        0.4305952744    0   0   1
C                0.4999999664        0.0000004403        0.8613414771    0   0   1
C                0.6666650411        0.3333373942        0.1832458815    0   0   1
C                0.8333338215        0.1666643281        0.4341462047    0   0   1
C                0.6666660594        0.3333337348        0.8616243376    0   0   1
C               -0.0000000015        0.5000008318        0.1892612565    0   0   1
C                0.0000001118        0.4999999822        0.4304709343    0   0   1
C               -0.0000000130        0.5000000456        0.8617009916    0   0   1
C                0.1666650403        0.8333373904        0.1832470884    0   0   1
C                0.3333338206        0.6666643301        0.4341413192    0   0   1
C                0.1666660675        0.8333336573        0.8617043910    0   0   1
C                0.4999998610        0.5000013298        0.1883341840    0   0   1
C                0.5000001170        0.4999983705        0.4318659182    0   0   1
C                0.5000000198        0.5000003301        0.8617328878    0   0   1
C                0.6666651525        0.8333347716        0.1859039853    0   0   1
C                0.8333339333        0.6666619668        0.4362349981    0   0   1
C                0.6666660802        0.8333326856        0.8622877207    0   0   1
H                0.8996685993        1.1320391728        0.6799482319
H                0.7730722294        1.1890121824        0.6710946314
H                0.2655674168        0.6814773032        0.6710695806
H                0.3959483863        0.6296665365        0.6799219958



     Writing config-only to output data dir ../results/2h2_abs/2H2abs_C.save/ :
     XML data file
     NEW-OLD atomic charge density approx. for the potential

     Check: negative core charge=   -0.000004

     total cpu time spent up to now is      167.1 secs

     Self-consistent Calculation

     iteration #  1     ecut=    40.00 Ry     beta= 0.05
     Davidson diagonalization with overlap
     ethr =  1.00E-06,  avg # of iterations =  9.0

     total cpu time spent up to now is      171.1 secs

     total energy              =    -289.90337830 Ry
     estimated scf accuracy    <       0.01547975 Ry

     iteration #  2     ecut=    40.00 Ry     beta= 0.05
     Davidson diagonalization with overlap
     ethr =  1.55E-05,  avg # of iterations =  1.0

     total cpu time spent up to now is      173.1 secs

     total energy              =    -289.89494127 Ry
     estimated scf accuracy    <       0.01441518 Ry

     iteration #  3     ecut=    40.00 Ry     beta= 0.05
     Davidson diagonalization with overlap
     ethr =  1.44E-05,  avg # of iterations =  2.0

     total cpu time spent up to now is      174.9 secs

     total energy              =    -289.89705882 Ry
     estimated scf accuracy    <       0.00045799 Ry

     iteration #  4     ecut=    40.00 Ry     beta= 0.05
     Davidson diagonalization with overlap
     ethr =  4.58E-07,  avg # of iterations = 12.0

     total cpu time spent up to now is      177.8 secs

     total energy              =    -289.89731408 Ry
     estimated scf accuracy    <       0.00035916 Ry

     iteration #  5     ecut=    40.00 Ry     beta= 0.05
     Davidson diagonalization with overlap
     ethr =  3.59E-07,  avg # of iterations =  3.0

     total cpu time spent up to now is      179.6 secs

     total energy              =    -289.89725807 Ry
     estimated scf accuracy    <       0.00046826 Ry

     iteration #  6     ecut=    40.00 Ry     beta= 0.05
     Davidson diagonalization with overlap
     ethr =  3.59E-07,  avg # of iterations =  2.0

     total cpu time spent up to now is      181.6 secs

     total energy              =    -289.89722519 Ry
     estimated scf accuracy    <       0.00017412 Ry

     iteration #  7     ecut=    40.00 Ry     beta= 0.05
     Davidson diagonalization with overlap
     ethr =  1.74E-07,  avg # of iterations =  1.0

     total cpu time spent up to now is      183.1 secs

     total energy              =    -289.89722312 Ry
     estimated scf accuracy    <       0.00007183 Ry

     iteration #  8     ecut=    40.00 Ry     beta= 0.05
     Davidson diagonalization with overlap
     ethr =  7.18E-08,  avg # of iterations =  2.0

     total cpu time spent up to now is      185.2 secs

     total energy              =    -289.89722027 Ry
     estimated scf accuracy    <       0.00004447 Ry

     iteration #  9     ecut=    40.00 Ry     beta= 0.05
     Davidson diagonalization with overlap
     ethr =  4.45E-08,  avg # of iterations =  2.0

     total cpu time spent up to now is      186.9 secs

     total energy              =    -289.89721724 Ry
     estimated scf accuracy    <       0.00002363 Ry

     iteration # 10     ecut=    40.00 Ry     beta= 0.05
     Davidson diagonalization with overlap
     ethr =  2.36E-08,  avg # of iterations =  4.0

     total cpu time spent up to now is      189.1 secs

     total energy              =    -289.89722077 Ry
     estimated scf accuracy    <       0.00001117 Ry

     iteration # 11     ecut=    40.00 Ry     beta= 0.05
     Davidson diagonalization with overlap
     ethr =  1.12E-08,  avg # of iterations =  1.0

     total cpu time spent up to now is      190.6 secs

     total energy              =    -289.89721963 Ry
     estimated scf accuracy    <       0.00000998 Ry

     iteration # 12     ecut=    40.00 Ry     beta= 0.05
     Davidson diagonalization with overlap
     ethr =  9.98E-09,  avg # of iterations =  2.0

     total cpu time spent up to now is      192.8 secs

     total energy              =    -289.89722032 Ry
     estimated scf accuracy    <       0.00000721 Ry

     iteration # 13     ecut=    40.00 Ry     beta= 0.05
     Davidson diagonalization with overlap
     ethr =  7.21E-09,  avg # of iterations =  1.0

     total cpu time spent up to now is      194.3 secs

     total energy              =    -289.89721905 Ry
     estimated scf accuracy    <       0.00000556 Ry

     iteration # 14     ecut=    40.00 Ry     beta= 0.05
     Davidson diagonalization with overlap
     ethr =  5.56E-09,  avg # of iterations =  2.0

     total cpu time spent up to now is      196.4 secs

     total energy              =    -289.89721872 Ry
     estimated scf accuracy    <       0.00000222 Ry

     iteration # 15     ecut=    40.00 Ry     beta= 0.05
     Davidson diagonalization with overlap
     ethr =  2.22E-09,  avg # of iterations =  2.0

     total cpu time spent up to now is      198.2 secs

     total energy              =    -289.89721910 Ry
     estimated scf accuracy    <       0.00000043 Ry

     iteration # 16     ecut=    40.00 Ry     beta= 0.05
     Davidson diagonalization with overlap
     ethr =  4.29E-10,  avg # of iterations =  3.0

     total cpu time spent up to now is      200.3 secs

     total energy              =    -289.89721931 Ry
     estimated scf accuracy    <       0.00000024 Ry

     iteration # 17     ecut=    40.00 Ry     beta= 0.05
     Davidson diagonalization with overlap
     ethr =  2.44E-10,  avg # of iterations =  2.0

     total cpu time spent up to now is      202.5 secs

     total energy              =    -289.89721934 Ry
     estimated scf accuracy    <       0.00000020 Ry

     iteration # 18     ecut=    40.00 Ry     beta= 0.05
     Davidson diagonalization with overlap
     ethr =  2.02E-10,  avg # of iterations =  2.0

     total cpu time spent up to now is      204.1 secs

     End of self-consistent calculation

          k = 0.0000 0.0000 0.0000 (  3715 PWs)   bands (ev):

   -12.0353 -11.0766 -10.2231  -6.4187  -6.4140  -6.3200  -5.8653  -5.8650
    -5.7879  -5.6628  -5.6530  -5.4977  -4.9873  -4.8691  -4.8112  -4.6772
    -4.6724  -4.6344  -4.3678  -4.3560  -4.3414  -1.3141  -1.0325   1.6629
     1.7883   1.7885   2.0078   2.1363   2.1386   2.2934   2.4114   2.4128
     3.0652   3.5354   4.0824   4.4916   4.6275   4.6813   5.3514   5.3893
     5.4695   5.5408   5.5552   5.5719   5.6505   5.6771   5.8538   6.7572
     6.7791   6.8960   9.3637   9.5649  10.2657  10.6879  10.7477  10.9060
    11.2982  11.3099  11.5720  14.9435

     the Fermi energy is     7.9509 ev

!    total energy              =    -289.89722018 Ry
     estimated scf accuracy    <       0.00000006 Ry
     smearing contrib. (-TS)   =      -0.00000000 Ry
     internal energy E=F+TS    =    -289.89722018 Ry

     The total energy is F=E-TS. E is the sum of the following terms:
     one-electron contribution =     -72.76492611 Ry
     hartree contribution      =      93.70487717 Ry
     xc contribution           =    -103.22991246 Ry
     ewald contribution        =    -207.60725877 Ry

     convergence has been achieved in  18 iterations

     Forces acting on atoms (cartesian axes, Ry/au):

     atom    1 type  1   force =    -0.00153242   -0.00550209   -0.00280380
     atom    2 type  1   force =     0.00497409    0.00305374    0.00523196
     atom    3 type  1   force =    -0.00532863   -0.00368494   -0.00127942
     atom    4 type  1   force =    -0.00100767    0.00674911    0.00681619
     atom    5 type  1   force =     0.00105654   -0.00655321   -0.00277586
     atom    6 type  1   force =     0.00277720    0.00337710    0.00000695
     atom    7 type  1   force =    -0.00026510   -0.00583795   -0.00485619
     atom    8 type  1   force =    -0.00330989    0.00776581   -0.00007944
     atom    9 type  1   force =     0.00059712   -0.01060687   -0.00060425
     atom   10 type  1   force =     0.00247370    0.00409208    0.00227303
     atom   11 type  1   force =    -0.00258945   -0.00438127   -0.00778178
     atom   12 type  1   force =     0.00545294    0.00816783   -0.00381505
     atom   13 type  1   force =     0.00010439   -0.00600370   -0.00460807
     atom   14 type  1   force =    -0.00359647    0.00792875   -0.00023832
     atom   15 type  1   force =    -0.00060242   -0.00973880    0.00027783
     atom   16 type  1   force =     0.00272300    0.00436817    0.00227861
     atom   17 type  1   force =    -0.00237022   -0.00411048   -0.00778078
     atom   18 type  1   force =     0.00470782    0.00749641   -0.00377921
     atom   19 type  1   force =    -0.00149496   -0.00556975   -0.00280667
     atom   20 type  1   force =     0.00499903    0.00317729    0.00523567
     atom   21 type  1   force =    -0.00678562   -0.00533273   -0.00120919
     atom   22 type  1   force =    -0.00088124    0.00668323    0.00677642
     atom   23 type  1   force =     0.00112509   -0.00657278   -0.00286355
     atom   24 type  1   force =     0.00040285    0.00397973   -0.00105397
     atom   25 type  2   force =    -0.00304879    0.00151491    0.00317271
     atom   26 type  2   force =     0.00131459    0.00078301    0.00659504
     atom   27 type  2   force =     0.00189867    0.00217217    0.00659267
     atom   28 type  2   force =    -0.00179414    0.00258525    0.00307848

     Total force =     0.022963     Total SCF correction =     0.000550


     Computing stress (Cartesian axis) and pressure

          total   stress  (Ry/bohr**3)                   (kbar)     P=       51.69
   0.00012746   0.00004212   0.00000193           18.75        6.20        0.28
   0.00004212   0.00088627  -0.00001449            6.20      130.37       -2.13
   0.00000193  -0.00001449   0.00004034            0.28       -2.13        5.93

     Energy error            =      9.3E-02 Ry
     Gradient error          =      7.8E-03 Ry/Bohr
     Cell gradient error     =      1.3E+02 kbar

     number of scf cycles    =   4
     number of bfgs steps    =   3

     enthalpy           old  =    -289.8040704376 Ry
     enthalpy           new  =    -289.8972201774 Ry

     CASE: enthalpy          _new < enthalpy          _old

     new trust radius        =       0.1231896337 bohr
     new conv_thr            =       0.0000000778 Ry

     new unit-cell volume =   1313.49411 a.u.^3 (   194.63975 Ang^3 )
     density =      2.49367 g/cm^3

CELL_PARAMETERS (alat=  8.00000437)
   1.158015449   0.001507004   0.000499109
  -0.577696893   1.017088136  -0.001914187
   0.000990793  -0.003845371   2.176531510

ATOMIC_POSITIONS (crystal)
C               -0.0000000012        0.0000020919        0.1880232774    0   0   1
C               -0.0000001382       -0.0000029662        0.4323910961    0   0   1
C                0.0000000769        0.0000007032        0.8615530241    0   0   1
C                0.1666648009        0.3333332763        0.1864252962    0   0   1
C                0.3333340776        0.1666622412        0.4362180655    0   0   1
C                0.1666661058        0.3333319771        0.8628857914    0   0   1
C                0.5000002376        0.0000020868        0.1887603471    0   0   1
C                0.5000001300       -0.0000001093        0.4306009230    0   0   1
C                0.4999999974        0.0000006247        0.8612467497    0   0   1
C                0.6666649210        0.3333372642        0.1831851863    0   0   1
C                0.8333342209        0.1666660050        0.4336047051    0   0   1
C                0.6666662501        0.3333346880        0.8612733448    0   0   1
C                0.0000002234        0.5000019604        0.1888356177    0   0   1
C                0.0000001302        0.5000000562        0.4304564288    0   0   1
C               -0.0000000263        0.4999999873        0.8616979775    0   0   1
C                0.1666649198        0.8333372585        0.1831871982    0   0   1
C                0.3333342199        0.6666660068        0.4335997982    0   0   1
C                0.1666662561        0.8333345941        0.8613599151    0   0   1
C                0.4999999981        0.5000020959        0.1880185807    0   0   1
C                0.4999998615        0.4999970229        0.4323977958    0   0   1
C                0.5000000814        0.5000006451        0.8616076998    0   0   1
C                0.6666647995        0.8333333248        0.1863831160    0   0   1
C                0.8333340833        0.6666622693        0.4362119147    0   0   1
C                0.6666661312        0.8333328946        0.8621966469    0   0   1
H                0.8988750441        1.1325987161        0.6802081650
H                0.7737858127        1.1890079209        0.6717612817
H                0.2666021253        0.6818074725        0.6717385257
H                0.3955057325        0.6304762327        0.6801695357



     Writing config-only to output data dir ../results/2h2_abs/2H2abs_C.save/ :
     XML data file
     NEW-OLD atomic charge density approx. for the potential

     Check: negative core charge=   -0.000004

     total cpu time spent up to now is      209.0 secs

     Self-consistent Calculation

     iteration #  1     ecut=    40.00 Ry     beta= 0.05
     Davidson diagonalization with overlap
     ethr =  1.00E-06,  avg # of iterations = 15.0

     total cpu time spent up to now is      213.6 secs

     total energy              =    -289.89845327 Ry
     estimated scf accuracy    <       0.00292019 Ry

     iteration #  2     ecut=    40.00 Ry     beta= 0.05
     Davidson diagonalization with overlap
     ethr =  2.92E-06,  avg # of iterations =  1.0

     total cpu time spent up to now is      215.6 secs

     total energy              =    -289.89675463 Ry
     estimated scf accuracy    <       0.00278009 Ry

     iteration #  3     ecut=    40.00 Ry     beta= 0.05
     Davidson diagonalization with overlap
     ethr =  2.78E-06,  avg # of iterations =  2.0

     total cpu time spent up to now is      218.0 secs

     total energy              =    -289.89726751 Ry
     estimated scf accuracy    <       0.00025081 Ry

     iteration #  4     ecut=    40.00 Ry     beta= 0.05
     Davidson diagonalization with overlap
     ethr =  2.51E-07,  avg # of iterations =  2.0

     total cpu time spent up to now is      219.7 secs

     total energy              =    -289.89729913 Ry
     estimated scf accuracy    <       0.00004403 Ry

     iteration #  5     ecut=    40.00 Ry     beta= 0.05
     Davidson diagonalization with overlap
     ethr =  4.40E-08,  avg # of iterations =  2.0

     total cpu time spent up to now is      222.0 secs

     total energy              =    -289.89728546 Ry
     estimated scf accuracy    <       0.00004456 Ry

     iteration #  6     ecut=    40.00 Ry     beta= 0.05
     Davidson diagonalization with overlap
     ethr =  4.40E-08,  avg # of iterations =  2.0

     total cpu time spent up to now is      224.2 secs

     total energy              =    -289.89729095 Ry
     estimated scf accuracy    <       0.00000376 Ry

     iteration #  7     ecut=    40.00 Ry     beta= 0.05
     Davidson diagonalization with overlap
     ethr =  3.76E-09,  avg # of iterations =  4.0

     total cpu time spent up to now is      226.1 secs

     total energy              =    -289.89729176 Ry
     estimated scf accuracy    <       0.00000317 Ry

     iteration #  8     ecut=    40.00 Ry     beta= 0.05
     Davidson diagonalization with overlap
     ethr =  3.17E-09,  avg # of iterations =  1.0

     total cpu time spent up to now is      228.2 secs

     total energy              =    -289.89729096 Ry
     estimated scf accuracy    <       0.00000315 Ry

     iteration #  9     ecut=    40.00 Ry     beta= 0.05
     Davidson diagonalization with overlap
     ethr =  3.15E-09,  avg # of iterations =  2.0

     total cpu time spent up to now is      229.8 secs

     total energy              =    -289.89729100 Ry
     estimated scf accuracy    <       0.00000087 Ry

     iteration # 10     ecut=    40.00 Ry     beta= 0.05
     Davidson diagonalization with overlap
     ethr =  8.73E-10,  avg # of iterations =  2.0

     total cpu time spent up to now is      232.1 secs

     total energy              =    -289.89729124 Ry
     estimated scf accuracy    <       0.00000069 Ry

     iteration # 11     ecut=    40.00 Ry     beta= 0.05
     Davidson diagonalization with overlap
     ethr =  6.89E-10,  avg # of iterations =  1.0

     total cpu time spent up to now is      233.6 secs

     total energy              =    -289.89729116 Ry
     estimated scf accuracy    <       0.00000059 Ry

     iteration # 12     ecut=    40.00 Ry     beta= 0.05
     Davidson diagonalization with overlap
     ethr =  5.87E-10,  avg # of iterations =  2.0

     total cpu time spent up to now is      235.8 secs

     total energy              =    -289.89729130 Ry
     estimated scf accuracy    <       0.00000013 Ry

     iteration # 13     ecut=    40.00 Ry     beta= 0.05
     Davidson diagonalization with overlap
     ethr =  1.30E-10,  avg # of iterations =  2.0

     total cpu time spent up to now is      237.4 secs

     total energy              =    -289.89729127 Ry
     estimated scf accuracy    <       0.00000011 Ry

     iteration # 14     ecut=    40.00 Ry     beta= 0.05
     Davidson diagonalization with overlap
     ethr =  1.12E-10,  avg # of iterations =  1.0

     total cpu time spent up to now is      239.5 secs

     total energy              =    -289.89729129 Ry
     estimated scf accuracy    <       0.00000009 Ry

     iteration # 15     ecut=    40.00 Ry     beta= 0.05
     Davidson diagonalization with overlap
     ethr =  8.77E-11,  avg # of iterations =  2.0

     total cpu time spent up to now is      241.0 secs

     End of self-consistent calculation

          k = 0.0000 0.0000 0.0000 (  3715 PWs)   bands (ev):

   -12.0669 -11.1507 -10.2947  -6.6389  -6.4481  -6.4036  -6.0516  -5.9305
    -5.8883  -5.8718  -5.6901  -5.6717  -5.0815  -4.9906  -4.9138  -4.8133
    -4.7520  -4.7461  -4.4672  -4.4647  -4.4308  -1.3695  -1.1303   1.5038
     1.5506   1.7662   1.8310   1.8701   2.0860   2.1233   2.1679   2.3728
     2.8127   3.4085   3.9428   4.2848   4.5099   4.5638   5.1486   5.2039
     5.3129   5.3599   5.3768   5.4143   5.4318   5.4885   5.5863   6.5268
     6.6706   6.6882   9.1603   9.3505  10.0173  10.4650  10.5191  10.7089
    11.0187  11.0824  11.3424  14.3838

     the Fermi energy is     8.4514 ev

!    total energy              =    -289.89729137 Ry
     estimated scf accuracy    <       0.00000005 Ry
     smearing contrib. (-TS)   =      -0.00000000 Ry
     internal energy E=F+TS    =    -289.89729137 Ry

     The total energy is F=E-TS. E is the sum of the following terms:
     one-electron contribution =     -73.75786896 Ry
     hartree contribution      =      93.47498889 Ry
     xc contribution           =    -102.89579767 Ry
     ewald contribution        =    -206.71861363 Ry

     convergence has been achieved in  15 iterations

     Forces acting on atoms (cartesian axes, Ry/au):

     atom    1 type  1   force =    -0.00328429    0.01194025    0.00022239
     atom    2 type  1   force =     0.00699243   -0.01407340    0.00215518
     atom    3 type  1   force =    -0.00715642    0.01937946   -0.00073595
     atom    4 type  1   force =     0.00163264   -0.01139870    0.00345666
     atom    5 type  1   force =    -0.00131276    0.01102590   -0.00133654
     atom    6 type  1   force =     0.00517302   -0.01947490   -0.00057334
     atom    7 type  1   force =    -0.00247621    0.01242817   -0.00186701
     atom    8 type  1   force =    -0.00140504   -0.00996114   -0.00191469
     atom    9 type  1   force =    -0.00215602    0.01303790   -0.00103734
     atom   10 type  1   force =     0.00388673   -0.01413971    0.00128573
     atom   11 type  1   force =    -0.00421329    0.01322128   -0.00527378
     atom   12 type  1   force =     0.00734338   -0.01510452   -0.00230868
     atom   13 type  1   force =    -0.00212682    0.01227697   -0.00170641
     atom   14 type  1   force =    -0.00168626   -0.00979538   -0.00194616
     atom   15 type  1   force =    -0.00315036    0.01375074   -0.00062083
     atom   16 type  1   force =     0.00414765   -0.01384356    0.00129938
     atom   17 type  1   force =    -0.00396440    0.01353170   -0.00527080
     atom   18 type  1   force =     0.00668469   -0.01565572   -0.00221870
     atom   19 type  1   force =    -0.00327758    0.01182946    0.00020720
     atom   20 type  1   force =     0.00702365   -0.01392403    0.00217516
     atom   21 type  1   force =    -0.00850520    0.01788032   -0.00083508
     atom   22 type  1   force =     0.00170296   -0.01143675    0.00345210
     atom   23 type  1   force =    -0.00128441    0.01103100   -0.00140152
     atom   24 type  1   force =     0.00301047   -0.01905504   -0.00091754
     atom   25 type  2   force =     0.00895720   -0.00165175    0.00339344
     atom   26 type  2   force =    -0.01052816    0.00391044    0.00447508
     atom   27 type  2   force =    -0.01007541    0.00474039    0.00453139
     atom   28 type  2   force =     0.01004782   -0.00046939    0.00331064

     Total force =     0.024926     Total SCF correction =     0.000467


     Computing stress (Cartesian axis) and pressure

          total   stress  (Ry/bohr**3)                   (kbar)     P=      -13.23
   0.00046898  -0.00007722   0.00000345           68.99      -11.36        0.51
  -0.00007722  -0.00071750   0.00000314          -11.36     -105.55        0.46
   0.00000345   0.00000314  -0.00002134            0.51        0.46       -3.14

     Energy error            =      7.1E-05 Ry
     Gradient error          =      1.1E-02 Ry/Bohr
     Cell gradient error     =      1.1E+02 kbar

     number of scf cycles    =   5
     number of bfgs steps    =   4

     enthalpy           old  =    -289.8972201774 Ry
     enthalpy           new  =    -289.8972913683 Ry

     CASE: enthalpy          _new > enthalpy          _old

     new trust radius        =       0.0612746213 bohr
     new conv_thr            =       0.0000000778 Ry

     new unit-cell volume =   1302.83232 a.u.^3 (   193.05983 Ang^3 )
     density =      2.51408 g/cm^3

CELL_PARAMETERS (alat=  8.00000437)
   1.161049742   0.000792592   0.000471136
  -0.579837880   1.008927535  -0.001644179
   0.000932796  -0.003267327   2.171389269

ATOMIC_POSITIONS (crystal)
C               -0.0000000695        0.0000017107        0.1881803540    0   0   1
C               -0.0000000111       -0.0000022958        0.4321264868    0   0   1
C                0.0000000446        0.0000005368        0.8616187608    0   0   1
C                0.1666649777        0.3333340035        0.1861840916    0   0   1
C                0.3333340050        0.1666621008        0.4362259465    0   0   1
C                0.1666661076        0.3333320267        0.8628712561    0   0   1
C                0.5000001194        0.0000014928        0.1889845868    0   0   1
C                0.5000001249       -0.0000001219        0.4305981088    0   0   1
C                0.4999999820        0.0000005328        0.8612939433    0   0   1
C                0.6666649808        0.3333373290        0.1832154249    0   0   1
C                0.8333340219        0.1666651696        0.4338744824    0   0   1
C                0.6666661551        0.3333342131        0.8614482109    0   0   1
C                0.0000001113        0.5000013981        0.1890476727    0   0   1
C                0.0000001211        0.5000000193        0.4304636555    0   0   1
C               -0.0000000197        0.5000000163        0.8616994792    0   0   1
C                0.1666649798        0.8333373242        0.1832170357    0   0   1
C                0.3333340210        0.6666651715        0.4338695862    0   0   1
C                0.1666661622        0.8333341274        0.8615315344    0   0   1
C                0.4999999298        0.5000017142        0.1881758155    0   0   1
C                0.4999999888        0.4999976943        0.4321328122    0   0   1
C                0.5000000507        0.5000004881        0.8616700690    0   0   1
C                0.6666649754        0.8333340456        0.1861444111    0   0   1
C                0.8333340086        0.6666621186        0.4362234150    0   0   1
C                0.6666661058        0.8333327904        0.8622420203    0   0   1
H                0.8992703966        1.1323199493        0.6800786653
H                0.7734303026        1.1890100440        0.6714291537
H                0.2660866293        0.6816429808        0.6714052545
H                0.3957262644        0.6300728388        0.6800462103



     Writing config-only to output data dir ../results/2h2_abs/2H2abs_C.save/ :
     XML data file
     NEW-OLD atomic charge density approx. for the potential

     Check: negative core charge=   -0.000004

     total cpu time spent up to now is      245.3 secs

     Self-consistent Calculation

     iteration #  1     ecut=    40.00 Ry     beta= 0.05
     Davidson diagonalization with overlap
     ethr =  1.00E-06,  avg # of iterations =  7.0

     total cpu time spent up to now is      249.0 secs

     total energy              =    -289.90242841 Ry
     estimated scf accuracy    <       0.00067903 Ry

     iteration #  2     ecut=    40.00 Ry     beta= 0.05
     Davidson diagonalization with overlap
     ethr =  6.79E-07,  avg # of iterations =  8.0

     total cpu time spent up to now is      251.2 secs

     total energy              =    -289.90218751 Ry
     estimated scf accuracy    <       0.00066492 Ry

     iteration #  3     ecut=    40.00 Ry     beta= 0.05
     Davidson diagonalization with overlap
     ethr =  6.65E-07,  avg # of iterations =  1.0

     total cpu time spent up to now is      252.7 secs

     total energy              =    -289.90212042 Ry
     estimated scf accuracy    <       0.00016460 Ry

     iteration #  4     ecut=    40.00 Ry     beta= 0.05
     Davidson diagonalization with overlap
     ethr =  1.65E-07,  avg # of iterations =  3.0

     total cpu time spent up to now is      255.0 secs

     total energy              =    -289.90216580 Ry
     estimated scf accuracy    <       0.00001216 Ry

     iteration #  5     ecut=    40.00 Ry     beta= 0.05
     Davidson diagonalization with overlap
     ethr =  1.22E-08,  avg # of iterations =  3.0

     total cpu time spent up to now is      257.0 secs

     total energy              =    -289.90216707 Ry
     estimated scf accuracy    <       0.00001763 Ry

     iteration #  6     ecut=    40.00 Ry     beta= 0.05
     Davidson diagonalization with overlap
     ethr =  1.22E-08,  avg # of iterations =  1.0

     total cpu time spent up to now is      258.5 secs

     total energy              =    -289.90215892 Ry
     estimated scf accuracy    <       0.00001510 Ry

     iteration #  7     ecut=    40.00 Ry     beta= 0.05
     Davidson diagonalization with overlap
     ethr =  1.22E-08,  avg # of iterations =  2.0

     total cpu time spent up to now is      260.8 secs

     total energy              =    -289.90216150 Ry
     estimated scf accuracy    <       0.00000109 Ry

     iteration #  8     ecut=    40.00 Ry     beta= 0.05
     Davidson diagonalization with overlap
     ethr =  1.09E-09,  avg # of iterations =  2.0

     total cpu time spent up to now is      262.5 secs

     total energy              =    -289.90216119 Ry
     estimated scf accuracy    <       0.00000153 Ry

     iteration #  9     ecut=    40.00 Ry     beta= 0.05
     Davidson diagonalization with overlap
     ethr =  1.09E-09,  avg # of iterations =  2.0

     total cpu time spent up to now is      264.7 secs

     total energy              =    -289.90216130 Ry
     estimated scf accuracy    <       0.00000029 Ry

     iteration # 10     ecut=    40.00 Ry     beta= 0.05
     Davidson diagonalization with overlap
     ethr =  2.93E-10,  avg # of iterations =  3.0

     total cpu time spent up to now is      266.4 secs

     total energy              =    -289.90216135 Ry
     estimated scf accuracy    <       0.00000015 Ry

     iteration # 11     ecut=    40.00 Ry     beta= 0.05
     Davidson diagonalization with overlap
     ethr =  1.46E-10,  avg # of iterations =  2.0

     total cpu time spent up to now is      268.4 secs

     total energy              =    -289.90216140 Ry
     estimated scf accuracy    <       0.00000012 Ry

     iteration # 12     ecut=    40.00 Ry     beta= 0.05
     Davidson diagonalization with overlap
     ethr =  1.22E-10,  avg # of iterations =  2.0

     total cpu time spent up to now is      270.0 secs

     End of self-consistent calculation

          k = 0.0000 0.0000 0.0000 (  3715 PWs)   bands (ev):

   -12.0520 -11.1124 -10.2598  -6.4817  -6.4342  -6.4097  -5.9163  -5.8882
    -5.8771  -5.7393  -5.6614  -5.6328  -5.0328  -4.9288  -4.8610  -4.7450
    -4.7111  -4.7053  -4.4165  -4.4131  -4.3905  -1.3425  -1.0808   1.6415
     1.6651   1.7138   1.9814   1.9910   2.0595   2.2630   2.2846   2.3337
     2.9388   3.4717   4.0147   4.4063   4.5730   4.5932   5.2675   5.2741
     5.4389   5.4464   5.4590   5.4711   5.5515   5.5655   5.7033   6.6651
     6.7324   6.7563   9.2617   9.4574  10.1404  10.5752  10.6319  10.8076
    11.1625  11.1893  11.4535  14.6700

     the Fermi energy is     7.7497 ev

!    total energy              =    -289.90216145 Ry
     estimated scf accuracy    <       0.00000007 Ry
     smearing contrib. (-TS)   =      -0.00000000 Ry
     internal energy E=F+TS    =    -289.90216145 Ry

     The total energy is F=E-TS. E is the sum of the following terms:
     one-electron contribution =     -73.26227835 Ry
     hartree contribution      =      93.58569473 Ry
     xc contribution           =    -103.06063106 Ry
     ewald contribution        =    -207.16494678 Ry

     convergence has been achieved in  12 iterations

     Forces acting on atoms (cartesian axes, Ry/au):

     atom    1 type  1   force =    -0.00239911    0.00374683   -0.00133333
     atom    2 type  1   force =     0.00599728   -0.00602379    0.00372551
     atom    3 type  1   force =    -0.00621932    0.00849904   -0.00099559
     atom    4 type  1   force =     0.00030714   -0.00287945    0.00516972
     atom    5 type  1   force =    -0.00013901    0.00277032   -0.00210668
     atom    6 type  1   force =     0.00395203   -0.00869849   -0.00029951
     atom    7 type  1   force =    -0.00137962    0.00383110   -0.00339954
     atom    8 type  1   force =    -0.00236451   -0.00163711   -0.00095149
     atom    9 type  1   force =    -0.00076478    0.00187055   -0.00081007
     atom   10 type  1   force =     0.00318001   -0.00558319    0.00183031
     atom   11 type  1   force =    -0.00339050    0.00497633   -0.00655008
     atom   12 type  1   force =     0.00638050   -0.00411573   -0.00306257
     atom   13 type  1   force =    -0.00102041    0.00367450   -0.00319396
     atom   14 type  1   force =    -0.00264824   -0.00147223   -0.00104476
     atom   15 type  1   force =    -0.00185663    0.00265588   -0.00016319
     atom   16 type  1   force =     0.00343696   -0.00529636    0.00183913
     atom   17 type  1   force =    -0.00315691    0.00526772   -0.00655028
     atom   18 type  1   force =     0.00567668   -0.00472656   -0.00300493
     atom   19 type  1   force =    -0.00237777    0.00365708   -0.00134149
     atom   20 type  1   force =     0.00602571   -0.00588596    0.00373646
     atom   21 type  1   force =    -0.00762613    0.00692476   -0.00100839
     atom   22 type  1   force =     0.00040588   -0.00293026    0.00514868
     atom   23 type  1   force =    -0.00009044    0.00276332   -0.00218284
     atom   24 type  1   force =     0.00168671   -0.00819168   -0.00099888
     atom   25 type  2   force =     0.00288845   -0.00001257    0.00327101
     atom   26 type  2   force =    -0.00454027    0.00229925    0.00553328
[...]

     total cpu time spent up to now is      694.1 secs

     total energy              =    -290.03079856 Ry
     estimated scf accuracy    <       0.04042545 Ry

     iteration #  5     ecut=    40.00 Ry     beta= 0.05
     Davidson diagonalization with overlap
     ethr =  4.04E-05,  avg # of iterations =  2.0

     total cpu time spent up to now is      697.3 secs

     total energy              =    -290.00390169 Ry
     estimated scf accuracy    <       0.05718451 Ry

     iteration #  6     ecut=    40.00 Ry     beta= 0.05
     Davidson diagonalization with overlap
     ethr =  4.04E-05,  avg # of iterations =  4.0

     total cpu time spent up to now is      701.5 secs

     total energy              =    -290.01312880 Ry
     estimated scf accuracy    <       0.00770021 Ry

     iteration #  7     ecut=    40.00 Ry     beta= 0.05
     Davidson diagonalization with overlap
     ethr =  7.70E-06,  avg # of iterations = 10.0

     total cpu time spent up to now is      705.1 secs

     total energy              =    -290.01166986 Ry
     estimated scf accuracy    <       0.00901415 Ry

     iteration #  8     ecut=    40.00 Ry     beta= 0.05
     Davidson diagonalization with overlap
     ethr =  7.70E-06,  avg # of iterations =  2.0

     total cpu time spent up to now is      708.4 secs

     total energy              =    -290.01153835 Ry
     estimated scf accuracy    <       0.00448280 Ry

     iteration #  9     ecut=    40.00 Ry     beta= 0.05
     Davidson diagonalization with overlap
     ethr =  4.48E-06,  avg # of iterations =  4.0

     total cpu time spent up to now is      712.1 secs

     total energy              =    -290.01210030 Ry
     estimated scf accuracy    <       0.00353496 Ry

     iteration # 10     ecut=    40.00 Ry     beta= 0.05
     Davidson diagonalization with overlap
     ethr =  3.53E-06,  avg # of iterations =  1.0

     total cpu time spent up to now is      715.3 secs

     total energy              =    -290.01217295 Ry
     estimated scf accuracy    <       0.00225983 Ry

     iteration # 11     ecut=    40.00 Ry     beta= 0.05
     Davidson diagonalization with overlap
     ethr =  2.26E-06,  avg # of iterations =  2.0

     total cpu time spent up to now is      718.4 secs

     total energy              =    -290.01113533 Ry
     estimated scf accuracy    <       0.00211881 Ry

     iteration # 12     ecut=    40.00 Ry     beta= 0.05
     Davidson diagonalization with overlap
     c_bands:  1 eigenvalues not converged
     ethr =  2.12E-06,  avg # of iterations = 20.0

     total cpu time spent up to now is      721.9 secs

     total energy              =    -290.01137677 Ry
     estimated scf accuracy    <       0.00043510 Ry

     iteration # 13     ecut=    40.00 Ry     beta= 0.05
     Davidson diagonalization with overlap
     ethr =  4.35E-07,  avg # of iterations =  2.0

     total cpu time spent up to now is      725.1 secs

     total energy              =    -290.01132059 Ry
     estimated scf accuracy    <       0.00035857 Ry

     iteration # 14     ecut=    40.00 Ry     beta= 0.05
     Davidson diagonalization with overlap
     ethr =  3.59E-07,  avg # of iterations =  2.0

     total cpu time spent up to now is      728.5 secs

     total energy              =    -290.01127141 Ry
     estimated scf accuracy    <       0.00026351 Ry

     iteration # 15     ecut=    40.00 Ry     beta= 0.05
     Davidson diagonalization with overlap
     ethr =  2.64E-07,  avg # of iterations =  4.0

     total cpu time spent up to now is      731.9 secs

     total energy              =    -290.01130234 Ry
     estimated scf accuracy    <       0.00009607 Ry

     iteration # 16     ecut=    40.00 Ry     beta= 0.05
     Davidson diagonalization with overlap
     ethr =  9.61E-08,  avg # of iterations =  2.0

     total cpu time spent up to now is      734.9 secs

     total energy              =    -290.01131081 Ry
     estimated scf accuracy    <       0.00005509 Ry

     iteration # 17     ecut=    40.00 Ry     beta= 0.05
     Davidson diagonalization with overlap
     ethr =  5.51E-08,  avg # of iterations =  1.0

     total cpu time spent up to now is      737.9 secs

     total energy              =    -290.01131222 Ry
     estimated scf accuracy    <       0.00005742 Ry

     iteration # 18     ecut=    40.00 Ry     beta= 0.05
     Davidson diagonalization with overlap
     ethr =  5.51E-08,  avg # of iterations =  1.0

     total cpu time spent up to now is      740.4 secs

     total energy              =    -290.01131097 Ry
     estimated scf accuracy    <       0.00006589 Ry

     iteration # 19     ecut=    40.00 Ry     beta= 0.05
     Davidson diagonalization with overlap
     ethr =  5.51E-08,  avg # of iterations =  2.0

     total cpu time spent up to now is      743.7 secs

     total energy              =    -290.01128751 Ry
     estimated scf accuracy    <       0.00005651 Ry

     iteration # 20     ecut=    40.00 Ry     beta= 0.05
     Davidson diagonalization with overlap
     ethr =  5.51E-08,  avg # of iterations =  4.0

     total cpu time spent up to now is      747.2 secs

     total energy              =    -290.01129935 Ry
     estimated scf accuracy    <       0.00000850 Ry

     iteration # 21     ecut=    40.00 Ry     beta= 0.05
     Davidson diagonalization with overlap
     ethr =  8.50E-09,  avg # of iterations =  4.0

     total cpu time spent up to now is      751.5 secs

     total energy              =    -290.01130156 Ry
     estimated scf accuracy    <       0.00001157 Ry

     iteration # 22     ecut=    40.00 Ry     beta= 0.05
     Davidson diagonalization with overlap
     ethr =  8.50E-09,  avg # of iterations =  1.0

     total cpu time spent up to now is      754.1 secs

     total energy              =    -290.01130054 Ry
     estimated scf accuracy    <       0.00001020 Ry

     iteration # 23     ecut=    40.00 Ry     beta= 0.05
     Davidson diagonalization with overlap
     ethr =  8.50E-09,  avg # of iterations =  1.0

     total cpu time spent up to now is      757.2 secs

     total energy              =    -290.01129890 Ry
     estimated scf accuracy    <       0.00000937 Ry

     iteration # 24     ecut=    40.00 Ry     beta= 0.05
     Davidson diagonalization with overlap
     ethr =  8.50E-09,  avg # of iterations =  4.0

     total cpu time spent up to now is      760.4 secs

     total energy              =    -290.01129765 Ry
     estimated scf accuracy    <       0.00000523 Ry

     iteration # 25     ecut=    40.00 Ry     beta= 0.05
     Davidson diagonalization with overlap
     ethr =  5.23E-09,  avg # of iterations =  4.0

     total cpu time spent up to now is      764.0 secs

     total energy              =    -290.01129861 Ry
     estimated scf accuracy    <       0.00000088 Ry

     iteration # 26     ecut=    40.00 Ry     beta= 0.05
     Davidson diagonalization with overlap
     ethr =  8.78E-10,  avg # of iterations =  2.0

     total cpu time spent up to now is      767.4 secs

     total energy              =    -290.01129875 Ry
     estimated scf accuracy    <       0.00000038 Ry

     iteration # 27     ecut=    40.00 Ry     beta= 0.05
     Davidson diagonalization with overlap
     ethr =  3.80E-10,  avg # of iterations =  2.0

     total cpu time spent up to now is      770.6 secs

     total energy              =    -290.01129884 Ry
     estimated scf accuracy    <       0.00000034 Ry

     iteration # 28     ecut=    40.00 Ry     beta= 0.05
     Davidson diagonalization with overlap
     ethr =  3.40E-10,  avg # of iterations =  2.0

     total cpu time spent up to now is      773.8 secs

     total energy              =    -290.01129889 Ry
     estimated scf accuracy    <       0.00000027 Ry

     iteration # 29     ecut=    40.00 Ry     beta= 0.05
     Davidson diagonalization with overlap
     ethr =  2.68E-10,  avg # of iterations =  4.0

     total cpu time spent up to now is      777.3 secs

     total energy              =    -290.01129888 Ry
     estimated scf accuracy    <       0.00000023 Ry

     iteration # 30     ecut=    40.00 Ry     beta= 0.05
     Davidson diagonalization with overlap
     ethr =  2.35E-10,  avg # of iterations =  1.0

     total cpu time spent up to now is      780.3 secs

     total energy              =    -290.01129892 Ry
     estimated scf accuracy    <       0.00000005 Ry

     iteration # 31     ecut=    40.00 Ry     beta= 0.05
     Davidson diagonalization with overlap
     ethr =  4.98E-11,  avg # of iterations =  4.0

     total cpu time spent up to now is      784.2 secs

     total energy              =    -290.01129898 Ry
     estimated scf accuracy    <       0.00000003 Ry

     iteration # 32     ecut=    40.00 Ry     beta= 0.05
     Davidson diagonalization with overlap
     ethr =  2.70E-11,  avg # of iterations =  1.0

     total cpu time spent up to now is      787.2 secs

     total energy              =    -290.01129901 Ry
     estimated scf accuracy    <       0.00000002 Ry

     iteration # 33     ecut=    40.00 Ry     beta= 0.05
     Davidson diagonalization with overlap
     ethr =  1.80E-11,  avg # of iterations =  1.0

     total cpu time spent up to now is      790.3 secs

     total energy              =    -290.01129909 Ry
     estimated scf accuracy    <       0.00000002 Ry

     iteration # 34     ecut=    40.00 Ry     beta= 0.05
     Davidson diagonalization with overlap
     ethr =  1.80E-11,  avg # of iterations =  2.0

     total cpu time spent up to now is      795.5 secs

     total energy              =    -290.01129912 Ry
     estimated scf accuracy    <       0.00000002 Ry

     iteration # 35     ecut=    40.00 Ry     beta= 0.05
     Davidson diagonalization with overlap
     ethr =  1.80E-11,  avg # of iterations =  1.0

     total cpu time spent up to now is      800.0 secs

     total energy              =    -290.01129915 Ry
     estimated scf accuracy    <       0.00000002 Ry

     iteration # 36     ecut=    40.00 Ry     beta= 0.05
     Davidson diagonalization with overlap
     ethr =  1.80E-11,  avg # of iterations =  2.0

     total cpu time spent up to now is      805.7 secs

     total energy              =    -290.01129917 Ry
     estimated scf accuracy    <       0.00000003 Ry

     iteration # 37     ecut=    40.00 Ry     beta= 0.05
     Davidson diagonalization with overlap
     ethr =  1.80E-11,  avg # of iterations =  1.0

     total cpu time spent up to now is      810.0 secs

     total energy              =    -290.01129924 Ry
     estimated scf accuracy    <       0.00000003 Ry

     iteration # 38     ecut=    40.00 Ry     beta= 0.05
     Davidson diagonalization with overlap
     ethr =  1.80E-11,  avg # of iterations =  2.0

     total cpu time spent up to now is      814.5 secs

     total energy              =    -290.01129931 Ry
     estimated scf accuracy    <       0.00000003 Ry

     iteration # 39     ecut=    40.00 Ry     beta= 0.05
     Davidson diagonalization with overlap
     ethr =  1.80E-11,  avg # of iterations =  1.0

     total cpu time spent up to now is      818.4 secs

     total energy              =    -290.01129932 Ry
     estimated scf accuracy    <       0.00000003 Ry

     iteration # 40     ecut=    40.00 Ry     beta= 0.05
     Davidson diagonalization with overlap
     ethr =  1.80E-11,  avg # of iterations =  1.0

     total cpu time spent up to now is      822.2 secs

     total energy              =    -290.01129934 Ry
     estimated scf accuracy    <       0.00000002 Ry

     iteration # 41     ecut=    40.00 Ry     beta= 0.05
     Davidson diagonalization with overlap
     ethr =  1.80E-11,  avg # of iterations =  1.0

     total cpu time spent up to now is      827.1 secs

     total energy              =    -290.01129935 Ry
     estimated scf accuracy    <       0.00000003 Ry

     iteration # 42     ecut=    40.00 Ry     beta= 0.05
     Davidson diagonalization with overlap
     ethr =  1.80E-11,  avg # of iterations =  1.0

     total cpu time spent up to now is      832.5 secs

     total energy              =    -290.01129937 Ry
     estimated scf accuracy    <       0.00000002 Ry

     iteration # 43     ecut=    40.00 Ry     beta= 0.05
     Davidson diagonalization with overlap
     ethr =  1.80E-11,  avg # of iterations =  1.0

     total cpu time spent up to now is      836.5 secs

     total energy              =    -290.01129937 Ry
     estimated scf accuracy    <       0.00000003 Ry

     iteration # 44     ecut=    40.00 Ry     beta= 0.05
     Davidson diagonalization with overlap
     ethr =  1.80E-11,  avg # of iterations =  1.0

     total cpu time spent up to now is      840.2 secs

     total energy              =    -290.01129938 Ry
     estimated scf accuracy    <       0.00000002 Ry

     iteration # 45     ecut=    40.00 Ry     beta= 0.05
     Davidson diagonalization with overlap
     ethr =  1.80E-11,  avg # of iterations =  1.0

     total cpu time spent up to now is      843.7 secs

     total energy              =    -290.01129934 Ry
     estimated scf accuracy    <       0.00000002 Ry

     iteration # 46     ecut=    40.00 Ry     beta= 0.05
     Davidson diagonalization with overlap
     ethr =  1.68E-11,  avg # of iterations =  1.0

     total cpu time spent up to now is      847.1 secs

     total energy              =    -290.01129935 Ry
     estimated scf accuracy    <       0.00000001 Ry

     iteration # 47     ecut=    40.00 Ry     beta= 0.05
     Davidson diagonalization with overlap
     ethr =  1.46E-11,  avg # of iterations =  1.0

     total cpu time spent up to now is      851.5 secs

     End of self-consistent calculation

          k = 0.0000 0.0000 0.0000 (  5589 PWs)   bands (ev):

   -12.0634 -11.1900 -10.2777  -6.4978  -6.4718  -6.4597  -5.9452  -5.9403
    -5.9287  -5.8070  -5.7625  -5.7103  -5.1447  -5.0139  -4.9333  -4.7840
    -4.7567  -4.7444  -4.4464  -4.4451  -4.4323  -1.3395  -1.1875   1.5963
     1.6125   1.6238   1.8791   1.8857   1.9293   2.2162   2.2271   2.2487
     2.9292   3.4565   4.0133   4.3622   4.5187   4.5494   5.1786   5.1854
     5.3109   5.3199   5.3505   5.3737   5.4647   5.4712   5.5670   6.5905
     6.6261   6.6807   9.1685   9.3606  10.0634  10.5012  10.5864  10.7478
    11.0768  11.0927  11.3843  14.6032

     the Fermi energy is     7.6985 ev

!    total energy              =    -290.01129942 Ry
     estimated scf accuracy    <          7.7E-09 Ry
     smearing contrib. (-TS)   =      -0.00000000 Ry
     internal energy E=F+TS    =    -290.01129942 Ry

     The total energy is F=E-TS. E is the sum of the following terms:
     one-electron contribution =     -74.75471198 Ry
     hartree contribution      =      94.04190057 Ry
     xc contribution           =    -103.00284095 Ry
     ewald contribution        =    -206.29564707 Ry

     convergence has been achieved in  47 iterations

     Forces acting on atoms (cartesian axes, Ry/au):

     atom    1 type  1   force =    -0.00067058    0.00080566    0.00042500
     atom    2 type  1   force =     0.00442017   -0.00317886    0.00023739
     atom    3 type  1   force =    -0.00731013    0.00479419    0.00028537
     atom    4 type  1   force =     0.00126284   -0.00113209   -0.00033157
     atom    5 type  1   force =    -0.00039062    0.00063014    0.00121087
     atom    6 type  1   force =     0.00405274   -0.00417210    0.00032809
     atom    7 type  1   force =    -0.00176361    0.00167719   -0.00016746
     atom    8 type  1   force =    -0.00211341    0.00048201   -0.00057497
     atom    9 type  1   force =    -0.00085681    0.00154740   -0.00000846
     atom   10 type  1   force =     0.00156894   -0.00167120   -0.00074036
     atom   11 type  1   force =    -0.00186060    0.00166519    0.00006845
     atom   12 type  1   force =     0.00473324   -0.00211326    0.00020418
     atom   13 type  1   force =    -0.00168209    0.00163983   -0.00016727
     atom   14 type  1   force =    -0.00213241    0.00052265   -0.00055555
     atom   15 type  1   force =    -0.00055065    0.00174091    0.00020325
     atom   16 type  1   force =     0.00166194   -0.00155785   -0.00074171
     atom   17 type  1   force =    -0.00181819    0.00174128    0.00007453
     atom   18 type  1   force =     0.00492939   -0.00181288    0.00021801
     atom   19 type  1   force =    -0.00066893    0.00076403    0.00042646
     atom   20 type  1   force =     0.00441453   -0.00317661    0.00024132
     atom   21 type  1   force =    -0.00778701    0.00399078    0.00024705
     atom   22 type  1   force =     0.00124498   -0.00111990   -0.00033068
     atom   23 type  1   force =    -0.00038607    0.00064237    0.00118307
     atom   24 type  1   force =     0.00314509   -0.00405207    0.00013547
     atom   25 type  2   force =    -0.00404787    0.00098945   -0.00085980
     atom   26 type  2   force =     0.00321781   -0.00055448   -0.00007628
     atom   27 type  2   force =     0.00333831   -0.00019375   -0.00012946
     atom   28 type  2   force =    -0.00395098    0.00110196   -0.00080495

     Total force =     0.007950     Total SCF correction =     0.000078


     Computing stress (Cartesian axis) and pressure

          total   stress  (Ry/bohr**3)                   (kbar)     P=       87.69
   0.00068438   0.00000394   0.00000254          100.68        0.58        0.37
   0.00000394   0.00069509  -0.00000299            0.58      102.25       -0.44
   0.00000254  -0.00000299   0.00040894            0.37       -0.44       60.16


     Writing all to output data dir ../results/2h2_abs/2H2abs_C.save/ :
     XML data file, charge density, pseudopotentials, collected wavefunctions

     init_run     :      6.93s CPU      6.71s WALL (       2 calls)
     electrons    :    915.80s CPU    762.00s WALL (      18 calls)
     update_pot   :      3.03s CPU      2.28s WALL (      16 calls)
     forces       :     32.66s CPU     28.42s WALL (      18 calls)
     stress       :     76.80s CPU     54.02s WALL (      18 calls)

     Called by init_run:
     wfcinit      :      4.17s CPU      4.05s WALL (       2 calls)
     potinit      :      0.30s CPU      0.23s WALL (       2 calls)
     hinit0       :      1.24s CPU      1.10s WALL (       2 calls)

     Called by electrons:
     c_bands      :    527.34s CPU    428.00s WALL (     294 calls)
     sum_band     :    217.89s CPU    196.93s WALL (     294 calls)
     v_of_rho     :     14.12s CPU      8.06s WALL (     303 calls)
     newd         :    105.47s CPU     99.87s WALL (     303 calls)
     mix_rho      :     51.01s CPU     31.81s WALL (     294 calls)

     Called by c_bands:
     init_us_2    :      4.79s CPU      3.49s WALL (     590 calls)
     cegterg      :    515.82s CPU    421.21s WALL (     294 calls)

     Called by *egterg:
     cdiaghg      :     10.46s CPU     10.64s WALL (    1104 calls)
     h_psi        :    333.83s CPU    242.15s WALL (    1131 calls)
     s_psi        :     57.26s CPU     55.38s WALL (    1131 calls)
     g_psi        :      1.71s CPU      1.11s WALL (     835 calls)

     Called by h_psi:
     h_psi:calbec :     55.01s CPU     52.89s WALL (    1131 calls)
     vloc_psi     :    224.66s CPU    135.17s WALL (    1131 calls)
     add_vuspsi   :     52.97s CPU     53.37s WALL (    1131 calls)

     General routines
     calbec       :     93.51s CPU     91.16s WALL (    1515 calls)
     fft          :     30.83s CPU     19.04s WALL (    1951 calls)
     ffts         :     20.38s CPU     13.04s WALL (    6702 calls)
     fftw         :    192.88s CPU    119.28s WALL (  106294 calls)
     interpolate  :      6.08s CPU      3.70s WALL (     303 calls)

     Parallel routines

     PWSCF        :  17m22.66s CPU  14m20.69s WALL


   This run was terminated on:  20:27: 8   6Aug2024            

=------------------------------------------------------------------------------=
   JOB DONE.
=------------------------------------------------------------------------------=
