
     Program PWSCF v.7.3.1 starts on  7Aug2024 at 10:51:47 

     This program is part of the open-source Quantum ESPRESSO suite
     for quantum simulation of materials; please cite
         "P. Giannozzi et al., J. Phys.:Condens. Matter 21 395502 (2009);
         "P. Giannozzi et al., J. Phys.:Condens. Matter 29 465901 (2017);
         "P. Giannozzi et al., J. Chem. Phys. 152 154105 (2020);
          URL http://www.quantum-espresso.org", 
     in publications or presentations arising from this work. More details at
     http://www.quantum-espresso.org/quote

     Parallel version (MPI & OpenMP), running on       4 processor cores
     Number of MPI processes:                 2
     Threads/MPI process:                     2

     MPI processes distributed on     1 nodes
     4044 MiB available memory on the printing compute node when the environment starts

     Reading input from hydrogen_absorption4.in

     Current dimensions of program PWSCF are:
     Max number of different atomic species (ntypx) = 10
     Max number of k-points (npk) =  40000
     Max angular momentum in pseudopotentials (lmaxx) =  4

     IMPORTANT: XC functional enforced from input :
     Exchange-correlation= LDA
                           (   1   1   0   0   0   0   0)
     Any further DFT definition will be discarded
     Please, verify this is what you really want


     R & G space division:  proc/nbgrp/npool/nimage =       2
     Subspace diagonalization in iterative solution of the eigenvalue problem:
     a serial algorithm will be used


     Parallelization info
     --------------------
     sticks:   dense  smooth     PW     G-vecs:    dense   smooth      PW
     Min         882     351     84                59496    14997    1857
     Max         883     352     85                59501    15000    1858
     Sum        1765     703    169               118997    29997    3715

     Using Slab Decomposition


     Title: 
     3H2_absorption_C                                                           


     bravais-lattice index     =            4
     lattice parameter (alat)  =       8.0000  a.u.
     unit-cell volume          =     880.6989 (a.u.)^3
     number of atoms/cell      =           32
     number of atomic types    =            2
     number of electrons       =       104.00
     number of Kohn-Sham states=           62
     kinetic-energy cutoff     =      40.0000  Ry
     charge density cutoff     =     400.0000  Ry
     scf convergence threshold =      1.0E-06
     mixing beta               =       0.0500
     number of iterations used =            8  local-TF  mixing
     energy convergence thresh.=      1.0E-04
     force convergence thresh. =      1.0E-03
     press convergence thresh. =      5.0E-01
     Exchange-correlation= LDA
                           (   1   1   0   0   0   0   0)
     nstep                     =           50


     celldm(1)=   8.000004  celldm(2)=   0.000000  celldm(3)=   1.986214
     celldm(4)=   0.000000  celldm(5)=   0.000000  celldm(6)=   0.000000

     crystal axes: (cart. coord. in units of alat)
               a(1) = (   1.000000   0.000000   0.000000 )  
               a(2) = (  -0.500000   0.866025   0.000000 )  
               a(3) = (   0.000000   0.000000   1.986214 )  

     reciprocal axes: (cart. coord. in units 2 pi/alat)
               b(1) = (  1.000000  0.577350 -0.000000 )  
               b(2) = (  0.000000  1.154701  0.000000 )  
               b(3) = (  0.000000 -0.000000  0.503470 )  


     PseudoPot. # 1 for C  read from file:
     /home/edoardocabiati/.burai/.pseudopot/C.pz-n-rrkjus_psl.0.1.UPF
     MD5 check sum: a3cecbabebb5b3a1aff122f23eb09bb0
     Pseudo is Ultrasoft + core correction, Zval =  4.0
     Generated using "atomic" code by A. Dal Corso  v.5.0.2 svn rev. 9415
     Using radial grid of 1073 points,  4 beta functions with: 
                l(1) =   0
                l(2) =   0
                l(3) =   1
                l(4) =   1
     Q(r) pseudized with 0 coefficients 


     PseudoPot. # 2 for H  read from file:
     /home/edoardocabiati/.burai/.pseudopot/H.pz-rrkjus_psl.0.1.UPF
     MD5 check sum: 1467ebfaa2880178e80d097b970df8c7
     Pseudo is Ultrasoft, Zval =  1.0
     Generated using "atomic" code by A. Dal Corso  v.5.0.2 svn rev. 9415
     Using radial grid of  929 points,  2 beta functions with: 
                l(1) =   0
                l(2) =   0
     Q(r) pseudized with 0 coefficients 


     atomic species   valence    mass     pseudopotential
     C                 4.00    12.01100     C ( 1.00)
     H                 1.00     1.00784     H ( 1.00)

     No symmetry found



   Cartesian axes

     site n.     atom                  positions (alat units)
         1        C      tau(   1) = (   0.0000457  -0.0000319   0.3592815  )
         2        C      tau(   2) = (   0.0000070   0.0000014   0.8425266  )
         3        C      tau(   3) = (   0.0000038  -0.0000035   1.7051899  )
         4        C      tau(   4) = (   0.0000127   0.2886455   0.3506822  )
         5        C      tau(   5) = (   0.2500427   0.1443214   0.8512650  )
         6        C      tau(   6) = (   0.0000209   0.2886755   1.7070038  )
         7        C      tau(   7) = (   0.5000433  -0.0000121   0.3599110  )
         8        C      tau(   8) = (   0.5000526  -0.0000156   0.8421170  )
         9        C      tau(   9) = (   0.4999945   0.0000109   1.7060977  )
        10        C      tau(  10) = (   0.5000397   0.2886527   0.3507640  )
        11        C      tau(  11) = (   0.7500439   0.1443248   0.8464663  )
        12        C      tau(  12) = (   0.4999707   0.2886970   1.7067232  )
        13        C      tau(  13) = (  -0.2499705   0.4330036   0.3616935  )
        14        C      tau(  14) = (  -0.2499674   0.4329818   0.8360934  )
        15        C      tau(  15) = (  -0.2500245   0.4330278   1.7144901  )
        16        C      tau(  16) = (  -0.2499598   0.7216639   0.3508454  )
        17        C      tau(  17) = (   0.0000454   0.5773380   0.8465052  )
        18        C      tau(  18) = (  -0.2500252   0.7216936   1.7074777  )
        19        C      tau(  19) = (   0.2500421   0.4329865   0.3593219  )
        20        C      tau(  20) = (   0.2500144   0.4330061   0.8423876  )
        21        C      tau(  21) = (   0.2499984   0.4330159   1.7056058  )
        22        C      tau(  22) = (   0.2500485   0.7216691   0.3586290  )
        23        C      tau(  23) = (   0.4999946   0.5773505   0.8464174  )
        24        C      tau(  24) = (   0.2500089   0.7216889   1.7150228  )
        25        H      tau(  25) = (   0.3308719   1.0222443   1.3498569  )
        26        H      tau(  26) = (   0.1678183   0.9988253   1.3513760  )
        27        H      tau(  27) = (  -0.0515648   0.6420730   1.3502661  )
        28        H      tau(  28) = (   0.0531899   0.5148884   1.3505963  )
        29        H      tau(  29) = (   0.5286454   0.6562745   1.3506476  )
        30        H      tau(  30) = (   0.4717024   0.5012284   1.3487159  )
        31        H      tau(  31) = (   0.1700000   0.1732051   1.2314530  )
        32        H      tau(  32) = (   0.3050000   0.1818653   1.2314530  )

     number of k points=     1  Gaussian smearing, width (Ry)=  0.0100
                       cart. coord. in units 2pi/alat
        k(    1) = (   0.0000000   0.0000000   0.0000000), wk =   2.0000000

     Dense  grid:   118997 G-vectors     FFT dimensions: (  54,  54, 108)

     Smooth grid:    29997 G-vectors     FFT dimensions: (  36,  36,  64)

     Estimated max dynamical RAM per process >     149.67 MB

     Estimated total dynamical RAM >     299.34 MB

     Check: negative core charge=   -0.000003

     Initial potential from superposition of free atoms

     starting charge     103.9991, renormalised to     104.0000
     Starting wfcs are  104 randomized atomic wfcs

     total cpu time spent up to now is        2.1 secs

     Self-consistent Calculation

     iteration #  1     ecut=    40.00 Ry     beta= 0.05
     Davidson diagonalization with overlap
     ethr =  1.00E-02,  avg # of iterations =  5.0

     total cpu time spent up to now is        8.2 secs

     total energy              =    -293.17315693 Ry
     estimated scf accuracy    <       6.04132552 Ry

     iteration #  2     ecut=    40.00 Ry     beta= 0.05
     Davidson diagonalization with overlap
     ethr =  5.81E-03,  avg # of iterations =  1.0

     total cpu time spent up to now is        9.9 secs

     total energy              =    -291.87121254 Ry
     estimated scf accuracy    <       6.01634937 Ry

     iteration #  3     ecut=    40.00 Ry     beta= 0.05
     Davidson diagonalization with overlap
     ethr =  5.78E-03,  avg # of iterations =  1.0

     total cpu time spent up to now is       12.0 secs

     total energy              =    -289.71713953 Ry
     estimated scf accuracy    <       3.58251157 Ry

     iteration #  4     ecut=    40.00 Ry     beta= 0.05
     Davidson diagonalization with overlap
     ethr =  3.44E-03,  avg # of iterations =  2.0

     total cpu time spent up to now is       14.2 secs

     total energy              =    -290.38888354 Ry
     estimated scf accuracy    <       0.09857413 Ry

     iteration #  5     ecut=    40.00 Ry     beta= 0.05
     Davidson diagonalization with overlap
     ethr =  9.48E-05,  avg # of iterations =  3.0

     total cpu time spent up to now is       16.9 secs

     total energy              =    -290.46710878 Ry
     estimated scf accuracy    <       0.26400302 Ry

     iteration #  6     ecut=    40.00 Ry     beta= 0.05
     Davidson diagonalization with overlap
     ethr =  9.48E-05,  avg # of iterations =  1.0

     total cpu time spent up to now is       18.6 secs

     total energy              =    -290.26532744 Ry
     estimated scf accuracy    <       0.32975767 Ry

     iteration #  7     ecut=    40.00 Ry     beta= 0.05
     Davidson diagonalization with overlap
     ethr =  9.48E-05,  avg # of iterations =  5.0

     total cpu time spent up to now is       22.7 secs

     total energy              =    -290.31803828 Ry
     estimated scf accuracy    <       0.00783851 Ry

     iteration #  8     ecut=    40.00 Ry     beta= 0.05
     Davidson diagonalization with overlap
     ethr =  7.54E-06,  avg # of iterations =  6.0

     total cpu time spent up to now is       27.2 secs

     total energy              =    -290.32220767 Ry
     estimated scf accuracy    <       0.00714516 Ry

     iteration #  9     ecut=    40.00 Ry     beta= 0.05
     Davidson diagonalization with overlap
     ethr =  6.87E-06,  avg # of iterations =  1.0

     total cpu time spent up to now is       29.9 secs

     total energy              =    -290.32061779 Ry
     estimated scf accuracy    <       0.00538902 Ry

     iteration # 10     ecut=    40.00 Ry     beta= 0.05
     Davidson diagonalization with overlap
     ethr =  5.18E-06,  avg # of iterations =  2.0

     total cpu time spent up to now is       32.7 secs

     total energy              =    -290.32136162 Ry
     estimated scf accuracy    <       0.00118620 Ry

     iteration # 11     ecut=    40.00 Ry     beta= 0.05
     Davidson diagonalization with overlap
     ethr =  1.14E-06,  avg # of iterations =  4.0

     total cpu time spent up to now is       34.6 secs

     total energy              =    -290.32144120 Ry
     estimated scf accuracy    <       0.00092646 Ry

     iteration # 12     ecut=    40.00 Ry     beta= 0.05
     Davidson diagonalization with overlap
     ethr =  8.91E-07,  avg # of iterations =  2.0

     total cpu time spent up to now is       37.8 secs

     total energy              =    -290.32125722 Ry
     estimated scf accuracy    <       0.00089982 Ry

     iteration # 13     ecut=    40.00 Ry     beta= 0.05
     Davidson diagonalization with overlap
     ethr =  8.65E-07,  avg # of iterations =  2.0

     total cpu time spent up to now is       40.1 secs

     total energy              =    -290.32131855 Ry
     estimated scf accuracy    <       0.00040920 Ry

     iteration # 14     ecut=    40.00 Ry     beta= 0.05
     Davidson diagonalization with overlap
     ethr =  3.93E-07,  avg # of iterations =  2.0

     total cpu time spent up to now is       42.4 secs

     total energy              =    -290.32128413 Ry
     estimated scf accuracy    <       0.00028928 Ry

     iteration # 15     ecut=    40.00 Ry     beta= 0.05
     Davidson diagonalization with overlap
     ethr =  2.78E-07,  avg # of iterations =  1.0

     total cpu time spent up to now is       44.6 secs

     total energy              =    -290.32119174 Ry
     estimated scf accuracy    <       0.00016701 Ry

     iteration # 16     ecut=    40.00 Ry     beta= 0.05
     Davidson diagonalization with overlap
     ethr =  1.61E-07,  avg # of iterations =  4.0

     total cpu time spent up to now is       48.9 secs

     total energy              =    -290.32122553 Ry
     estimated scf accuracy    <       0.00002010 Ry

     iteration # 17     ecut=    40.00 Ry     beta= 0.05
     Davidson diagonalization with overlap
     ethr =  1.93E-08,  avg # of iterations =  4.0

     total cpu time spent up to now is       51.2 secs

     total energy              =    -290.32123083 Ry
     estimated scf accuracy    <       0.00000704 Ry

     iteration # 18     ecut=    40.00 Ry     beta= 0.05
     Davidson diagonalization with overlap
     ethr =  6.77E-09,  avg # of iterations =  2.0

     total cpu time spent up to now is       53.1 secs

     total energy              =    -290.32123079 Ry
     estimated scf accuracy    <       0.00000619 Ry

     iteration # 19     ecut=    40.00 Ry     beta= 0.05
     Davidson diagonalization with overlap
     ethr =  5.96E-09,  avg # of iterations =  2.0

     total cpu time spent up to now is       55.0 secs

     total energy              =    -290.32122955 Ry
     estimated scf accuracy    <       0.00000252 Ry

     iteration # 20     ecut=    40.00 Ry     beta= 0.05
     Davidson diagonalization with overlap
     ethr =  2.43E-09,  avg # of iterations =  4.0

     total cpu time spent up to now is       57.0 secs

     End of self-consistent calculation

          k = 0.0000 0.0000 0.0000 (  3715 PWs)   bands (ev):

   -10.6962  -9.1124  -8.1659  -3.2726  -3.2306  -3.2185  -2.9656  -2.9575
    -2.9347  -2.3240  -2.3113  -2.0957  -1.5127  -1.2611  -1.2533  -1.0417
    -1.0328  -1.0101  -0.6253  -0.6070  -0.5771  -0.2640   0.4315   5.3400
     6.1470   6.1554   6.1836   6.8678   6.9020   6.9089   6.9482   6.9947
     7.0088   7.3147   7.6493   7.6985   8.1434   8.9829   8.9942   9.1868
     9.8672  10.0235  10.6459  11.4865  11.4973  11.6333  11.6517  11.8860
    11.8879  12.1444  12.1508  12.1850  15.7570  15.8287  16.0920  17.1102
    17.1826  17.4986  17.8367  18.4380  18.4444  20.0196

     the Fermi energy is    13.0209 ev

!    total energy              =    -290.32123193 Ry
     estimated scf accuracy    <       0.00000034 Ry
     smearing contrib. (-TS)   =      -0.00000000 Ry
     internal energy E=F+TS    =    -290.32123193 Ry

     The total energy is F=E-TS. E is the sum of the following terms:
     one-electron contribution =     -11.78148746 Ry
     hartree contribution      =      87.27938952 Ry
     xc contribution           =    -116.13234178 Ry
     ewald contribution        =    -249.68679222 Ry

     convergence has been achieved in  20 iterations

     Forces acting on atoms (cartesian axes, Ry/au):

     atom    1 type  1   force =     0.00291040    0.00022564   -0.00429879
     atom    2 type  1   force =    -0.01368585   -0.01241113   -0.02101664
     atom    3 type  1   force =     0.00077643   -0.01456028   -0.02894236
     atom    4 type  1   force =     0.00967338    0.00030697   -0.03408267
     atom    5 type  1   force =     0.00462803   -0.01004249   -0.04102246
     atom    6 type  1   force =    -0.02477812    0.01637054   -0.00392494
     atom    7 type  1   force =     0.00203695   -0.00270962   -0.00399307
     atom    8 type  1   force =     0.01012785   -0.00815972   -0.01538131
     atom    9 type  1   force =    -0.00910532   -0.00580945   -0.02705275
     atom   10 type  1   force =    -0.00604363    0.00204900   -0.03523230
     atom   11 type  1   force =     0.00089703   -0.00427118    0.02238660
     atom   12 type  1   force =     0.01247880    0.01000340   -0.01056668
     atom   13 type  1   force =    -0.00080721    0.00166913    0.01976135
     atom   14 type  1   force =     0.00135897   -0.00219147   -0.02483961
     atom   15 type  1   force =     0.00593098   -0.00931086    0.03160322
     atom   16 type  1   force =    -0.00084073   -0.00000738   -0.03444009
     atom   17 type  1   force =     0.00685720   -0.00056211    0.02479165
     atom   18 type  1   force =     0.00642514    0.00877562   -0.00963167
     atom   19 type  1   force =    -0.00126030   -0.01294660    0.00047852
     atom   20 type  1   force =     0.00156264    0.02930247   -0.04016368
     atom   21 type  1   force =    -0.00160126    0.02399522   -0.01882564
     atom   22 type  1   force =    -0.00252654    0.00508648   -0.02062657
     atom   23 type  1   force =    -0.00802131    0.00120085    0.02376362
     atom   24 type  1   force =     0.00221290   -0.00734097    0.05113215
     atom   25 type  2   force =     0.13282128    0.01968507    0.00232154
     atom   26 type  2   force =    -0.13598116   -0.02389153    0.00313255
     atom   27 type  2   force =    -0.09179749    0.10881939   -0.00035705
     atom   28 type  2   force =     0.08879645   -0.10384987    0.00064478
     atom   29 type  2   force =     0.04708777    0.12978701    0.00163623
     atom   30 type  2   force =    -0.04465952   -0.12765940   -0.00085429
     atom   31 type  2   force =    -0.46692793   -0.03566786    0.09662111
     atom   32 type  2   force =     0.47145421    0.02411512    0.09697927

     Total force =     0.768606     Total SCF correction =     0.001583


     Computing stress (Cartesian axis) and pressure

          total   stress  (Ry/bohr**3)                   (kbar)     P=     3220.31
   0.03226813   0.00002778  -0.00003546         4746.81        4.09       -5.22
   0.00002778   0.03173277   0.00007680            4.09     4668.05       11.30
  -0.00003546   0.00007680   0.00167272           -5.22       11.30      246.07


     BFGS Geometry Optimization
     Energy error            =      0.0E+00 Ry
     Gradient error          =      4.7E-01 Ry/Bohr
     Cell gradient error     =      4.7E+03 kbar

     number of scf cycles    =   1
     number of bfgs steps    =   0

     enthalpy           new  =    -290.3212319350 Ry

     new trust radius        =       0.5000000000 bohr
     new conv_thr            =       0.0000010000 Ry

     new unit-cell volume =   1038.51233 a.u.^3 (   153.89165 Ang^3 )
     density =      3.19746 g/cm^3

CELL_PARAMETERS (alat=  8.00000437)
   1.084241456   0.000072527  -0.000092583
  -0.542057917   0.937734000   0.000219929
  -0.000183889   0.000398235   1.994888100

ATOMIC_POSITIONS (crystal)
C                0.0000272666       -0.0000368471        0.1808593170    0   0   1
C                0.0000077880        0.0000015854        0.4240490289    0   0   1
C                0.0000017661       -0.0000040684        0.8583222496    0   0   1
C                0.1666621945        0.3332990686        0.1763340669    0   0   1
C                0.3333667492        0.1666480377        0.4283170332    0   0   1
C                0.1666877856        0.3333337596        0.8593999346    0   0   1
C                0.5000363530       -0.0000139609        0.1811782562    0   0   1
C                0.5000436614       -0.0000179686        0.4238798141    0   0   1
C                0.5000008275        0.0000126148        0.8587917507    0   0   1
C                0.6666934171        0.3333074181        0.1763677257    0   0   1
C                0.8333697962        0.1666518883        0.4263177691    0   0   1
C                0.6666499182        0.3333585265        0.8592150246    0   0   1
C                0.0000242496        0.4999894894        0.1822318312    0   0   1
C                0.0000148052        0.4999643238        0.4207849361    0   0   1
C               -0.0000157496        0.5000174446        0.8634025616    0   0   1
C                0.1666931056        0.8333057187        0.1764139141    0   0   1
C                0.3333717097        0.6666525204        0.4263531456    0   0   1
C                0.1666448081        0.8333400236        0.8596010416    0   0   1
C                0.5000269510        0.4999697347        0.1809110311    0   0   1
C                0.5000106069        0.4999924092        0.4238531697    0   0   1
C                0.5000002272        0.5000037443        0.8585981665    0   0   1
C                0.6667043260        0.8333117262        0.1804235073    0   0   1
C                0.8333280471        0.6666668985        0.4263022113    0   0   1
C                0.6666761386        0.8333345719        0.8637991152    0   0   1
H                0.9229470496        1.1806828086        0.6796281464
H                0.7425353112        1.1529840260        0.6803982557
H                0.3187580370        0.7430422434        0.6798165249
H                0.3508373327        0.5929766415        0.6799893912
H                0.9091383882        0.7597567310        0.6800217117
H                0.7595416608        0.5768445159        0.6790327801
H                0.2636362220        0.1994623887        0.6206349913
H                0.4163357955        0.2103634802        0.6206373451



     Writing config-only to output data dir ../results/3h2_abs/3H2abs_C.save/ :
     XML data file
     NEW-OLD atomic charge density approx. for the potential

     Check: negative core charge=   -0.000002

     total cpu time spent up to now is       61.0 secs

     Self-consistent Calculation

     iteration #  1     ecut=    40.00 Ry     beta= 0.05
     Davidson diagonalization with overlap
     ethr =  1.00E-06,  avg # of iterations = 17.0

     total cpu time spent up to now is       71.2 secs

     total energy              =    -293.61132337 Ry
     estimated scf accuracy    <       0.24483572 Ry

     iteration #  2     ecut=    40.00 Ry     beta= 0.05
     Davidson diagonalization with overlap
     ethr =  2.35E-04,  avg # of iterations =  1.0

     total cpu time spent up to now is       75.2 secs

     total energy              =    -293.47287071 Ry
     estimated scf accuracy    <       0.22848934 Ry

     iteration #  3     ecut=    40.00 Ry     beta= 0.05
     Davidson diagonalization with overlap
     ethr =  2.20E-04,  avg # of iterations =  2.0

     total cpu time spent up to now is       77.4 secs

     total energy              =    -293.51176216 Ry
     estimated scf accuracy    <       0.00581118 Ry

     iteration #  4     ecut=    40.00 Ry     beta= 0.05
     Davidson diagonalization with overlap
     ethr =  5.59E-06,  avg # of iterations =  5.0

     total cpu time spent up to now is       80.1 secs

     total energy              =    -293.51717659 Ry
     estimated scf accuracy    <       0.00441509 Ry

     iteration #  5     ecut=    40.00 Ry     beta= 0.05
     Davidson diagonalization with overlap
     ethr =  4.25E-06,  avg # of iterations =  4.0

     total cpu time spent up to now is       82.1 secs

     total energy              =    -293.51504176 Ry
     estimated scf accuracy    <       0.00754694 Ry

     iteration #  6     ecut=    40.00 Ry     beta= 0.05
     Davidson diagonalization with overlap
     ethr =  4.25E-06,  avg # of iterations =  3.0

     total cpu time spent up to now is       83.8 secs

     total energy              =    -293.51540491 Ry
     estimated scf accuracy    <       0.00150240 Ry

     iteration #  7     ecut=    40.00 Ry     beta= 0.05
     Davidson diagonalization with overlap
     ethr =  1.44E-06,  avg # of iterations =  4.0

     total cpu time spent up to now is       85.5 secs

     total energy              =    -293.51549446 Ry
     estimated scf accuracy    <       0.00098742 Ry

     iteration #  8     ecut=    40.00 Ry     beta= 0.05
     Davidson diagonalization with overlap
     ethr =  9.49E-07,  avg # of iterations =  1.0

     total cpu time spent up to now is       87.1 secs

     total energy              =    -293.51567512 Ry
     estimated scf accuracy    <       0.00091403 Ry

     iteration #  9     ecut=    40.00 Ry     beta= 0.05
     Davidson diagonalization with overlap
     ethr =  8.79E-07,  avg # of iterations =  3.0

     total cpu time spent up to now is       88.9 secs

     total energy              =    -293.51545769 Ry
     estimated scf accuracy    <       0.00142021 Ry

     iteration # 10     ecut=    40.00 Ry     beta= 0.05
     Davidson diagonalization with overlap
     ethr =  8.79E-07,  avg # of iterations =  1.0

     total cpu time spent up to now is       90.5 secs

     total energy              =    -293.51550245 Ry
     estimated scf accuracy    <       0.00068047 Ry

     iteration # 11     ecut=    40.00 Ry     beta= 0.05
     Davidson diagonalization with overlap
     ethr =  6.54E-07,  avg # of iterations =  1.0

     total cpu time spent up to now is       92.1 secs

     total energy              =    -293.51516533 Ry
     estimated scf accuracy    <       0.00066427 Ry

     iteration # 12     ecut=    40.00 Ry     beta= 0.05
     Davidson diagonalization with overlap
     ethr =  6.39E-07,  avg # of iterations =  4.0

     total cpu time spent up to now is       93.8 secs

     total energy              =    -293.51525810 Ry
     estimated scf accuracy    <       0.00001717 Ry

     iteration # 13     ecut=    40.00 Ry     beta= 0.05
     Davidson diagonalization with overlap
     ethr =  1.65E-08,  avg # of iterations =  6.0

     total cpu time spent up to now is       96.6 secs

     total energy              =    -293.51527870 Ry
     estimated scf accuracy    <       0.00001262 Ry

     iteration # 14     ecut=    40.00 Ry     beta= 0.05
     Davidson diagonalization with overlap
     ethr =  1.21E-08,  avg # of iterations =  3.0

     total cpu time spent up to now is       98.4 secs

     total energy              =    -293.51528159 Ry
     estimated scf accuracy    <       0.00000667 Ry

     iteration # 15     ecut=    40.00 Ry     beta= 0.05
     Davidson diagonalization with overlap
     ethr =  6.42E-09,  avg # of iterations =  2.0

     total cpu time spent up to now is      100.1 secs

     total energy              =    -293.51528011 Ry
     estimated scf accuracy    <       0.00000549 Ry

     iteration # 16     ecut=    40.00 Ry     beta= 0.05
     Davidson diagonalization with overlap
     ethr =  5.28E-09,  avg # of iterations =  4.0

     total cpu time spent up to now is      102.1 secs

     total energy              =    -293.51528210 Ry
     estimated scf accuracy    <       0.00000135 Ry

     iteration # 17     ecut=    40.00 Ry     beta= 0.05
     Davidson diagonalization with overlap
     ethr =  1.29E-09,  avg # of iterations =  2.0

     total cpu time spent up to now is      103.9 secs

     total energy              =    -293.51528258 Ry
     estimated scf accuracy    <       0.00000101 Ry

     iteration # 18     ecut=    40.00 Ry     beta= 0.05
     Davidson diagonalization with overlap
     ethr =  9.74E-10,  avg # of iterations =  1.0

     total cpu time spent up to now is      105.5 secs

     total energy              =    -293.51528265 Ry
     estimated scf accuracy    <       0.00000104 Ry

     iteration # 19     ecut=    40.00 Ry     beta= 0.05
     Davidson diagonalization with overlap
     ethr =  9.74E-10,  avg # of iterations =  1.0

     total cpu time spent up to now is      107.0 secs

     End of self-consistent calculation

          k = 0.0000 0.0000 0.0000 (  3715 PWs)   bands (ev):

   -11.1516  -9.4997  -8.5907  -4.5435  -4.5071  -4.4775  -4.2466  -4.1539
    -4.1513  -3.0350  -3.0211  -2.9753  -2.9231  -2.8496  -2.7628  -2.5364
    -2.3317  -2.2907  -2.2791  -2.2739  -2.1626  -0.8129  -0.0120   4.0910
     4.1051   4.1536   4.3119   4.9250   4.9848   5.0148   5.0556   5.0948
     5.1315   5.8577   5.8942   6.5141   7.0120   7.0350   7.1574   7.4868
     7.8509   8.0677   8.5229   8.5311   8.7333   8.9546   8.9609   9.2211
     9.2259   9.6342   9.6731  10.2339  13.4998  13.5762  13.8336  14.4697
    14.5386  14.8857  15.2815  15.7290  15.7647  17.3153

     the Fermi energy is    10.8788 ev

!    total energy              =    -293.51528510 Ry
     estimated scf accuracy    <       0.00000051 Ry
     smearing contrib. (-TS)   =      -0.00000000 Ry
     internal energy E=F+TS    =    -293.51528510 Ry

     The total energy is F=E-TS. E is the sum of the following terms:
     one-electron contribution =      -5.43367984 Ry
     hartree contribution      =      74.52701058 Ry
     xc contribution           =    -110.78506424 Ry
     ewald contribution        =    -251.82355160 Ry

     convergence has been achieved in  19 iterations

     Forces acting on atoms (cartesian axes, Ry/au):

     atom    1 type  1   force =     0.00316624   -0.00183940   -0.01226808
     atom    2 type  1   force =    -0.01699646   -0.01163618   -0.01092257
     atom    3 type  1   force =     0.00504619   -0.01431018   -0.01225209
     atom    4 type  1   force =     0.01095881    0.00158586   -0.03311688
     atom    5 type  1   force =     0.00366354   -0.00868207   -0.02902932
     atom    6 type  1   force =    -0.01931846    0.01632273    0.00989053
     atom    7 type  1   force =     0.00110589   -0.00436543   -0.01357317
     atom    8 type  1   force =     0.01423150   -0.00791294   -0.00438905
     atom    9 type  1   force =    -0.01244266   -0.00520945   -0.01428219
     atom   10 type  1   force =    -0.00705564    0.00318024   -0.03420431
     atom   11 type  1   force =     0.00048631   -0.00598630    0.03033103
     atom   12 type  1   force =     0.00809800    0.01194136    0.00495983
     atom   13 type  1   force =    -0.00101117   -0.00025056   -0.00275567
     atom   14 type  1   force =     0.00101620    0.00108366   -0.00609282
     atom   15 type  1   force =     0.00526308   -0.01155970    0.01104648
     atom   16 type  1   force =    -0.00087485    0.00399586   -0.03347430
     atom   17 type  1   force =     0.00549954   -0.00317522    0.03262781
     atom   18 type  1   force =     0.00654295    0.01282418    0.00090743
     atom   19 type  1   force =    -0.00151730   -0.01415925   -0.00687512
     atom   20 type  1   force =     0.00138069    0.03338982   -0.03029260
     atom   21 type  1   force =    -0.00251247    0.01536132   -0.00420752
     atom   22 type  1   force =    -0.00194288    0.00643611   -0.04950590
     atom   23 type  1   force =    -0.00669633   -0.00183958    0.03243569
     atom   24 type  1   force =     0.00276039   -0.00585310    0.03166110
     atom   25 type  2   force =     0.04492632    0.00741685   -0.00507991
     atom   26 type  2   force =    -0.04767190   -0.00990283   -0.00515751
     atom   27 type  2   force =    -0.03378366    0.03890871   -0.00599496
     atom   28 type  2   force =     0.03203943   -0.03553607   -0.00665688
     atom   29 type  2   force =     0.01624897    0.04689874   -0.00542535
     atom   30 type  2   force =    -0.01507727   -0.04477252   -0.00689849
     atom   31 type  2   force =    -0.17367839   -0.01720012    0.08945524
     atom   32 type  2   force =     0.17814541    0.00484546    0.08913955

     Total force =     0.324470     Total SCF correction =     0.001814


     Computing stress (Cartesian axis) and pressure

          total   stress  (Ry/bohr**3)                   (kbar)     P=     1190.34
   0.01130400   0.00000250  -0.00001825         1662.88        0.37       -2.69
   0.00000250   0.01129418   0.00003253            0.37     1661.43        4.79
  -0.00001825   0.00003253   0.00167712           -2.69        4.79      246.71

     Energy error            =      3.2E+00 Ry
     Gradient error          =      1.8E-01 Ry/Bohr
     Cell gradient error     =      1.7E+03 kbar

     number of scf cycles    =   2
     number of bfgs steps    =   1

     enthalpy           old  =    -290.3212319350 Ry
     enthalpy           new  =    -293.5152850952 Ry

     CASE: enthalpy          _new < enthalpy          _old

     new trust radius        =       0.3641689361 bohr
     new conv_thr            =       0.0000010000 Ry

     new unit-cell volume =   1206.63549 a.u.^3 (   178.80493 Ang^3 )
     density =      2.75195 g/cm^3

CELL_PARAMETERS (alat=  8.00000437)
   1.133152993  -0.000238774  -0.000397702
  -0.566783157   0.986918230   0.000677836
  -0.000839377   0.001153216   2.107601184

ATOMIC_POSITIONS (crystal)
C                0.0000272087       -0.0000374252        0.1797480821    0   0   1
C                0.0000077365        0.0000010707        0.4236651916    0   0   1
C                0.0000017083       -0.0000046458        0.8580807701    0   0   1
C                0.1666620383        0.3332975080        0.1741261971    0   0   1
C                0.3333666123        0.1666466698        0.4267743331    0   0   1
C                0.1666878323        0.3333342257        0.8605561596    0   0   1
C                0.5000362890       -0.0000146005        0.1799219274    0   0   1
C                0.5000436407       -0.0000181754        0.4239699117    0   0   1
C                0.5000007601        0.0000119418        0.8582747624    0   0   1
C                0.6666932558        0.3333058063        0.1740884318    0   0   1
C                0.8333699393        0.1666533176        0.4286509245    0   0   1
C                0.6666499416        0.3333587602        0.8600977334    0   0   1
C                0.0000242366        0.4999893595        0.1812520828    0   0   1
C                0.0000147765        0.4999640367        0.4210328606    0   0   1
C               -0.0000156975        0.5000179651        0.8634262226    0   0   1
C                0.1666929477        0.8333041413        0.1741818482    0   0   1
C                0.3333718636        0.6666540579        0.4288379704    0   0   1
C                0.1666448124        0.8333400664        0.8600337288    0   0   1
C                0.5000269186        0.4999694107        0.1801865672    0   0   1
C                0.5000104640        0.4999909817        0.4221501972    0   0   1
C                0.5000002074        0.5000035460        0.8588282806    0   0   1
C                0.6667040925        0.8333093934        0.1760548177    0   0   1
C                0.8333282001        0.6666684270        0.4288034762    0   0   1
C                0.6666762880        0.8333360639        0.8652565554    0   0   1
H                0.9237174552        1.1809805040        0.6790232526
H                0.7412335671        1.1523929761        0.6797573290
H                0.3182808226        0.7441517970        0.6792132038
H                0.3513679866        0.5923232888        0.6792804977
H                0.9101553881        0.7612065887        0.6794064894
H                0.7587979318        0.5757633187        0.6783520838
H                0.2572287712        0.1979679471        0.6264396480
H                0.4223076306        0.2096555660        0.6263940088



     Writing config-only to output data dir ../results/3h2_abs/3H2abs_C.save/ :
     XML data file
     NEW-OLD atomic charge density approx. for the potential

     Check: negative core charge=   -0.000002

     total cpu time spent up to now is      110.8 secs

     Self-consistent Calculation

     iteration #  1     ecut=    40.00 Ry     beta= 0.05
     Davidson diagonalization with overlap
     ethr =  1.00E-06,  avg # of iterations = 13.0

     total cpu time spent up to now is      115.9 secs

     total energy              =    -294.37223301 Ry
     estimated scf accuracy    <       0.09342733 Ry

     iteration #  2     ecut=    40.00 Ry     beta= 0.05
     Davidson diagonalization with overlap
     ethr =  8.98E-05,  avg # of iterations =  1.0

     total cpu time spent up to now is      117.5 secs

     total energy              =    -294.32460522 Ry
     estimated scf accuracy    <       0.08651995 Ry

     iteration #  3     ecut=    40.00 Ry     beta= 0.05
     Davidson diagonalization with overlap
     ethr =  8.32E-05,  avg # of iterations =  2.0

     total cpu time spent up to now is      119.2 secs

     total energy              =    -294.33700900 Ry
     estimated scf accuracy    <       0.00205170 Ry

     iteration #  4     ecut=    40.00 Ry     beta= 0.05
     Davidson diagonalization with overlap
     ethr =  1.97E-06,  avg # of iterations =  6.0

     total cpu time spent up to now is      121.9 secs

     total energy              =    -294.33870200 Ry
     estimated scf accuracy    <       0.00173581 Ry

     iteration #  5     ecut=    40.00 Ry     beta= 0.05
     Davidson diagonalization with overlap
     ethr =  1.67E-06,  avg # of iterations =  4.0

     total cpu time spent up to now is      123.6 secs

     total energy              =    -294.33862919 Ry
     estimated scf accuracy    <       0.00154849 Ry

     iteration #  6     ecut=    40.00 Ry     beta= 0.05
     Davidson diagonalization with overlap
     ethr =  1.49E-06,  avg # of iterations =  1.0

     total cpu time spent up to now is      125.1 secs

     total energy              =    -294.33834050 Ry
     estimated scf accuracy    <       0.00082404 Ry

     iteration #  7     ecut=    40.00 Ry     beta= 0.05
     Davidson diagonalization with overlap
     ethr =  7.92E-07,  avg # of iterations =  2.0

     total cpu time spent up to now is      126.8 secs

     total energy              =    -294.33841388 Ry
     estimated scf accuracy    <       0.00014642 Ry

     iteration #  8     ecut=    40.00 Ry     beta= 0.05
     Davidson diagonalization with overlap
     ethr =  1.41E-07,  avg # of iterations =  4.0

     total cpu time spent up to now is      128.6 secs

     total energy              =    -294.33842319 Ry
     estimated scf accuracy    <       0.00010405 Ry

     iteration #  9     ecut=    40.00 Ry     beta= 0.05
     Davidson diagonalization with overlap
     ethr =  1.00E-07,  avg # of iterations =  2.0

     total cpu time spent up to now is      130.3 secs

     total energy              =    -294.33841478 Ry
     estimated scf accuracy    <       0.00006842 Ry

     iteration # 10     ecut=    40.00 Ry     beta= 0.05
     Davidson diagonalization with overlap
     ethr =  6.58E-08,  avg # of iterations =  2.0

     total cpu time spent up to now is      132.0 secs

     total energy              =    -294.33841765 Ry
     estimated scf accuracy    <       0.00003327 Ry

     iteration # 11     ecut=    40.00 Ry     beta= 0.05
     Davidson diagonalization with overlap
     ethr =  3.20E-08,  avg # of iterations =  1.0

     total cpu time spent up to now is      133.6 secs

     total energy              =    -294.33841141 Ry
     estimated scf accuracy    <       0.00002544 Ry

     iteration # 12     ecut=    40.00 Ry     beta= 0.05
     Davidson diagonalization with overlap
     ethr =  2.45E-08,  avg # of iterations =  2.0

     total cpu time spent up to now is      135.3 secs

     total energy              =    -294.33841518 Ry
     estimated scf accuracy    <       0.00000433 Ry

     iteration # 13     ecut=    40.00 Ry     beta= 0.05
     Davidson diagonalization with overlap
     ethr =  4.16E-09,  avg # of iterations =  4.0

     total cpu time spent up to now is      137.0 secs

     total energy              =    -294.33841643 Ry
     estimated scf accuracy    <       0.00000374 Ry

     iteration # 14     ecut=    40.00 Ry     beta= 0.05
     Davidson diagonalization with overlap
     ethr =  3.60E-09,  avg # of iterations =  1.0

     total cpu time spent up to now is      138.6 secs

     total energy              =    -294.33841709 Ry
     estimated scf accuracy    <       0.00000375 Ry

     iteration # 15     ecut=    40.00 Ry     beta= 0.05
     Davidson diagonalization with overlap
     ethr =  3.60E-09,  avg # of iterations =  1.0

     total cpu time spent up to now is      140.1 secs

     total energy              =    -294.33841636 Ry
     estimated scf accuracy    <       0.00000345 Ry

     iteration # 16     ecut=    40.00 Ry     beta= 0.05
     Davidson diagonalization with overlap
     ethr =  3.32E-09,  avg # of iterations =  2.0

     total cpu time spent up to now is      141.8 secs

     End of self-consistent calculation

          k = 0.0000 0.0000 0.0000 (  3715 PWs)   bands (ev):

   -11.5649 -10.3559  -9.5894  -5.6667  -5.6099  -5.5807  -5.1774  -5.0918
    -5.0753  -4.6010  -4.5636  -4.4471  -4.1053  -4.0974  -3.9459  -3.8616
    -3.8581  -3.7667  -3.6249  -3.5780  -3.5731  -1.6027  -0.7570   2.5995
     2.6149   2.7106   3.1589   3.2088   3.2486   3.2985   3.3288   3.3508
     3.4194   4.2945   4.3870   4.8128   5.4101   5.4817   5.5173   5.7587
     6.2022   6.3441   6.4567   6.4902   6.7904   6.8195   6.9436   6.9708
     6.9770   7.8730   7.8889   8.3198  11.2087  11.2852  11.5426  11.9813
    12.0664  12.3296  12.8061  13.0818  13.1505  14.4546

     the Fermi energy is    10.4263 ev

!    total energy              =    -294.33842167 Ry
     estimated scf accuracy    <       0.00000024 Ry
     smearing contrib. (-TS)   =      -0.00000000 Ry
     internal energy E=F+TS    =    -294.33842167 Ry

     The total energy is F=E-TS. E is the sum of the following terms:
     one-electron contribution =     -22.30898061 Ry
     hartree contribution      =      75.17171563 Ry
     xc contribution           =    -107.45662766 Ry
     ewald contribution        =    -239.74452903 Ry

     convergence has been achieved in  16 iterations

     Forces acting on atoms (cartesian axes, Ry/au):

     atom    1 type  1   force =     0.00101948    0.00497211   -0.00863035
     atom    2 type  1   force =    -0.01308161   -0.01569831   -0.00682244
     atom    3 type  1   force =     0.00250685   -0.00648643   -0.00719878
     atom    4 type  1   force =     0.00651001   -0.00599288    0.00164096
     atom    5 type  1   force =     0.00355551    0.00059894   -0.03285988
     atom    6 type  1   force =    -0.01787675    0.00678928   -0.00439993
     atom    7 type  1   force =     0.00405469    0.00292605   -0.01041281
     atom    8 type  1   force =     0.00992488   -0.01290430   -0.00382421
     atom    9 type  1   force =    -0.00702373    0.00141338   -0.00867571
     atom   10 type  1   force =    -0.00526111   -0.00536951    0.00135947
     atom   11 type  1   force =     0.00099043    0.00201671   -0.00691192
     atom   12 type  1   force =     0.00686421    0.00322482   -0.00705588
     atom   13 type  1   force =     0.00014098    0.00577766   -0.00056201
     atom   14 type  1   force =     0.00011748   -0.00551564   -0.00150866
     atom   15 type  1   force =     0.00536992   -0.00118987   -0.00054484
     atom   16 type  1   force =    -0.00129277   -0.00318096    0.00256619
     atom   17 type  1   force =     0.00424551    0.00500083   -0.00626881
     atom   18 type  1   force =     0.00497278    0.00088361   -0.00777479
     atom   19 type  1   force =    -0.00059113   -0.00205710   -0.00317115
     atom   20 type  1   force =     0.00053183    0.01673084   -0.01587353
     atom   21 type  1   force =    -0.00176780    0.02455418   -0.00175977
     atom   22 type  1   force =    -0.00293192   -0.00055443   -0.01027222
     atom   23 type  1   force =    -0.00380037    0.00574997   -0.00655377
     atom   24 type  1   force =     0.00172381   -0.01340189    0.00132104
     atom   25 type  2   force =    -0.00273029    0.00008594    0.00458044
     atom   26 type  2   force =     0.00100977   -0.00298223    0.00428039
     atom   27 type  2   force =     0.00189055   -0.00366340    0.00340262
     atom   28 type  2   force =    -0.00173942    0.00479057    0.00236436
     atom   29 type  2   force =    -0.00314421   -0.00460042    0.00351444
     atom   30 type  2   force =     0.00254847    0.00560904    0.00251206
     atom   31 type  2   force =    -0.02569944   -0.00534206    0.06212560
     atom   32 type  2   force =     0.02896342   -0.00218448    0.06141392

     Total force =     0.107076     Total SCF correction =     0.000402


     Computing stress (Cartesian axis) and pressure

          total   stress  (Ry/bohr**3)                   (kbar)     P=      330.33
   0.00352424   0.00002401  -0.00001291          518.43        3.53       -1.90
   0.00002401   0.00295512   0.00003305            3.53      434.71        4.86
  -0.00001291   0.00003305   0.00025724           -1.90        4.86       37.84

     Energy error            =      8.2E-01 Ry
     Gradient error          =      6.2E-02 Ry/Bohr
     Cell gradient error     =      5.2E+02 kbar

     number of scf cycles    =   3
     number of bfgs steps    =   2

     enthalpy           old  =    -293.5152850952 Ry
     enthalpy           new  =    -294.3384216702 Ry

     CASE: enthalpy          _new < enthalpy          _old

     new trust radius        =       0.2271234127 bohr
     new conv_thr            =       0.0000006213 Ry

     new unit-cell volume =   1282.82513 a.u.^3 (   190.09507 Ang^3 )
     density =      2.58851 g/cm^3

CELL_PARAMETERS (alat=  8.00000437)
   1.170184039   0.000660103  -0.000876994
  -0.584520936   0.999671797   0.001950842
  -0.001773547   0.003624597   2.141131480

ATOMIC_POSITIONS (crystal)
C                0.0000273185       -0.0000385323        0.1787372891    0   0   1
C                0.0000078221        0.0000001839        0.4231393144    0   0   1
C                0.0000017980       -0.0000055884        0.8576254519    0   0   1
C                0.1666619836        0.3332973806        0.1741719804    0   0   1
C                0.3333670472        0.1666426232        0.4237118103    0   0   1
C                0.1666879036        0.3333338152        0.8604063450    0   0   1
C                0.5000364226       -0.0000159245        0.1787077185    0   0   1
C                0.5000436904       -0.0000186560        0.4237722674    0   0   1
C                0.5000008687        0.0000108103        0.8576034057    0   0   1
C                0.6666932040        0.3333056362        0.1741040500    0   0   1
C                0.8333700655        0.1666528137        0.4282395572    0   0   1
C                0.6666500457        0.3333579980        0.8597029640    0   0   1
C                0.0000242419        0.4999892688        0.1808057851    0   0   1
C                0.0000147919        0.4999638055        0.4211823045    0   0   1
C               -0.0000156793        0.5000180079        0.8630681790    0   0   1
C                0.1666928796        0.8333041166        0.1743150434    0   0   1
C                0.3333719830        0.6666536497        0.4284953701    0   0   1
C                0.1666449227        0.8333391830        0.8594697479    0   0   1
C                0.5000269567        0.4999689814        0.1797309861    0   0   1
C                0.5000106586        0.4999888719        0.4206769971    0   0   1
C                0.5000002281        0.5000033040        0.8588909279    0   0   1
C                0.6667041899        0.8333077430        0.1743879829    0   0   1
C                0.8333283233        0.6666679842        0.4284469548    0   0   1
C                0.6666762996        0.8333365172        0.8651757069    0   0   1
H                0.9205135817        1.1806180656        0.6793177771
H                0.7437465705        1.1521074205        0.6800074959
H                0.3187016782        0.7410582743        0.6794209583
H                0.3511243533        0.5956641633        0.6793579935
H                0.9067961566        0.7574881613        0.6796031244
H                0.7621388877        0.5797474843        0.6784640682
H                0.2595849923        0.1972152474        0.6326272802
H                0.4196785706        0.2084581999        0.6324981902



     Writing config-only to output data dir ../results/3h2_abs/3H2abs_C.save/ :
     XML data file
     NEW-OLD atomic charge density approx. for the potential

     Check: negative core charge=   -0.000004

     total cpu time spent up to now is      145.9 secs

     Self-consistent Calculation

     iteration #  1     ecut=    40.00 Ry     beta= 0.05
     Davidson diagonalization with overlap
     ethr =  1.00E-06,  avg # of iterations = 11.0

     total cpu time spent up to now is      150.5 secs

     total energy              =    -294.45957858 Ry
     estimated scf accuracy    <       0.02388778 Ry

     iteration #  2     ecut=    40.00 Ry     beta= 0.05
     Davidson diagonalization with overlap
     ethr =  2.30E-05,  avg # of iterations =  1.0

     total cpu time spent up to now is      152.1 secs

     total energy              =    -294.44719907 Ry
     estimated scf accuracy    <       0.02220608 Ry

     iteration #  3     ecut=    40.00 Ry     beta= 0.05
     Davidson diagonalization with overlap
     ethr =  2.14E-05,  avg # of iterations =  2.0

     total cpu time spent up to now is      153.8 secs

     total energy              =    -294.45085015 Ry
     estimated scf accuracy    <       0.00052646 Ry

     iteration #  4     ecut=    40.00 Ry     beta= 0.05
     Davidson diagonalization with overlap
     ethr =  5.06E-07,  avg # of iterations =  5.0

     total cpu time spent up to now is      156.0 secs

     total energy              =    -294.45114941 Ry
     estimated scf accuracy    <       0.00043513 Ry

     iteration #  5     ecut=    40.00 Ry     beta= 0.05
     Davidson diagonalization with overlap
     ethr =  4.18E-07,  avg # of iterations =  2.0

     total cpu time spent up to now is      157.6 secs

     total energy              =    -294.45102407 Ry
     estimated scf accuracy    <       0.00044044 Ry

     iteration #  6     ecut=    40.00 Ry     beta= 0.05
     Davidson diagonalization with overlap
     ethr =  4.18E-07,  avg # of iterations =  2.0

     total cpu time spent up to now is      159.3 secs

     total energy              =    -294.45103091 Ry
     estimated scf accuracy    <       0.00011719 Ry

     iteration #  7     ecut=    40.00 Ry     beta= 0.05
     Davidson diagonalization with overlap
     ethr =  1.13E-07,  avg # of iterations =  2.0

     total cpu time spent up to now is      160.9 secs

     total energy              =    -294.45103579 Ry
     estimated scf accuracy    <       0.00006406 Ry

     iteration #  8     ecut=    40.00 Ry     beta= 0.05
     Davidson diagonalization with overlap
     ethr =  6.16E-08,  avg # of iterations =  1.0

     total cpu time spent up to now is      162.5 secs

     total energy              =    -294.45102627 Ry
     estimated scf accuracy    <       0.00004714 Ry

     iteration #  9     ecut=    40.00 Ry     beta= 0.05
     Davidson diagonalization with overlap
     ethr =  4.53E-08,  avg # of iterations =  2.0

     total cpu time spent up to now is      164.2 secs

     total energy              =    -294.45103051 Ry
     estimated scf accuracy    <       0.00001963 Ry

     iteration # 10     ecut=    40.00 Ry     beta= 0.05
     Davidson diagonalization with overlap
     ethr =  1.89E-08,  avg # of iterations =  4.0

     total cpu time spent up to now is      165.9 secs

     total energy              =    -294.45103156 Ry
     estimated scf accuracy    <       0.00001579 Ry

     iteration # 11     ecut=    40.00 Ry     beta= 0.05
     Davidson diagonalization with overlap
     ethr =  1.52E-08,  avg # of iterations =  1.0

     total cpu time spent up to now is      167.5 secs

     total energy              =    -294.45102826 Ry
     estimated scf accuracy    <       0.00001410 Ry

     iteration # 12     ecut=    40.00 Ry     beta= 0.05
     Davidson diagonalization with overlap
     ethr =  1.36E-08,  avg # of iterations =  2.0

     total cpu time spent up to now is      169.2 secs

     total energy              =    -294.45102869 Ry
     estimated scf accuracy    <       0.00000577 Ry

     iteration # 13     ecut=    40.00 Ry     beta= 0.05
     Davidson diagonalization with overlap
     ethr =  5.55E-09,  avg # of iterations =  2.0

     total cpu time spent up to now is      170.9 secs

     total energy              =    -294.45102930 Ry
     estimated scf accuracy    <       0.00000257 Ry

     iteration # 14     ecut=    40.00 Ry     beta= 0.05
     Davidson diagonalization with overlap
     ethr =  2.47E-09,  avg # of iterations =  1.0

     total cpu time spent up to now is      172.5 secs

     total energy              =    -294.45102851 Ry
     estimated scf accuracy    <       0.00000221 Ry

     iteration # 15     ecut=    40.00 Ry     beta= 0.05
     Davidson diagonalization with overlap
     ethr =  2.13E-09,  avg # of iterations =  2.0

     total cpu time spent up to now is      174.2 secs

     total energy              =    -294.45102897 Ry
     estimated scf accuracy    <       0.00000083 Ry

     iteration # 16     ecut=    40.00 Ry     beta= 0.05
     Davidson diagonalization with overlap
     ethr =  7.94E-10,  avg # of iterations =  2.0

     total cpu time spent up to now is      175.9 secs

     End of self-consistent calculation

          k = 0.0000 0.0000 0.0000 (  3715 PWs)   bands (ev):

   -11.7076 -10.6123  -9.8421  -6.1628  -6.1214  -5.9468  -5.5710  -5.5332
    -5.4378  -5.2267  -5.1321  -4.9637  -4.4926  -4.4781  -4.3520  -4.3278
    -4.2618  -4.1917  -4.0034  -3.9657  -3.9548  -1.8654  -0.9976   1.9328
     2.1392   2.1649   2.4709   2.6103   2.6598   2.7284   2.8058   2.8169
     2.8648   3.5903   3.6569   4.2673   4.8167   4.8464   4.9348   5.1192
     5.5241   5.6723   5.7043   5.8473   5.9723   6.0109   6.0892   6.1337
     6.2406   7.1427   7.2332   7.5600  10.4022  10.4771  10.7112  11.1115
    11.1473  11.3413  11.9057  12.1336  12.1373  13.6348

     the Fermi energy is     9.7335 ev

!    total energy              =    -294.45103033 Ry
     estimated scf accuracy    <       0.00000017 Ry
     smearing contrib. (-TS)   =      -0.00000000 Ry
     internal energy E=F+TS    =    -294.45103033 Ry

     The total energy is F=E-TS. E is the sum of the following terms:
     one-electron contribution =     -27.20735059 Ry
     hartree contribution      =      74.68230285 Ry
     xc contribution           =    -106.08504627 Ry
     ewald contribution        =    -235.84093632 Ry

     convergence has been achieved in  16 iterations

     Forces acting on atoms (cartesian axes, Ry/au):

     atom    1 type  1   force =    -0.00147423   -0.01165683   -0.00546651
     atom    2 type  1   force =    -0.00807688    0.00290883   -0.00681757
     atom    3 type  1   force =     0.00138087   -0.02596691   -0.00221229
     atom    4 type  1   force =     0.00519844    0.01082523    0.00328142
     atom    5 type  1   force =     0.00176517   -0.01712992   -0.01874026
     atom    6 type  1   force =    -0.01367356    0.02617612   -0.00489572
     atom    7 type  1   force =     0.00329857   -0.01341860   -0.00693477
     atom    8 type  1   force =     0.00808110    0.00513768   -0.00603694
     atom    9 type  1   force =    -0.00850560   -0.01888623   -0.00345124
     atom   10 type  1   force =    -0.00226574    0.01092857    0.00322059
     atom   11 type  1   force =    -0.00048353   -0.01471695   -0.00900788
     atom   12 type  1   force =     0.00650882    0.02332629   -0.00609738
     atom   13 type  1   force =    -0.00083179   -0.01177410   -0.00021681
     atom   14 type  1   force =     0.00097461    0.01159298   -0.00071130
     atom   15 type  1   force =     0.00344218   -0.02121596   -0.00341189
     atom   16 type  1   force =     0.00023825    0.01436205    0.00329604
     atom   17 type  1   force =     0.00206716   -0.01088601   -0.01071327
     atom   18 type  1   force =     0.00592305    0.02141225   -0.00650776
     atom   19 type  1   force =    -0.00171743   -0.01622649   -0.00171782
     atom   20 type  1   force =     0.00160915    0.02843349   -0.00923690
     atom   21 type  1   force =    -0.00295870    0.00232520    0.00212622
     atom   22 type  1   force =    -0.00161302    0.01731662   -0.00342968
     atom   23 type  1   force =    -0.00362835   -0.01064317   -0.01130066
     atom   24 type  1   force =     0.00331576    0.00640154   -0.00715583
     atom   25 type  2   force =    -0.00254340    0.00054342    0.00316742
     atom   26 type  2   force =     0.00139302   -0.00202564    0.00306362
     atom   27 type  2   force =    -0.00553343    0.00614982    0.00224547
     atom   28 type  2   force =     0.00587091   -0.00516670    0.00146631
     atom   29 type  2   force =     0.00267119    0.01198407    0.00246658
     atom   30 type  2   force =    -0.00362108   -0.01086074    0.00147363
     atom   31 type  2   force =    -0.02330217   -0.00606636    0.04939207
     atom   32 type  2   force =     0.02649067   -0.00318355    0.04886308

     Total force =     0.087943     Total SCF correction =     0.000571


     Computing stress (Cartesian axis) and pressure

          total   stress  (Ry/bohr**3)                   (kbar)     P=       44.43
  -0.00015834  -0.00004790  -0.00000808          -23.29       -7.05       -1.19
  -0.00004790   0.00103932   0.00000291           -7.05      152.89        0.43
  -0.00000808   0.00000291   0.00002516           -1.19        0.43        3.70

     Energy error            =      1.1E-01 Ry
     Gradient error          =      4.9E-02 Ry/Bohr
     Cell gradient error     =      1.5E+02 kbar

     number of scf cycles    =   4
     number of bfgs steps    =   3

     enthalpy           old  =    -294.3384216702 Ry
     enthalpy           new  =    -294.4510303292 Ry

     CASE: enthalpy          _new < enthalpy          _old

     new trust radius        =       0.1701636074 bohr
     new conv_thr            =       0.0000004939 Ry

     new unit-cell volume =   1309.47028 a.u.^3 (   194.04348 Ang^3 )
     density =      2.53583 g/cm^3

CELL_PARAMETERS (alat=  8.00000437)
   1.161018252  -0.000798460  -0.001274942
  -0.581199737   1.024120541   0.002491483
  -0.002612216   0.004332830   2.151822993

ATOMIC_POSITIONS (crystal)
C                0.0000272474       -0.0000403782        0.1780420610    0   0   1
C                0.0000077198       -0.0000019824        0.4224991788    0   0   1
C                0.0000017811       -0.0000064731        0.8573639006    0   0   1
C                0.1666620273        0.3332982541        0.1744477487    0   0   1
C                0.3333668200        0.1666362333        0.4214904793    0   0   1
C                0.1666878337        0.3333323297        0.8600110557    0   0   1
C                0.5000363310       -0.0000182435        0.1778441939    0   0   1
C                0.5000435929       -0.0000204890        0.4232789766    0   0   1
C                0.5000008341        0.0000095245        0.8571843980    0   0   1
C                0.6666932473        0.3333064805        0.1743675577    0   0   1
C                0.8333699361        0.1666501546        0.4274448317    0   0   1
C                0.6666499623        0.3333560763        0.8591546888    0   0   1
C                0.0000242392        0.4999891818        0.1806362462    0   0   1
C                0.0000147827        0.4999635395        0.4211989882    0   0   1
C               -0.0000157364        0.5000170638        0.8626777110    0   0   1
C                0.1666929200        0.8333050219        0.1746157414    0   0   1
C                0.3333718205        0.6666505373        0.4275888936    0   0   1
C                0.1666448333        0.8333371109        0.8588387502    0   0   1
C                0.5000269351        0.4999683777        0.1794691737    0   0   1
C                0.5000105405        0.4999856832        0.4196041458    0   0   1
C                0.5000002725        0.5000038354        0.8590923987    0   0   1
C                0.6667041509        0.8333063052        0.1736533231    0   0   1
C                0.8333281511        0.6666646969        0.4274934813    0   0   1
C                0.6666761731        0.8333346398        0.8645698830    0   0   1
H                0.9189711902        1.1805748283        0.6796290242
H                0.7447823255        1.1517082610        0.6802970019
H                0.3185429136        0.7411009488        0.6796426864
H                0.3514788916        0.5958648730        0.6794809678
H                0.9071824245        0.7583995491        0.6798365053
H                0.7616919542        0.5791168097        0.6785987631
H                0.2568536288        0.1959677151        0.6380031987
H                0.4219970286        0.2074886748        0.6378077337



     Writing config-only to output data dir ../results/3h2_abs/3H2abs_C.save/ :
     XML data file
     NEW-OLD atomic charge density approx. for the potential

     Check: negative core charge=   -0.000004

     total cpu time spent up to now is      179.7 secs

     Self-consistent Calculation

     iteration #  1     ecut=    40.00 Ry     beta= 0.05
     Davidson diagonalization with overlap
     ethr =  1.00E-06,  avg # of iterations = 12.0

     total cpu time spent up to now is      184.3 secs

     total energy              =    -294.45983151 Ry
     estimated scf accuracy    <       0.00670134 Ry

     iteration #  2     ecut=    40.00 Ry     beta= 0.05
     Davidson diagonalization with overlap
     ethr =  6.44E-06,  avg # of iterations =  1.0

     total cpu time spent up to now is      185.8 secs

     total energy              =    -294.45634170 Ry
     estimated scf accuracy    <       0.00628468 Ry

     iteration #  3     ecut=    40.00 Ry     beta= 0.05
     Davidson diagonalization with overlap
     ethr =  6.04E-06,  avg # of iterations =  2.0

     total cpu time spent up to now is      187.6 secs

     total energy              =    -294.45727150 Ry
     estimated scf accuracy    <       0.00013031 Ry

     iteration #  4     ecut=    40.00 Ry     beta= 0.05
     Davidson diagonalization with overlap
     ethr =  1.25E-07,  avg # of iterations =  3.0

     total cpu time spent up to now is      189.7 secs

     total energy              =    -294.45732190 Ry
     estimated scf accuracy    <       0.00007487 Ry

     iteration #  5     ecut=    40.00 Ry     beta= 0.05
     Davidson diagonalization with overlap
     ethr =  7.20E-08,  avg # of iterations =  1.0

     total cpu time spent up to now is      191.4 secs

     total energy              =    -294.45729279 Ry
     estimated scf accuracy    <       0.00007095 Ry

     iteration #  6     ecut=    40.00 Ry     beta= 0.05
     Davidson diagonalization with overlap
     ethr =  6.82E-08,  avg # of iterations =  3.0

     total cpu time spent up to now is      193.2 secs

     total energy              =    -294.45730710 Ry
     estimated scf accuracy    <       0.00000900 Ry

     iteration #  7     ecut=    40.00 Ry     beta= 0.05
     Davidson diagonalization with overlap
     ethr =  8.65E-09,  avg # of iterations =  2.0

     total cpu time spent up to now is      195.0 secs

     total energy              =    -294.45730790 Ry
     estimated scf accuracy    <       0.00000750 Ry

     iteration #  8     ecut=    40.00 Ry     beta= 0.05
     Davidson diagonalization with overlap
     ethr =  7.21E-09,  avg # of iterations =  1.0

     total cpu time spent up to now is      196.5 secs

     total energy              =    -294.45730615 Ry
     estimated scf accuracy    <       0.00000667 Ry

     iteration #  9     ecut=    40.00 Ry     beta= 0.05
     Davidson diagonalization with overlap
     ethr =  6.42E-09,  avg # of iterations =  2.0

     total cpu time spent up to now is      198.2 secs

     total energy              =    -294.45730657 Ry
     estimated scf accuracy    <       0.00000103 Ry

     iteration # 10     ecut=    40.00 Ry     beta= 0.05
     Davidson diagonalization with overlap
     ethr =  9.89E-10,  avg # of iterations =  2.0

     total cpu time spent up to now is      200.0 secs

     End of self-consistent calculation

          k = 0.0000 0.0000 0.0000 (  3715 PWs)   bands (ev):

   -11.7537 -10.7130  -9.9013  -6.3830  -6.1725  -6.1249  -5.7795  -5.5898
    -5.5765  -5.4804  -5.2737  -5.1708  -4.6242  -4.6212  -4.4964  -4.4130
    -4.4064  -4.3325  -4.0958  -4.0753  -4.0715  -1.9424  -1.0687   1.7881
     1.8161   2.0960   2.2575   2.3495   2.4607   2.4927   2.5957   2.7538
     2.8360   3.3572   3.5312   4.1095   4.5625   4.6840   4.7852   4.9201
     5.3833   5.4049   5.4329   5.5119   5.6937   5.7717   5.7916   5.8568
     6.0546   6.9167   7.0263   7.2618  10.1626  10.2284  10.4470  10.7915
    10.8885  11.0889  11.6115  11.7452  11.8727  13.3551

     the Fermi energy is     9.4975 ev

!    total energy              =    -294.45730698 Ry
     estimated scf accuracy    <       0.00000042 Ry
     smearing contrib. (-TS)   =      -0.00000000 Ry
     internal energy E=F+TS    =    -294.45730698 Ry

     The total energy is F=E-TS. E is the sum of the following terms:
     one-electron contribution =     -29.28587656 Ry
     hartree contribution      =      74.76303770 Ry
     xc contribution           =    -105.61549982 Ry
     ewald contribution        =    -234.31896830 Ry

     convergence has been achieved in  10 iterations

     Forces acting on atoms (cartesian axes, Ry/au):

     atom    1 type  1   force =    -0.00037988    0.01198125   -0.00275245
     atom    2 type  1   force =    -0.00877870   -0.01887110   -0.00727214
     atom    3 type  1   force =     0.00330964    0.00446589   -0.00187476
     atom    4 type  1   force =     0.00142983   -0.01326473   -0.00038559
     atom    5 type  1   force =     0.00342096    0.00729133   -0.00510301
     atom    6 type  1   force =    -0.01623026   -0.00437706   -0.00336874
     atom    7 type  1   force =     0.00567956    0.01053208   -0.00369399
     atom    8 type  1   force =     0.00520377   -0.01712854   -0.00760148
     atom    9 type  1   force =    -0.00555014    0.01148420   -0.00263287
     atom   10 type  1   force =    -0.00293438   -0.01356120   -0.00037155
     atom   11 type  1   force =     0.00142534    0.00837729   -0.00654122
     atom   12 type  1   force =     0.00415909   -0.00668769   -0.00445630
     atom   13 type  1   force =     0.00125620    0.01098003    0.00003558
     atom   14 type  1   force =    -0.00101094   -0.01097680   -0.00270181
     atom   15 type  1   force =     0.00579095    0.00850322   -0.00506474
     atom   16 type  1   force =    -0.00166563   -0.00973513    0.00032270
     atom   17 type  1   force =     0.00318465    0.01318667   -0.00792523
     atom   18 type  1   force =     0.00362877   -0.00950697   -0.00456901
     atom   19 type  1   force =     0.00025078    0.00903692   -0.00057692
     atom   20 type  1   force =    -0.00052366    0.00162606   -0.00709169
     atom   21 type  1   force =    -0.00030953    0.03225220   -0.00027059
     atom   22 type  1   force =    -0.00362686   -0.00701192   -0.00266294
     atom   23 type  1   force =    -0.00056778    0.01312075   -0.00816944
     atom   24 type  1   force =     0.00108147   -0.02281014   -0.00713835
     atom   25 type  2   force =     0.01434688    0.00313865    0.00192166
     atom   26 type  2   force =    -0.01561591   -0.00482073    0.00208383
     atom   27 type  2   force =     0.00010655   -0.00136404    0.00173380
     atom   28 type  2   force =     0.00054661    0.00167892    0.00086462
     atom   29 type  2   force =    -0.00383588   -0.00623654    0.00186937
     atom   30 type  2   force =     0.00224304    0.00695254    0.00122864
     atom   31 type  2   force =    -0.00342445   -0.00438247    0.04117402
     atom   32 type  2   force =     0.00738991   -0.00387296    0.04099059

     Total force =     0.067989     Total SCF correction =     0.001120


     Computing stress (Cartesian axis) and pressure

          total   stress  (Ry/bohr**3)                   (kbar)     P=      -44.83
   0.00035252   0.00006152  -0.00000224           51.86        9.05       -0.33
   0.00006152  -0.00121753   0.00002188            9.05     -179.10        3.22
  -0.00000224   0.00002188  -0.00004924           -0.33        3.22       -7.24

     Energy error            =      6.3E-03 Ry
     Gradient error          =      4.1E-02 Ry/Bohr
     Cell gradient error     =      1.8E+02 kbar

     number of scf cycles    =   5
     number of bfgs steps    =   4

     enthalpy           old  =    -294.4510303292 Ry
     enthalpy           new  =    -294.4573069807 Ry

     CASE: enthalpy          _new < enthalpy          _old

     new trust radius        =       0.0711407289 bohr
     new conv_thr            =       0.0000004117 Ry

     new unit-cell volume =   1303.12371 a.u.^3 (   193.10301 Ang^3 )
     density =      2.54818 g/cm^3

CELL_PARAMETERS (alat=  8.00000437)
   1.168253634  -0.000069385  -0.001354689
  -0.584186656   1.013722851   0.002848879
  -0.002776448   0.005193595   2.149197671

ATOMIC_POSITIONS (crystal)
C                0.0000272270       -0.0000411431        0.1778970825    0   0   1
C                0.0000077085       -0.0000036615        0.4221210578    0   0   1
C                0.0000017721       -0.0000068927        0.8572706155    0   0   1
C                0.1666620437        0.3332983815        0.1744616110    0   0   1
C                0.3333667344        0.1666344153        0.4211464801    0   0   1
C                0.1666878201        0.3333314508        0.8598105449    0   0   1
C                0.5000363061       -0.0000192549        0.1776492965    0   0   1
C                0.5000435879       -0.0000222037        0.4228846713    0   0   1
C                0.5000008212        0.0000089036        0.8570528163    0   0   1
C                0.6666932633        0.3333066090        0.1743821088    0   0   1
C                0.8333699126        0.1666484631        0.4270800327    0   0   1
C                0.6666499450        0.3333549477        0.8589025399    0   0   1
C                0.0000242379        0.4999891800        0.1806617855    0   0   1
C                0.0000147866        0.4999630189        0.4210643072    0   0   1
C               -0.0000157361        0.5000159396        0.8624505463    0   0   1
C                0.1666929352        0.8333052724        0.1746527255    0   0   1
C                0.3333717948        0.6666484868        0.4271384075    0   0   1
C                0.1666448143        0.8333359435        0.8585835970    0   0   1
C                0.5000269276        0.4999681938        0.1794420650    0   0   1
C                0.5000105121        0.4999839600        0.4192386134    0   0   1
C                0.5000002803        0.5000039278        0.8591078920    0   0   1
C                0.6667041381        0.8333057029        0.1735630762    0   0   1
C                0.8333281236        0.6666625688        0.4270243196    0   0   1
C                0.6666761655        0.8333328943        0.8641953788    0   0   1
H                0.9205522254        1.1809468699        0.6797368393
H                0.7429748415        1.1511444400        0.6804130355
H                0.3183683909        0.7414736803        0.6797329948
H                0.3517457462        0.5955542760        0.6795311936
H                0.9071533843        0.7585701371        0.6799368629
H                0.7616149390        0.5790508920        0.6786616280
H                0.2549502151        0.1953110281        0.6401380584
H                0.4237654122        0.2070689335        0.6399304753



     Writing config-only to output data dir ../results/3h2_abs/3H2abs_C.save/ :
     XML data file
     NEW-OLD atomic charge density approx. for the potential

     Check: negative core charge=   -0.000004

     total cpu time spent up to now is      203.9 secs

     Self-consistent Calculation

     iteration #  1     ecut=    40.00 Ry     beta= 0.05
     Davidson diagonalization with overlap
     ethr =  1.00E-06,  avg # of iterations =  8.0

     total cpu time spent up to now is      207.3 secs

     total energy              =    -294.47202512 Ry
     estimated scf accuracy    <       0.00137455 Ry

     iteration #  2     ecut=    40.00 Ry     beta= 0.05
     Davidson diagonalization with overlap
     ethr =  1.32E-06,  avg # of iterations =  1.0

     total cpu time spent up to now is      208.9 secs

     total energy              =    -294.47140707 Ry
     estimated scf accuracy    <       0.00131740 Ry

     iteration #  3     ecut=    40.00 Ry     beta= 0.05
     Davidson diagonalization with overlap
     ethr =  1.27E-06,  avg # of iterations =  2.0

     total cpu time spent up to now is      210.5 secs

     total energy              =    -294.47150040 Ry
     estimated scf accuracy    <       0.00004823 Ry

     iteration #  4     ecut=    40.00 Ry     beta= 0.05
     Davidson diagonalization with overlap
     ethr =  4.64E-08,  avg # of iterations =  5.0

     total cpu time spent up to now is      212.8 secs

     total energy              =    -294.47151998 Ry
     estimated scf accuracy    <       0.00002023 Ry

     iteration #  5     ecut=    40.00 Ry     beta= 0.05
     Davidson diagonalization with overlap
     ethr =  1.94E-08,  avg # of iterations =  2.0

     total cpu time spent up to now is      214.4 secs

     total energy              =    -294.47151853 Ry
     estimated scf accuracy    <       0.00002043 Ry

     iteration #  6     ecut=    40.00 Ry     beta= 0.05
     Davidson diagonalization with overlap
     ethr =  1.94E-08,  avg # of iterations =  1.0

     total cpu time spent up to now is      216.0 secs

     total energy              =    -294.47151186 Ry
     estimated scf accuracy    <       0.00001462 Ry

     iteration #  7     ecut=    40.00 Ry     beta= 0.05
     Davidson diagonalization with overlap
     ethr =  1.41E-08,  avg # of iterations =  2.0

     total cpu time spent up to now is      217.9 secs

     total energy              =    -294.47151471 Ry
     estimated scf accuracy    <       0.00000249 Ry

     iteration #  8     ecut=    40.00 Ry     beta= 0.05
     Davidson diagonalization with overlap
     ethr =  2.39E-09,  avg # of iterations =  2.0

     total cpu time spent up to now is      219.5 secs

     total energy              =    -294.47151471 Ry
     estimated scf accuracy    <       0.00000226 Ry

     iteration #  9     ecut=    40.00 Ry     beta= 0.05
     Davidson diagonalization with overlap
     ethr =  2.17E-09,  avg # of iterations =  1.0

     total cpu time spent up to now is      221.1 secs

     total energy              =    -294.47151427 Ry
     estimated scf accuracy    <       0.00000178 Ry

     iteration # 10     ecut=    40.00 Ry     beta= 0.05
     Davidson diagonalization with overlap
     ethr =  1.72E-09,  avg # of iterations =  2.0

     total cpu time spent up to now is      222.8 secs

     total energy              =    -294.47151451 Ry
     estimated scf accuracy    <       0.00000097 Ry

     iteration # 11     ecut=    40.00 Ry     beta= 0.05
     Davidson diagonalization with overlap
     ethr =  9.35E-10,  avg # of iterations =  1.0

     total cpu time spent up to now is      224.4 secs

     total energy              =    -294.47151416 Ry
     estimated scf accuracy    <       0.00000068 Ry

     iteration # 12     ecut=    40.00 Ry     beta= 0.05
     Davidson diagonalization with overlap
     ethr =  6.53E-10,  avg # of iterations =  3.0

     total cpu time spent up to now is      226.2 secs

     End of self-consistent calculation

          k = 0.0000 0.0000 0.0000 (  3715 PWs)   bands (ev):

   -11.7459 -10.7042  -9.8723  -6.2100  -6.2026  -6.1691  -5.6460  -5.5980
    -5.5921  -5.3240  -5.3009  -5.2000  -4.6069  -4.5950  -4.4567  -4.3973
    -4.3683  -4.3118  -4.0593  -4.0463  -4.0339  -1.9112  -1.0492   1.9209
     1.9322   1.9634   2.3634   2.4702   2.4767   2.5930   2.6155   2.6372
     3.0089   3.4947   3.5361   4.1544   4.7068   4.7134   4.7615   4.9687
     5.3667   5.4844   5.5249   5.5693   5.7858   5.7999   5.8791   5.8834
     6.0626   7.0134   7.0319   7.2982  10.2393  10.3003  10.5315  10.8900
    10.9742  11.1224  11.7042  11.8496  11.9134  13.2993

     the Fermi energy is     9.4537 ev

!    total energy              =    -294.47151435 Ry
     estimated scf accuracy    <       0.00000041 Ry
     smearing contrib. (-TS)   =      -0.00000000 Ry
     internal energy E=F+TS    =    -294.47151435 Ry

     The total energy is F=E-TS. E is the sum of the following terms:
     one-electron contribution =     -29.25505460 Ry
     hartree contribution      =      74.96895204 Ry
     xc contribution           =    -105.71050339 Ry
     ewald contribution        =    -234.47490840 Ry

     convergence has been achieved in  12 iterations

     Forces acting on atoms (cartesian axes, Ry/au):

     atom    1 type  1   force =    -0.00138656    0.00048473   -0.00282536
     atom    2 type  1   force =    -0.00717865   -0.00758190   -0.00625226
     atom    3 type  1   force =     0.00250529   -0.01132333   -0.00344038
     atom    4 type  1   force =     0.00219358   -0.00141141   -0.00130241
     atom    5 type  1   force =     0.00231832   -0.00427972   -0.00221088
     atom    6 type  1   force =    -0.01510476    0.01144304   -0.00274186
     atom    7 type  1   force =     0.00464933   -0.00095253   -0.00348443
     atom    8 type  1   force =     0.00572210   -0.00591819   -0.00659764
     atom    9 type  1   force =    -0.00708178   -0.00407208   -0.00438425
     atom   10 type  1   force =    -0.00179741   -0.00175321   -0.00136146
     atom   11 type  1   force =     0.00037116   -0.00289235   -0.00526737
     atom   12 type  1   force =     0.00541409    0.00908407   -0.00356759
     atom   13 type  1   force =     0.00032306   -0.00038357   -0.00075961
     atom   14 type  1   force =    -0.00013650    0.00025928   -0.00356784
     atom   15 type  1   force =     0.00456436   -0.00612893   -0.00512699
     atom   16 type  1   force =    -0.00063882    0.00185112   -0.00121123
     atom   17 type  1   force =     0.00215205    0.00192911   -0.00641770
     atom   18 type  1   force =     0.00484072    0.00512194   -0.00368725
     atom   19 type  1   force =    -0.00072460   -0.00235971   -0.00090054
     atom   20 type  1   force =     0.00039676    0.01247440   -0.00604824
     atom   21 type  1   force =    -0.00169673    0.01813725   -0.00085128
     atom   22 type  1   force =    -0.00260842    0.00492543   -0.00335837
     atom   23 type  1   force =    -0.00139247    0.00179624   -0.00666087
     atom   24 type  1   force =     0.00238732   -0.00914547   -0.00542209
     atom   25 type  2   force =    -0.00291897    0.00076836    0.00201212
     atom   26 type  2   force =     0.00176503   -0.00211113    0.00203801
     atom   27 type  2   force =     0.00077385   -0.00182292    0.00147962
     atom   28 type  2   force =    -0.00021662    0.00241366    0.00061995
     atom   29 type  2   force =    -0.00240006   -0.00139682    0.00155419
     atom   30 type  2   force =     0.00092889    0.00233953    0.00082515
     atom   31 type  2   force =     0.01761074   -0.00369538    0.03945493
     atom   32 type  2   force =    -0.01363432   -0.00579951    0.03946397

     Total force =     0.064195     Total SCF correction =     0.000550


     Computing stress (Cartesian axis) and pressure

          total   stress  (Ry/bohr**3)                   (kbar)     P=      -27.66
  -0.00019778   0.00000566  -0.00000205          -29.09        0.83       -0.30
[...]
               b(3) = (  0.000094 -0.000122  0.463771 )  


     PseudoPot. # 1 for C  read from file:
     /home/edoardocabiati/.burai/.pseudopot/C.pz-n-rrkjus_psl.0.1.UPF
     MD5 check sum: a3cecbabebb5b3a1aff122f23eb09bb0
     Pseudo is Ultrasoft + core correction, Zval =  4.0
     Generated using "atomic" code by A. Dal Corso  v.5.0.2 svn rev. 9415
     Using radial grid of 1073 points,  4 beta functions with: 
                l(1) =   0
                l(2) =   0
                l(3) =   1
                l(4) =   1
     Q(r) pseudized with 0 coefficients 


     PseudoPot. # 2 for H  read from file:
     /home/edoardocabiati/.burai/.pseudopot/H.pz-rrkjus_psl.0.1.UPF
     MD5 check sum: 1467ebfaa2880178e80d097b970df8c7
     Pseudo is Ultrasoft, Zval =  1.0
     Generated using "atomic" code by A. Dal Corso  v.5.0.2 svn rev. 9415
     Using radial grid of  929 points,  2 beta functions with: 
                l(1) =   0
                l(2) =   0
     Q(r) pseudized with 0 coefficients 


     atomic species   valence    mass     pseudopotential
     C                 4.00    12.01100     C ( 1.00)
     H                 1.00     1.00784     H ( 1.00)

     No symmetry found



   Cartesian axes

     site n.     atom                  positions (alat units)
         1        C      tau(   1) = (  -0.0000469   0.0000726   0.3766126  )
         2        C      tau(   2) = (  -0.0002712   0.0003573   0.9008923  )
         3        C      tau(   3) = (  -0.0005711   0.0007260   1.8472274  )
         4        C      tau(   4) = (  -0.0000813   0.3366474   0.3681066  )
         5        C      tau(   5) = (   0.2912528   0.1686567   0.9085909  )
         6        C      tau(   6) = (  -0.0005366   0.3372736   1.8521959  )
         7        C      tau(   7) = (   0.5829355   0.0001077   0.3769625  )
         8        C      tau(   8) = (   0.5827708   0.0003408   0.9001499  )
         9        C      tau(   9) = (   0.5824022   0.0007572   1.8490877  )
        10        C      tau(  10) = (   0.5829375   0.3366639   0.3676945  )
        11        C      tau(  11) = (   0.8742790   0.1685900   0.9085090  )
        12        C      tau(  12) = (   0.5823807   0.3373412   1.8502764  )
        13        C      tau(  13) = (  -0.2915379   0.5049320   0.3776308  )
        14        C      tau(  14) = (  -0.2917085   0.5051346   0.8999671  )
        15        C      tau(  15) = (  -0.2920958   0.5056211   1.8496256  )
        16        C      tau(  16) = (  -0.2915364   0.8415172   0.3684776  )
        17        C      tau(  17) = (  -0.0002011   0.6734625   0.9087707  )
        18        C      tau(  18) = (  -0.2921002   0.8422106   1.8524157  )
        19        C      tau(  19) = (   0.2914573   0.5049207   0.3780473  )
        20        C      tau(  20) = (   0.2912305   0.5052376   0.8995251  )
        21        C      tau(  21) = (   0.2909321   0.5055638   1.8505691  )
        22        C      tau(  22) = (   0.2914462   0.8415582   0.3687032  )
        23        C      tau(  23) = (   0.5827247   0.6734882   0.9086258  )
        24        C      tau(  24) = (   0.2909454   0.8421607   1.8526534  )
        25        H      tau(  25) = (   0.3256067   1.2700109   1.4647417  )
        26        H      tau(  26) = (   0.2541615   1.0903578   1.4647470  )
        27        H      tau(  27) = (  -0.0869535   0.7130788   1.4639054  )
        28        H      tau(  28) = (   0.0892017   0.6324277   1.4646865  )
        29        H      tau(  29) = (   0.5835312   0.7717477   1.4651889  )
        30        H      tau(  30) = (   0.5801536   0.5784588   1.4632418  )
        31        H      tau(  31) = (   0.1942883   0.1684365   1.4637278  )
        32        H      tau(  32) = (   0.3874883   0.1680125   1.4637679  )

     number of k points=     1  Gaussian smearing, width (Ry)=  0.0100
                       cart. coord. in units 2pi/alat
        k(    1) = (   0.0000000   0.0000000   0.0000000), wk =   2.0000000

     Dense  grid:   175791 G-vectors     FFT dimensions: (  60,  60, 120)

     Smooth grid:    44479 G-vectors     FFT dimensions: (  40,  40,  72)

     Estimated max dynamical RAM per process >     219.98 MB

     Estimated total dynamical RAM >     439.97 MB

     Check: negative core charge=   -0.000002

     Initial potential from superposition of free atoms

     starting charge     103.9991, renormalised to     104.0000
     Starting wfcs are  104 randomized atomic wfcs

     total cpu time spent up to now is     1510.8 secs

     Self-consistent Calculation

     iteration #  1     ecut=    40.00 Ry     beta= 0.05
     Davidson diagonalization with overlap
     c_bands:  1 eigenvalues not converged
     ethr =  1.00E-06,  avg # of iterations = 20.0

     total cpu time spent up to now is     1531.1 secs

     total energy              =    -295.70740124 Ry
     estimated scf accuracy    <       2.60608323 Ry

     iteration #  2     ecut=    40.00 Ry     beta= 0.05
     Davidson diagonalization with overlap
     ethr =  2.51E-03,  avg # of iterations =  1.0

     total cpu time spent up to now is     1534.8 secs

     total energy              =    -294.25939464 Ry
     estimated scf accuracy    <       2.42606338 Ry

     iteration #  3     ecut=    40.00 Ry     beta= 0.05
     Davidson diagonalization with overlap
     ethr =  2.33E-03,  avg # of iterations =  2.0

     total cpu time spent up to now is     1538.2 secs

     total energy              =    -294.56191857 Ry
     estimated scf accuracy    <       0.04952353 Ry

     iteration #  4     ecut=    40.00 Ry     beta= 0.05
     Davidson diagonalization with overlap
     ethr =  4.76E-05,  avg # of iterations = 14.0

     total cpu time spent up to now is     1545.9 secs

     total energy              =    -294.63153847 Ry
     estimated scf accuracy    <       0.02390734 Ry

     iteration #  5     ecut=    40.00 Ry     beta= 0.05
     Davidson diagonalization with overlap
     ethr =  2.30E-05,  avg # of iterations =  2.0

     total cpu time spent up to now is     1551.3 secs

     total energy              =    -294.61524322 Ry
     estimated scf accuracy    <       0.03831546 Ry

     iteration #  6     ecut=    40.00 Ry     beta= 0.05
     Davidson diagonalization with overlap
     ethr =  2.30E-05,  avg # of iterations =  4.0

     total cpu time spent up to now is     1556.2 secs

     total energy              =    -294.62204889 Ry
     estimated scf accuracy    <       0.00499130 Ry

     iteration #  7     ecut=    40.00 Ry     beta= 0.05
     Davidson diagonalization with overlap
     ethr =  4.80E-06,  avg # of iterations =  5.0

     total cpu time spent up to now is     1561.6 secs

     total energy              =    -294.62248899 Ry
     estimated scf accuracy    <       0.00635432 Ry

     iteration #  8     ecut=    40.00 Ry     beta= 0.05
     Davidson diagonalization with overlap
     ethr =  4.80E-06,  avg # of iterations =  1.0

     total cpu time spent up to now is     1564.6 secs

     total energy              =    -294.62026579 Ry
     estimated scf accuracy    <       0.00577346 Ry

     iteration #  9     ecut=    40.00 Ry     beta= 0.05
     Davidson diagonalization with overlap
     ethr =  4.80E-06,  avg # of iterations =  2.0

     total cpu time spent up to now is     1568.4 secs

     total energy              =    -294.62037877 Ry
     estimated scf accuracy    <       0.00103094 Ry

     iteration # 10     ecut=    40.00 Ry     beta= 0.05
     Davidson diagonalization with overlap
     ethr =  9.91E-07,  avg # of iterations =  4.0

     total cpu time spent up to now is     1572.2 secs

     total energy              =    -294.62059518 Ry
     estimated scf accuracy    <       0.00021940 Ry

     iteration # 11     ecut=    40.00 Ry     beta= 0.05
     Davidson diagonalization with overlap
     ethr =  2.11E-07,  avg # of iterations =  4.0

     total cpu time spent up to now is     1575.7 secs

     total energy              =    -294.62059530 Ry
     estimated scf accuracy    <       0.00023214 Ry

     iteration # 12     ecut=    40.00 Ry     beta= 0.05
     Davidson diagonalization with overlap
     ethr =  2.11E-07,  avg # of iterations =  1.0

     total cpu time spent up to now is     1581.0 secs

     total energy              =    -294.62052346 Ry
     estimated scf accuracy    <       0.00015327 Ry

     iteration # 13     ecut=    40.00 Ry     beta= 0.05
     Davidson diagonalization with overlap
     ethr =  1.47E-07,  avg # of iterations =  4.0

     total cpu time spent up to now is     1586.6 secs

     total energy              =    -294.62055146 Ry
     estimated scf accuracy    <       0.00000933 Ry

     iteration # 14     ecut=    40.00 Ry     beta= 0.05
     Davidson diagonalization with overlap
     ethr =  8.97E-09,  avg # of iterations =  6.0

     total cpu time spent up to now is     1593.7 secs

     total energy              =    -294.62056133 Ry
     estimated scf accuracy    <       0.00000937 Ry

     iteration # 15     ecut=    40.00 Ry     beta= 0.05
     Davidson diagonalization with overlap
     ethr =  8.97E-09,  avg # of iterations =  1.0

     total cpu time spent up to now is     1597.8 secs

     total energy              =    -294.62055925 Ry
     estimated scf accuracy    <       0.00000677 Ry

     iteration # 16     ecut=    40.00 Ry     beta= 0.05
     Davidson diagonalization with overlap
     ethr =  6.51E-09,  avg # of iterations =  2.0

     total cpu time spent up to now is     1601.4 secs

     total energy              =    -294.62055960 Ry
     estimated scf accuracy    <       0.00000186 Ry

     iteration # 17     ecut=    40.00 Ry     beta= 0.05
     Davidson diagonalization with overlap
     ethr =  1.79E-09,  avg # of iterations =  4.0

     total cpu time spent up to now is     1604.8 secs

     total energy              =    -294.62056058 Ry
     estimated scf accuracy    <       0.00000049 Ry

     iteration # 18     ecut=    40.00 Ry     beta= 0.05
     Davidson diagonalization with overlap
     ethr =  4.67E-10,  avg # of iterations =  2.0

     total cpu time spent up to now is     1607.5 secs

     total energy              =    -294.62056096 Ry
     estimated scf accuracy    <       0.00000047 Ry

     iteration # 19     ecut=    40.00 Ry     beta= 0.05
     Davidson diagonalization with overlap
     ethr =  4.51E-10,  avg # of iterations =  1.0

     total cpu time spent up to now is     1610.4 secs

     total energy              =    -294.62056075 Ry
     estimated scf accuracy    <       0.00000060 Ry

     iteration # 20     ecut=    40.00 Ry     beta= 0.05
     Davidson diagonalization with overlap
     ethr =  4.51E-10,  avg # of iterations =  2.0

     total cpu time spent up to now is     1613.2 secs

     total energy              =    -294.62056086 Ry
     estimated scf accuracy    <       0.00000027 Ry

     iteration # 21     ecut=    40.00 Ry     beta= 0.05
     Davidson diagonalization with overlap
     ethr =  2.56E-10,  avg # of iterations =  2.0

     total cpu time spent up to now is     1616.4 secs

     total energy              =    -294.62056101 Ry
     estimated scf accuracy    <       0.00000010 Ry

     iteration # 22     ecut=    40.00 Ry     beta= 0.05
     Davidson diagonalization with overlap
     ethr =  9.58E-11,  avg # of iterations =  5.0

     total cpu time spent up to now is     1619.2 secs

     total energy              =    -294.62056116 Ry
     estimated scf accuracy    <       0.00000004 Ry

     iteration # 23     ecut=    40.00 Ry     beta= 0.05
     Davidson diagonalization with overlap
     ethr =  3.65E-11,  avg # of iterations =  4.0

     total cpu time spent up to now is     1622.1 secs

     total energy              =    -294.62056120 Ry
     estimated scf accuracy    <       0.00000004 Ry

     iteration # 24     ecut=    40.00 Ry     beta= 0.05
     Davidson diagonalization with overlap
     ethr =  3.49E-11,  avg # of iterations =  4.0

     total cpu time spent up to now is     1625.7 secs

     total energy              =    -294.62056133 Ry
     estimated scf accuracy    <       0.00000004 Ry

     iteration # 25     ecut=    40.00 Ry     beta= 0.05
     Davidson diagonalization with overlap
     ethr =  3.49E-11,  avg # of iterations =  1.0

     total cpu time spent up to now is     1628.1 secs

     total energy              =    -294.62056144 Ry
     estimated scf accuracy    <       0.00000004 Ry

     iteration # 26     ecut=    40.00 Ry     beta= 0.05
     Davidson diagonalization with overlap
     ethr =  3.37E-11,  avg # of iterations =  1.0

     total cpu time spent up to now is     1630.6 secs

     total energy              =    -294.62056150 Ry
     estimated scf accuracy    <       0.00000003 Ry

     iteration # 27     ecut=    40.00 Ry     beta= 0.05
     Davidson diagonalization with overlap
     ethr =  3.22E-11,  avg # of iterations =  1.0

     total cpu time spent up to now is     1633.6 secs

     total energy              =    -294.62056159 Ry
     estimated scf accuracy    <       0.00000003 Ry

     iteration # 28     ecut=    40.00 Ry     beta= 0.05
     Davidson diagonalization with overlap
     ethr =  2.41E-11,  avg # of iterations =  2.0

     total cpu time spent up to now is     1636.1 secs

     End of self-consistent calculation

          k = 0.0000 0.0000 0.0000 (  5579 PWs)   bands (ev):

   -11.7105 -10.8946  -9.8460  -6.1254  -6.1211  -6.1205  -5.5891  -5.5788
    -5.5711  -5.3910  -5.3653  -5.3453  -4.7221  -4.7204  -4.7186  -4.3460
    -4.3398  -4.3359  -4.0176  -4.0164  -4.0155  -2.0142  -0.9993   1.9906
     1.9917   1.9919   2.3010   2.3168   2.3351   2.6456   2.6462   2.6500
     3.5570   3.6123   3.6186   4.0076   4.6898   4.7317   4.7503   4.7556
     5.4789   5.5625   5.5643   5.5680   5.6367   5.7430   5.7500   5.8712
     5.8743   7.0369   7.0600   7.0747  10.4630  10.4715  10.4895  11.0736
    11.0888  11.0954  11.8809  11.8941  11.9061  14.2044

     the Fermi energy is     8.4059 ev

!    total energy              =    -294.62056233 Ry
     estimated scf accuracy    <          6.7E-09 Ry
     smearing contrib. (-TS)   =      -0.00000000 Ry
     internal energy E=F+TS    =    -294.62056233 Ry

     The total energy is F=E-TS. E is the sum of the following terms:
     one-electron contribution =     -33.96780198 Ry
     hartree contribution      =      77.39228612 Ry
     xc contribution           =    -105.91625057 Ry
     ewald contribution        =    -232.12879589 Ry

     convergence has been achieved in  28 iterations

     Forces acting on atoms (cartesian axes, Ry/au):

     atom    1 type  1   force =     0.00040500   -0.00043568    0.00036003
     atom    2 type  1   force =     0.00087364   -0.00062966   -0.00017306
     atom    3 type  1   force =     0.00390811   -0.00484196    0.00001281
     atom    4 type  1   force =     0.00025487    0.00002289   -0.00038812
     atom    5 type  1   force =    -0.00021606   -0.00060776    0.00064744
     atom    6 type  1   force =     0.00158316   -0.00096012   -0.00026618
     atom    7 type  1   force =    -0.00009024    0.00054815    0.00043499
     atom    8 type  1   force =    -0.00042687   -0.00067013   -0.00016800
     atom    9 type  1   force =    -0.00165525   -0.00111868   -0.00033902
     atom   10 type  1   force =     0.00056964   -0.00057644   -0.00025745
     atom   11 type  1   force =     0.00009773   -0.00046620    0.00048108
     atom   12 type  1   force =    -0.00668331    0.00728412    0.00033056
     atom   13 type  1   force =    -0.00022479   -0.00065480    0.00016119
     atom   14 type  1   force =     0.00012566    0.00100139    0.00002869
     atom   15 type  1   force =     0.00262862    0.00005250    0.00008211
     atom   16 type  1   force =    -0.00079227    0.00107442   -0.00034824
     atom   17 type  1   force =    -0.00088548    0.00075177    0.00052580
     atom   18 type  1   force =     0.00899150   -0.00840246    0.00007659
     atom   19 type  1   force =    -0.00069498    0.00064121   -0.00007966
     atom   20 type  1   force =     0.00007332   -0.00003943   -0.00006898
     atom   21 type  1   force =    -0.00575042    0.00520124   -0.00066397
     atom   22 type  1   force =     0.00035387   -0.00028055   -0.00117030
     atom   23 type  1   force =     0.00065277    0.00027238    0.00070048
     atom   24 type  1   force =    -0.00316142    0.00287163   -0.00025120
     atom   25 type  2   force =    -0.00114973   -0.00306933    0.00015338
     atom   26 type  2   force =     0.00131671    0.00285307   -0.00009034
     atom   27 type  2   force =     0.00331837   -0.00158178   -0.00006209
     atom   28 type  2   force =    -0.00339021    0.00164002    0.00003336
     atom   29 type  2   force =     0.00023138   -0.00386910   -0.00012504
     atom   30 type  2   force =    -0.00027051    0.00377314    0.00004127
     atom   31 type  2   force =     0.00375339    0.00058172    0.00020507
     atom   32 type  2   force =    -0.00374620   -0.00036556    0.00017683

     Total force =     0.010522     Total SCF correction =     0.000173


     Computing stress (Cartesian axis) and pressure

          total   stress  (Ry/bohr**3)                   (kbar)     P=       87.12
   0.00070072   0.00000043   0.00000057          103.08        0.06        0.08
   0.00000043   0.00069896  -0.00000088            0.06      102.82       -0.13
   0.00000057  -0.00000088   0.00037708            0.08       -0.13       55.47


     Writing all to output data dir ../results/3h2_abs/3H2abs_C.save/ :
     XML data file, charge density, pseudopotentials, collected wavefunctions

     init_run     :      4.63s CPU      4.10s WALL (       2 calls)
     electrons    :   1744.98s CPU   1460.41s WALL (      41 calls)
     update_pot   :      6.08s CPU      4.26s WALL (      39 calls)
     forces       :     60.58s CPU     51.86s WALL (      41 calls)
     stress       :    156.54s CPU    107.38s WALL (      41 calls)

     Called by init_run:
     wfcinit      :      2.59s CPU      2.17s WALL (       2 calls)
     potinit      :      0.27s CPU      0.20s WALL (       2 calls)
     hinit0       :      0.80s CPU      0.77s WALL (       2 calls)

     Called by electrons:
     c_bands      :   1032.90s CPU    848.51s WALL (     665 calls)
     sum_band     :    397.46s CPU    357.33s WALL (     665 calls)
     v_of_rho     :     27.85s CPU     16.08s WALL (     693 calls)
     newd         :    202.25s CPU    189.73s WALL (     693 calls)
     mix_rho      :     83.78s CPU     52.43s WALL (     665 calls)

     Called by c_bands:
     init_us_2    :      9.34s CPU      6.85s WALL (    1332 calls)
     cegterg      :   1012.10s CPU    836.09s WALL (     665 calls)

     Called by *egterg:
     cdiaghg      :     19.93s CPU     20.13s WALL (    2307 calls)
     h_psi        :    657.35s CPU    488.19s WALL (    2361 calls)
     s_psi        :    111.04s CPU    107.21s WALL (    2361 calls)
     g_psi        :      3.07s CPU      2.01s WALL (    1694 calls)

     Called by h_psi:
     h_psi:calbec :    104.35s CPU     99.78s WALL (    2361 calls)
     vloc_psi     :    450.92s CPU    286.45s WALL (    2361 calls)
     add_vuspsi   :     99.65s CPU    100.49s WALL (    2361 calls)

     General routines
     calbec       :    174.28s CPU    169.00s WALL (    3231 calls)
     fft          :     61.35s CPU     37.62s WALL (    4456 calls)
     ffts         :     32.29s CPU     21.16s WALL (   12951 calls)
     fftw         :    377.41s CPU    247.41s WALL (  245544 calls)
     interpolate  :     11.92s CPU      7.43s WALL (     693 calls)

     Parallel routines

     PWSCF        :  33m 7.74s CPU  27m22.10s WALL


   This run was terminated on:  11:19:10   7Aug2024            

=------------------------------------------------------------------------------=
   JOB DONE.
=------------------------------------------------------------------------------=
