LAMMPS data file. CGCMM style. atom_style molecular generated by VMD/TopoTools v1.8 on Tue Jul 02 18:37:17 CEST 2024
 480 atoms
 676 bonds
 1268 angles
 2394 dihedrals
 396 impropers
 1 atom types
 1 bond types
 1 angle types
 1 dihedral types
 1 improper types
 -19.561795 40.438205  xlo xhi
 -17.238000 42.762000  ylo yhi
 -28.325000 31.675000  zlo zhi

# Pair Coeffs
#
# 1  CA

# Bond Coeffs
#
# 1  CA-CA

# Angle Coeffs
#
# 1  CA-CA-CA

# Dihedral Coeffs
#
# 1  CA-CA-CA-CA

# Improper Coeffs
#
# 1  CA-CA-CA-CA

 Masses

 1 12.010700 # CA

 Atoms # molecular

1 1 1 0.000000 0.000000 0.000000 # CA GRA
2 2 1 -1.228024 0.709000 0.000000 # CA GRA
3 3 1 -1.228024 2.127000 0.000000 # CA GRA
4 4 1 0.000000 2.836000 0.000000 # CA GRA
5 5 1 2.456048 0.000000 0.000000 # CA GRA
6 6 1 1.228024 0.709000 0.000000 # CA GRA
7 7 1 1.228024 2.127000 0.000000 # CA GRA
8 8 1 2.456048 2.836000 0.000000 # CA GRA
9 9 1 4.912096 0.000000 0.000000 # CA GRA
10 10 1 3.684072 0.709000 0.000000 # CA GRA
11 11 1 3.684072 2.127000 0.000000 # CA GRA
12 12 1 4.912096 2.836000 0.000000 # CA GRA
13 13 1 7.368144 0.000000 0.000000 # CA GRA
14 14 1 6.140120 0.709000 0.000000 # CA GRA
15 15 1 6.140120 2.127000 0.000000 # CA GRA
16 16 1 7.368144 2.836000 0.000000 # CA GRA
17 17 1 9.824192 0.000000 0.000000 # CA GRA
18 18 1 8.596169 0.709000 0.000000 # CA GRA
19 19 1 8.596169 2.127000 0.000000 # CA GRA
20 20 1 9.824192 2.836000 0.000000 # CA GRA
21 21 1 12.280240 0.000000 0.000000 # CA GRA
22 22 1 11.052217 0.709000 0.000000 # CA GRA
23 23 1 11.052217 2.127000 0.000000 # CA GRA
24 24 1 12.280240 2.836000 0.000000 # CA GRA
25 25 1 14.736288 0.000000 0.000000 # CA GRA
26 26 1 13.508265 0.709000 0.000000 # CA GRA
27 27 1 13.508265 2.127000 0.000000 # CA GRA
28 28 1 14.736288 2.836000 0.000000 # CA GRA
29 29 1 17.192337 0.000000 0.000000 # CA GRA
30 30 1 15.964313 0.709000 0.000000 # CA GRA
31 31 1 15.964313 2.127000 0.000000 # CA GRA
32 32 1 17.192337 2.836000 0.000000 # CA GRA
33 33 1 19.648384 0.000000 0.000000 # CA GRA
34 34 1 18.420361 0.709000 0.000000 # CA GRA
35 35 1 18.420361 2.127000 0.000000 # CA GRA
36 36 1 19.648384 2.836000 0.000000 # CA GRA
37 37 1 22.104433 0.000000 0.000000 # CA GRA
38 38 1 20.876408 0.709000 0.000000 # CA GRA
39 39 1 20.876408 2.127000 0.000000 # CA GRA
40 40 1 22.104433 2.836000 0.000000 # CA GRA
41 41 1 0.000000 4.254000 0.000000 # CA GRA
42 42 1 -1.228024 4.963000 0.000000 # CA GRA
43 43 1 -1.228024 6.381000 0.000000 # CA GRA
44 44 1 0.000000 7.090000 0.000000 # CA GRA
45 45 1 2.456048 4.254000 0.000000 # CA GRA
46 46 1 1.228024 4.963000 0.000000 # CA GRA
47 47 1 1.228024 6.381000 0.000000 # CA GRA
48 48 1 2.456048 7.090000 0.000000 # CA GRA
49 49 1 4.912096 4.254000 0.000000 # CA GRA
50 50 1 3.684072 4.963000 0.000000 # CA GRA
51 51 1 3.684072 6.381000 0.000000 # CA GRA
52 52 1 4.912096 7.090000 0.000000 # CA GRA
53 53 1 7.368144 4.254000 0.000000 # CA GRA
54 54 1 6.140120 4.963000 0.000000 # CA GRA
55 55 1 6.140120 6.381000 0.000000 # CA GRA
56 56 1 7.368144 7.090000 0.000000 # CA GRA
57 57 1 9.824192 4.254000 0.000000 # CA GRA
58 58 1 8.596169 4.963000 0.000000 # CA GRA
59 59 1 8.596169 6.381000 0.000000 # CA GRA
60 60 1 9.824192 7.090000 0.000000 # CA GRA
61 61 1 12.280240 4.254000 0.000000 # CA GRA
62 62 1 11.052217 4.963000 0.000000 # CA GRA
63 63 1 11.052217 6.381000 0.000000 # CA GRA
64 64 1 12.280240 7.090000 0.000000 # CA GRA
65 65 1 14.736288 4.254000 0.000000 # CA GRA
66 66 1 13.508265 4.963000 0.000000 # CA GRA
67 67 1 13.508265 6.381000 0.000000 # CA GRA
68 68 1 14.736288 7.090000 0.000000 # CA GRA
69 69 1 17.192337 4.254000 0.000000 # CA GRA
70 70 1 15.964313 4.963000 0.000000 # CA GRA
71 71 1 15.964313 6.381000 0.000000 # CA GRA
72 72 1 17.192337 7.090000 0.000000 # CA GRA
73 73 1 19.648384 4.254000 0.000000 # CA GRA
74 74 1 18.420361 4.963000 0.000000 # CA GRA
75 75 1 18.420361 6.381000 0.000000 # CA GRA
76 76 1 19.648384 7.090000 0.000000 # CA GRA
77 77 1 22.104433 4.254000 0.000000 # CA GRA
78 78 1 20.876408 4.963000 0.000000 # CA GRA
79 79 1 20.876408 6.381000 0.000000 # CA GRA
80 80 1 22.104433 7.090000 0.000000 # CA GRA
81 81 1 0.000000 8.508000 0.000000 # CA GRA
82 82 1 -1.228024 9.217000 0.000000 # CA GRA
83 83 1 -1.228024 10.635000 0.000000 # CA GRA
84 84 1 0.000000 11.344000 0.000000 # CA GRA
85 85 1 2.456048 8.508000 0.000000 # CA GRA
86 86 1 1.228024 9.217000 0.000000 # CA GRA
87 87 1 1.228024 10.635000 0.000000 # CA GRA
88 88 1 2.456048 11.344000 0.000000 # CA GRA
89 89 1 4.912096 8.508000 0.000000 # CA GRA
90 90 1 3.684072 9.217000 0.000000 # CA GRA
91 91 1 3.684072 10.635000 0.000000 # CA GRA
92 92 1 4.912096 11.344000 0.000000 # CA GRA
93 93 1 7.368144 8.508000 0.000000 # CA GRA
94 94 1 6.140120 9.217000 0.000000 # CA GRA
95 95 1 6.140120 10.635000 0.000000 # CA GRA
96 96 1 7.368144 11.344000 0.000000 # CA GRA
97 97 1 9.824192 8.508000 0.000000 # CA GRA
98 98 1 8.596169 9.217000 0.000000 # CA GRA
99 99 1 8.596169 10.635000 0.000000 # CA GRA
100 100 1 9.824192 11.344000 0.000000 # CA GRA
101 101 1 12.280240 8.508000 0.000000 # CA GRA
102 102 1 11.052217 9.217000 0.000000 # CA GRA
103 103 1 11.052217 10.635000 0.000000 # CA GRA
104 104 1 12.280240 11.344000 0.000000 # CA GRA
105 105 1 14.736288 8.508000 0.000000 # CA GRA
106 106 1 13.508265 9.217000 0.000000 # CA GRA
107 107 1 13.508265 10.635000 0.000000 # CA GRA
108 108 1 14.736288 11.344000 0.000000 # CA GRA
109 109 1 17.192337 8.508000 0.000000 # CA GRA
110 110 1 15.964313 9.217000 0.000000 # CA GRA
111 111 1 15.964313 10.635000 0.000000 # CA GRA
112 112 1 17.192337 11.344000 0.000000 # CA GRA
113 113 1 19.648384 8.508000 0.000000 # CA GRA
114 114 1 18.420361 9.217000 0.000000 # CA GRA
115 115 1 18.420361 10.635000 0.000000 # CA GRA
116 116 1 19.648384 11.344000 0.000000 # CA GRA
117 117 1 22.104433 8.508000 0.000000 # CA GRA
118 118 1 20.876408 9.217000 0.000000 # CA GRA
119 119 1 20.876408 10.635000 0.000000 # CA GRA
120 120 1 22.104433 11.344000 0.000000 # CA GRA
121 121 1 0.000000 12.762000 0.000000 # CA GRA
122 122 1 -1.228024 13.471000 0.000000 # CA GRA
123 123 1 -1.228024 14.889000 0.000000 # CA GRA
124 124 1 0.000000 15.598000 0.000000 # CA GRA
125 125 1 2.456048 12.762000 0.000000 # CA GRA
126 126 1 1.228024 13.471000 0.000000 # CA GRA
127 127 1 1.228024 14.889000 0.000000 # CA GRA
128 128 1 2.456048 15.598000 0.000000 # CA GRA
129 129 1 4.912096 12.762000 0.000000 # CA GRA
130 130 1 3.684072 13.471000 0.000000 # CA GRA
131 131 1 3.684072 14.889000 0.000000 # CA GRA
132 132 1 4.912096 15.598000 0.000000 # CA GRA
133 133 1 7.368144 12.762000 0.000000 # CA GRA
134 134 1 6.140120 13.471000 0.000000 # CA GRA
135 135 1 6.140120 14.889000 0.000000 # CA GRA
136 136 1 7.368144 15.598000 0.000000 # CA GRA
137 137 1 9.824192 12.762000 0.000000 # CA GRA
138 138 1 8.596169 13.471000 0.000000 # CA GRA
139 139 1 8.596169 14.889000 0.000000 # CA GRA
140 140 1 9.824192 15.598000 0.000000 # CA GRA
141 141 1 12.280240 12.762000 0.000000 # CA GRA
142 142 1 11.052217 13.471000 0.000000 # CA GRA
143 143 1 11.052217 14.889000 0.000000 # CA GRA
144 144 1 12.280240 15.598000 0.000000 # CA GRA
145 145 1 14.736288 12.762000 0.000000 # CA GRA
146 146 1 13.508265 13.471000 0.000000 # CA GRA
147 147 1 13.508265 14.889000 0.000000 # CA GRA
148 148 1 14.736288 15.598000 0.000000 # CA GRA
149 149 1 17.192337 12.762000 0.000000 # CA GRA
150 150 1 15.964313 13.471000 0.000000 # CA GRA
151 151 1 15.964313 14.889000 0.000000 # CA GRA
152 152 1 17.192337 15.598000 0.000000 # CA GRA
153 153 1 19.648384 12.762000 0.000000 # CA GRA
154 154 1 18.420361 13.471000 0.000000 # CA GRA
155 155 1 18.420361 14.889000 0.000000 # CA GRA
156 156 1 19.648384 15.598000 0.000000 # CA GRA
157 157 1 22.104433 12.762000 0.000000 # CA GRA
158 158 1 20.876408 13.471000 0.000000 # CA GRA
159 159 1 20.876408 14.889000 0.000000 # CA GRA
160 160 1 22.104433 15.598000 0.000000 # CA GRA
161 161 1 0.000000 17.016001 0.000000 # CA GRA
162 162 1 -1.228024 17.725000 0.000000 # CA GRA
163 163 1 -1.228024 19.143000 0.000000 # CA GRA
164 164 1 0.000000 19.851999 0.000000 # CA GRA
165 165 1 2.456048 17.016001 0.000000 # CA GRA
166 166 1 1.228024 17.725000 0.000000 # CA GRA
167 167 1 1.228024 19.143000 0.000000 # CA GRA
168 168 1 2.456048 19.851999 0.000000 # CA GRA
169 169 1 4.912096 17.016001 0.000000 # CA GRA
170 170 1 3.684072 17.725000 0.000000 # CA GRA
171 171 1 3.684072 19.143000 0.000000 # CA GRA
172 172 1 4.912096 19.851999 0.000000 # CA GRA
173 173 1 7.368144 17.016001 0.000000 # CA GRA
174 174 1 6.140120 17.725000 0.000000 # CA GRA
175 175 1 6.140120 19.143000 0.000000 # CA GRA
176 176 1 7.368144 19.851999 0.000000 # CA GRA
177 177 1 9.824192 17.016001 0.000000 # CA GRA
178 178 1 8.596169 17.725000 0.000000 # CA GRA
179 179 1 8.596169 19.143000 0.000000 # CA GRA
180 180 1 9.824192 19.851999 0.000000 # CA GRA
181 181 1 12.280240 17.016001 0.000000 # CA GRA
182 182 1 11.052217 17.725000 0.000000 # CA GRA
183 183 1 11.052217 19.143000 0.000000 # CA GRA
184 184 1 12.280240 19.851999 0.000000 # CA GRA
185 185 1 14.736288 17.016001 0.000000 # CA GRA
186 186 1 13.508265 17.725000 0.000000 # CA GRA
187 187 1 13.508265 19.143000 0.000000 # CA GRA
188 188 1 14.736288 19.851999 0.000000 # CA GRA
189 189 1 17.192337 17.016001 0.000000 # CA GRA
190 190 1 15.964313 17.725000 0.000000 # CA GRA
191 191 1 15.964313 19.143000 0.000000 # CA GRA
192 192 1 17.192337 19.851999 0.000000 # CA GRA
193 193 1 19.648384 17.016001 0.000000 # CA GRA
194 194 1 18.420361 17.725000 0.000000 # CA GRA
195 195 1 18.420361 19.143000 0.000000 # CA GRA
196 196 1 19.648384 19.851999 0.000000 # CA GRA
197 197 1 22.104433 17.016001 0.000000 # CA GRA
198 198 1 20.876408 17.725000 0.000000 # CA GRA
199 199 1 20.876408 19.143000 0.000000 # CA GRA
200 200 1 22.104433 19.851999 0.000000 # CA GRA
201 201 1 0.000000 21.270000 0.000000 # CA GRA
202 202 1 -1.228024 21.979000 0.000000 # CA GRA
203 203 1 -1.228024 23.396999 0.000000 # CA GRA
204 204 1 0.000000 24.106001 0.000000 # CA GRA
205 205 1 2.456048 21.270000 0.000000 # CA GRA
206 206 1 1.228024 21.979000 0.000000 # CA GRA
207 207 1 1.228024 23.396999 0.000000 # CA GRA
208 208 1 2.456048 24.106001 0.000000 # CA GRA
209 209 1 4.912096 21.270000 0.000000 # CA GRA
210 210 1 3.684072 21.979000 0.000000 # CA GRA
211 211 1 3.684072 23.396999 0.000000 # CA GRA
212 212 1 4.912096 24.106001 0.000000 # CA GRA
213 213 1 7.368144 21.270000 0.000000 # CA GRA
214 214 1 6.140120 21.979000 0.000000 # CA GRA
215 215 1 6.140120 23.396999 0.000000 # CA GRA
216 216 1 7.368144 24.106001 0.000000 # CA GRA
217 217 1 9.824192 21.270000 0.000000 # CA GRA
218 218 1 8.596169 21.979000 0.000000 # CA GRA
219 219 1 8.596169 23.396999 0.000000 # CA GRA
220 220 1 9.824192 24.106001 0.000000 # CA GRA
221 221 1 12.280240 21.270000 0.000000 # CA GRA
222 222 1 11.052217 21.979000 0.000000 # CA GRA
223 223 1 11.052217 23.396999 0.000000 # CA GRA
224 224 1 12.280240 24.106001 0.000000 # CA GRA
225 225 1 14.736288 21.270000 0.000000 # CA GRA
226 226 1 13.508265 21.979000 0.000000 # CA GRA
227 227 1 13.508265 23.396999 0.000000 # CA GRA
228 228 1 14.736288 24.106001 0.000000 # CA GRA
229 229 1 17.192337 21.270000 0.000000 # CA GRA
230 230 1 15.964313 21.979000 0.000000 # CA GRA
231 231 1 15.964313 23.396999 0.000000 # CA GRA
232 232 1 17.192337 24.106001 0.000000 # CA GRA
233 233 1 19.648384 21.270000 0.000000 # CA GRA
234 234 1 18.420361 21.979000 0.000000 # CA GRA
235 235 1 18.420361 23.396999 0.000000 # CA GRA
236 236 1 19.648384 24.106001 0.000000 # CA GRA
237 237 1 22.104433 21.270000 0.000000 # CA GRA
238 238 1 20.876408 21.979000 0.000000 # CA GRA
239 239 1 20.876408 23.396999 0.000000 # CA GRA
240 240 1 22.104433 24.106001 0.000000 # CA GRA
241 241 1 0.000000 1.418000 3.350000 # CA GRA
242 242 1 -1.228024 2.127000 3.350000 # CA GRA
243 243 1 -1.228024 3.545000 3.350000 # CA GRA
244 244 1 0.000000 4.254000 3.350000 # CA GRA
245 245 1 2.456048 1.418000 3.350000 # CA GRA
246 246 1 1.228024 2.127000 3.350000 # CA GRA
247 247 1 1.228024 3.545000 3.350000 # CA GRA
248 248 1 2.456048 4.254000 3.350000 # CA GRA
249 249 1 4.912096 1.418000 3.350000 # CA GRA
250 250 1 3.684072 2.127000 3.350000 # CA GRA
251 251 1 3.684072 3.545000 3.350000 # CA GRA
252 252 1 4.912096 4.254000 3.350000 # CA GRA
253 253 1 7.368144 1.418000 3.350000 # CA GRA
254 254 1 6.140120 2.127000 3.350000 # CA GRA
255 255 1 6.140120 3.545000 3.350000 # CA GRA
256 256 1 7.368144 4.254000 3.350000 # CA GRA
257 257 1 9.824192 1.418000 3.350000 # CA GRA
258 258 1 8.596169 2.127000 3.350000 # CA GRA
259 259 1 8.596169 3.545000 3.350000 # CA GRA
260 260 1 9.824192 4.254000 3.350000 # CA GRA
261 261 1 12.280240 1.418000 3.350000 # CA GRA
262 262 1 11.052217 2.127000 3.350000 # CA GRA
263 263 1 11.052217 3.545000 3.350000 # CA GRA
264 264 1 12.280240 4.254000 3.350000 # CA GRA
265 265 1 14.736288 1.418000 3.350000 # CA GRA
266 266 1 13.508265 2.127000 3.350000 # CA GRA
267 267 1 13.508265 3.545000 3.350000 # CA GRA
268 268 1 14.736288 4.254000 3.350000 # CA GRA
269 269 1 17.192337 1.418000 3.350000 # CA GRA
270 270 1 15.964313 2.127000 3.350000 # CA GRA
271 271 1 15.964313 3.545000 3.350000 # CA GRA
272 272 1 17.192337 4.254000 3.350000 # CA GRA
273 273 1 19.648384 1.418000 3.350000 # CA GRA
274 274 1 18.420361 2.127000 3.350000 # CA GRA
275 275 1 18.420361 3.545000 3.350000 # CA GRA
276 276 1 19.648384 4.254000 3.350000 # CA GRA
277 277 1 22.104433 1.418000 3.350000 # CA GRA
278 278 1 20.876408 2.127000 3.350000 # CA GRA
279 279 1 20.876408 3.545000 3.350000 # CA GRA
280 280 1 22.104433 4.254000 3.350000 # CA GRA
281 281 1 0.000000 5.672000 3.350000 # CA GRA
282 282 1 -1.228024 6.381000 3.350000 # CA GRA
283 283 1 -1.228024 7.799000 3.350000 # CA GRA
284 284 1 0.000000 8.508000 3.350000 # CA GRA
285 285 1 2.456048 5.672000 3.350000 # CA GRA
286 286 1 1.228024 6.381000 3.350000 # CA GRA
287 287 1 1.228024 7.799000 3.350000 # CA GRA
288 288 1 2.456048 8.508000 3.350000 # CA GRA
289 289 1 4.912096 5.672000 3.350000 # CA GRA
290 290 1 3.684072 6.381000 3.350000 # CA GRA
291 291 1 3.684072 7.799000 3.350000 # CA GRA
292 292 1 4.912096 8.508000 3.350000 # CA GRA
293 293 1 7.368144 5.672000 3.350000 # CA GRA
294 294 1 6.140120 6.381000 3.350000 # CA GRA
295 295 1 6.140120 7.799000 3.350000 # CA GRA
296 296 1 7.368144 8.508000 3.350000 # CA GRA
297 297 1 9.824192 5.672000 3.350000 # CA GRA
298 298 1 8.596169 6.381000 3.350000 # CA GRA
299 299 1 8.596169 7.799000 3.350000 # CA GRA
300 300 1 9.824192 8.508000 3.350000 # CA GRA
301 301 1 12.280240 5.672000 3.350000 # CA GRA
302 302 1 11.052217 6.381000 3.350000 # CA GRA
303 303 1 11.052217 7.799000 3.350000 # CA GRA
304 304 1 12.280240 8.508000 3.350000 # CA GRA
305 305 1 14.736288 5.672000 3.350000 # CA GRA
306 306 1 13.508265 6.381000 3.350000 # CA GRA
307 307 1 13.508265 7.799000 3.350000 # CA GRA
308 308 1 14.736288 8.508000 3.350000 # CA GRA
309 309 1 17.192337 5.672000 3.350000 # CA GRA
310 310 1 15.964313 6.381000 3.350000 # CA GRA
311 311 1 15.964313 7.799000 3.350000 # CA GRA
312 312 1 17.192337 8.508000 3.350000 # CA GRA
313 313 1 19.648384 5.672000 3.350000 # CA GRA
314 314 1 18.420361 6.381000 3.350000 # CA GRA
315 315 1 18.420361 7.799000 3.350000 # CA GRA
316 316 1 19.648384 8.508000 3.350000 # CA GRA
317 317 1 22.104433 5.672000 3.350000 # CA GRA
318 318 1 20.876408 6.381000 3.350000 # CA GRA
319 319 1 20.876408 7.799000 3.350000 # CA GRA
320 320 1 22.104433 8.508000 3.350000 # CA GRA
321 321 1 0.000000 9.926000 3.350000 # CA GRA
322 322 1 -1.228024 10.635000 3.350000 # CA GRA
323 323 1 -1.228024 12.053000 3.350000 # CA GRA
324 324 1 0.000000 12.762000 3.350000 # CA GRA
325 325 1 2.456048 9.926000 3.350000 # CA GRA
326 326 1 1.228024 10.635000 3.350000 # CA GRA
327 327 1 1.228024 12.053000 3.350000 # CA GRA
328 328 1 2.456048 12.762000 3.350000 # CA GRA
329 329 1 4.912096 9.926000 3.350000 # CA GRA
330 330 1 3.684072 10.635000 3.350000 # CA GRA
331 331 1 3.684072 12.053000 3.350000 # CA GRA
332 332 1 4.912096 12.762000 3.350000 # CA GRA
333 333 1 7.368144 9.926000 3.350000 # CA GRA
334 334 1 6.140120 10.635000 3.350000 # CA GRA
335 335 1 6.140120 12.053000 3.350000 # CA GRA
336 336 1 7.368144 12.762000 3.350000 # CA GRA
337 337 1 9.824192 9.926000 3.350000 # CA GRA
338 338 1 8.596169 10.635000 3.350000 # CA GRA
339 339 1 8.596169 12.053000 3.350000 # CA GRA
340 340 1 9.824192 12.762000 3.350000 # CA GRA
341 341 1 12.280240 9.926000 3.350000 # CA GRA
342 342 1 11.052217 10.635000 3.350000 # CA GRA
343 343 1 11.052217 12.053000 3.350000 # CA GRA
344 344 1 12.280240 12.762000 3.350000 # CA GRA
345 345 1 14.736288 9.926000 3.350000 # CA GRA
346 346 1 13.508265 10.635000 3.350000 # CA GRA
347 347 1 13.508265 12.053000 3.350000 # CA GRA
348 348 1 14.736288 12.762000 3.350000 # CA GRA
349 349 1 17.192337 9.926000 3.350000 # CA GRA
350 350 1 15.964313 10.635000 3.350000 # CA GRA
351 351 1 15.964313 12.053000 3.350000 # CA GRA
352 352 1 17.192337 12.762000 3.350000 # CA GRA
353 353 1 19.648384 9.926000 3.350000 # CA GRA
354 354 1 18.420361 10.635000 3.350000 # CA GRA
355 355 1 18.420361 12.053000 3.350000 # CA GRA
356 356 1 19.648384 12.762000 3.350000 # CA GRA
357 357 1 22.104433 9.926000 3.350000 # CA GRA
358 358 1 20.876408 10.635000 3.350000 # CA GRA
359 359 1 20.876408 12.053000 3.350000 # CA GRA
360 360 1 22.104433 12.762000 3.350000 # CA GRA
361 361 1 0.000000 14.180000 3.350000 # CA GRA
362 362 1 -1.228024 14.889000 3.350000 # CA GRA
363 363 1 -1.228024 16.306999 3.350000 # CA GRA
364 364 1 0.000000 17.016001 3.350000 # CA GRA
365 365 1 2.456048 14.180000 3.350000 # CA GRA
366 366 1 1.228024 14.889000 3.350000 # CA GRA
367 367 1 1.228024 16.306999 3.350000 # CA GRA
368 368 1 2.456048 17.016001 3.350000 # CA GRA
369 369 1 4.912096 14.180000 3.350000 # CA GRA
370 370 1 3.684072 14.889000 3.350000 # CA GRA
371 371 1 3.684072 16.306999 3.350000 # CA GRA
372 372 1 4.912096 17.016001 3.350000 # CA GRA
373 373 1 7.368144 14.180000 3.350000 # CA GRA
374 374 1 6.140120 14.889000 3.350000 # CA GRA
375 375 1 6.140120 16.306999 3.350000 # CA GRA
376 376 1 7.368144 17.016001 3.350000 # CA GRA
377 377 1 9.824192 14.180000 3.350000 # CA GRA
378 378 1 8.596169 14.889000 3.350000 # CA GRA
379 379 1 8.596169 16.306999 3.350000 # CA GRA
380 380 1 9.824192 17.016001 3.350000 # CA GRA
381 381 1 12.280240 14.180000 3.350000 # CA GRA
382 382 1 11.052217 14.889000 3.350000 # CA GRA
383 383 1 11.052217 16.306999 3.350000 # CA GRA
384 384 1 12.280240 17.016001 3.350000 # CA GRA
385 385 1 14.736288 14.180000 3.350000 # CA GRA
386 386 1 13.508265 14.889000 3.350000 # CA GRA
387 387 1 13.508265 16.306999 3.350000 # CA GRA
388 388 1 14.736288 17.016001 3.350000 # CA GRA
389 389 1 17.192337 14.180000 3.350000 # CA GRA
390 390 1 15.964313 14.889000 3.350000 # CA GRA
391 391 1 15.964313 16.306999 3.350000 # CA GRA
392 392 1 17.192337 17.016001 3.350000 # CA GRA
393 393 1 19.648384 14.180000 3.350000 # CA GRA
394 394 1 18.420361 14.889000 3.350000 # CA GRA
395 395 1 18.420361 16.306999 3.350000 # CA GRA
396 396 1 19.648384 17.016001 3.350000 # CA GRA
397 397 1 22.104433 14.180000 3.350000 # CA GRA
398 398 1 20.876408 14.889000 3.350000 # CA GRA
399 399 1 20.876408 16.306999 3.350000 # CA GRA
400 400 1 22.104433 17.016001 3.350000 # CA GRA
401 401 1 0.000000 18.434000 3.350000 # CA GRA
402 402 1 -1.228024 19.143000 3.350000 # CA GRA
403 403 1 -1.228024 20.561001 3.350000 # CA GRA
404 404 1 0.000000 21.270000 3.350000 # CA GRA
405 405 1 2.456048 18.434000 3.350000 # CA GRA
406 406 1 1.228024 19.143000 3.350000 # CA GRA
407 407 1 1.228024 20.561001 3.350000 # CA GRA
408 408 1 2.456048 21.270000 3.350000 # CA GRA
409 409 1 4.912096 18.434000 3.350000 # CA GRA
410 410 1 3.684072 19.143000 3.350000 # CA GRA
411 411 1 3.684072 20.561001 3.350000 # CA GRA
412 412 1 4.912096 21.270000 3.350000 # CA GRA
413 413 1 7.368144 18.434000 3.350000 # CA GRA
414 414 1 6.140120 19.143000 3.350000 # CA GRA
415 415 1 6.140120 20.561001 3.350000 # CA GRA
416 416 1 7.368144 21.270000 3.350000 # CA GRA
417 417 1 9.824192 18.434000 3.350000 # CA GRA
418 418 1 8.596169 19.143000 3.350000 # CA GRA
419 419 1 8.596169 20.561001 3.350000 # CA GRA
420 420 1 9.824192 21.270000 3.350000 # CA GRA
421 421 1 12.280240 18.434000 3.350000 # CA GRA
422 422 1 11.052217 19.143000 3.350000 # CA GRA
423 423 1 11.052217 20.561001 3.350000 # CA GRA
424 424 1 12.280240 21.270000 3.350000 # CA GRA
425 425 1 14.736288 18.434000 3.350000 # CA GRA
426 426 1 13.508265 19.143000 3.350000 # CA GRA
427 427 1 13.508265 20.561001 3.350000 # CA GRA
428 428 1 14.736288 21.270000 3.350000 # CA GRA
429 429 1 17.192337 18.434000 3.350000 # CA GRA
430 430 1 15.964313 19.143000 3.350000 # CA GRA
431 431 1 15.964313 20.561001 3.350000 # CA GRA
432 432 1 17.192337 21.270000 3.350000 # CA GRA
433 433 1 19.648384 18.434000 3.350000 # CA GRA
434 434 1 18.420361 19.143000 3.350000 # CA GRA
435 435 1 18.420361 20.561001 3.350000 # CA GRA
436 436 1 19.648384 21.270000 3.350000 # CA GRA
437 437 1 22.104433 18.434000 3.350000 # CA GRA
438 438 1 20.876408 19.143000 3.350000 # CA GRA
439 439 1 20.876408 20.561001 3.350000 # CA GRA
440 440 1 22.104433 21.270000 3.350000 # CA GRA
441 441 1 0.000000 22.688000 3.350000 # CA GRA
442 442 1 -1.228024 23.396999 3.350000 # CA GRA
443 443 1 -1.228024 24.815001 3.350000 # CA GRA
444 444 1 0.000000 25.524000 3.350000 # CA GRA
445 445 1 2.456048 22.688000 3.350000 # CA GRA
446 446 1 1.228024 23.396999 3.350000 # CA GRA
447 447 1 1.228024 24.815001 3.350000 # CA GRA
448 448 1 2.456048 25.524000 3.350000 # CA GRA
449 449 1 4.912096 22.688000 3.350000 # CA GRA
450 450 1 3.684072 23.396999 3.350000 # CA GRA
451 451 1 3.684072 24.815001 3.350000 # CA GRA
452 452 1 4.912096 25.524000 3.350000 # CA GRA
453 453 1 7.368144 22.688000 3.350000 # CA GRA
454 454 1 6.140120 23.396999 3.350000 # CA GRA
455 455 1 6.140120 24.815001 3.350000 # CA GRA
456 456 1 7.368144 25.524000 3.350000 # CA GRA
457 457 1 9.824192 22.688000 3.350000 # CA GRA
458 458 1 8.596169 23.396999 3.350000 # CA GRA
459 459 1 8.596169 24.815001 3.350000 # CA GRA
460 460 1 9.824192 25.524000 3.350000 # CA GRA
461 461 1 12.280240 22.688000 3.350000 # CA GRA
462 462 1 11.052217 23.396999 3.350000 # CA GRA
463 463 1 11.052217 24.815001 3.350000 # CA GRA
464 464 1 12.280240 25.524000 3.350000 # CA GRA
465 465 1 14.736288 22.688000 3.350000 # CA GRA
466 466 1 13.508265 23.396999 3.350000 # CA GRA
467 467 1 13.508265 24.815001 3.350000 # CA GRA
468 468 1 14.736288 25.524000 3.350000 # CA GRA
469 469 1 17.192337 22.688000 3.350000 # CA GRA
470 470 1 15.964313 23.396999 3.350000 # CA GRA
471 471 1 15.964313 24.815001 3.350000 # CA GRA
472 472 1 17.192337 25.524000 3.350000 # CA GRA
473 473 1 19.648384 22.688000 3.350000 # CA GRA
474 474 1 18.420361 23.396999 3.350000 # CA GRA
475 475 1 18.420361 24.815001 3.350000 # CA GRA
476 476 1 19.648384 25.524000 3.350000 # CA GRA
477 477 1 22.104433 22.688000 3.350000 # CA GRA
478 478 1 20.876408 23.396999 3.350000 # CA GRA
479 479 1 20.876408 24.815001 3.350000 # CA GRA
480 480 1 22.104433 25.524000 3.350000 # CA GRA

 Bonds

1 1 1 2
2 1 1 6
3 1 2 3
4 1 3 4
5 1 4 7
6 1 4 41
7 1 5 6
8 1 5 10
9 1 6 7
10 1 7 8
11 1 8 11
12 1 8 45
13 1 9 14
14 1 9 10
15 1 10 11
16 1 11 12
17 1 12 15
18 1 12 49
19 1 13 18
20 1 13 14
21 1 14 15
22 1 15 16
23 1 16 19
24 1 16 53
25 1 17 22
26 1 17 18
27 1 18 19
28 1 19 20
29 1 20 23
30 1 20 57
31 1 21 22
32 1 21 26
33 1 22 23
34 1 23 24
35 1 24 27
36 1 24 61
37 1 25 26
38 1 25 30
39 1 26 27
40 1 27 28
41 1 28 31
42 1 28 65
43 1 29 34
44 1 29 30
45 1 30 31
46 1 31 32
47 1 32 35
48 1 32 69
49 1 33 38
50 1 33 34
51 1 34 35
52 1 35 36
53 1 36 39
54 1 36 73
55 1 37 38
56 1 38 39
57 1 39 40
58 1 40 77
59 1 41 42
60 1 41 46
61 1 42 43
62 1 43 44
63 1 44 47
64 1 44 81
65 1 45 46
66 1 45 50
67 1 46 47
68 1 47 48
69 1 48 51
70 1 48 85
71 1 49 54
72 1 49 50
73 1 50 51
74 1 51 52
75 1 52 55
76 1 52 89
77 1 53 58
78 1 53 54
79 1 54 55
80 1 55 56
81 1 56 59
82 1 56 93
83 1 57 62
84 1 57 58
85 1 58 59
86 1 59 60
87 1 60 63
88 1 60 97
89 1 61 62
90 1 61 66
91 1 62 63
92 1 63 64
93 1 64 67
94 1 64 101
95 1 65 66
96 1 65 70
97 1 66 67
98 1 67 68
99 1 68 71
100 1 68 105
101 1 69 74
102 1 69 70
103 1 70 71
104 1 71 72
105 1 72 75
106 1 72 109
107 1 73 78
108 1 73 74
109 1 74 75
110 1 75 76
111 1 76 79
112 1 76 113
113 1 77 78
114 1 78 79
115 1 79 80
116 1 80 117
117 1 81 82
118 1 81 86
119 1 82 83
120 1 83 84
121 1 84 87
122 1 84 121
123 1 85 86
124 1 85 90
125 1 86 87
126 1 87 88
127 1 88 91
128 1 88 125
129 1 89 94
130 1 89 90
131 1 90 91
132 1 91 92
133 1 92 95
134 1 92 129
135 1 93 98
136 1 93 94
137 1 94 95
138 1 95 96
139 1 96 99
140 1 96 133
141 1 97 102
142 1 97 98
143 1 98 99
144 1 99 100
145 1 100 103
146 1 100 137
147 1 101 102
148 1 101 106
149 1 102 103
150 1 103 104
151 1 104 107
152 1 104 141
153 1 105 106
154 1 105 110
155 1 106 107
156 1 107 108
157 1 108 111
158 1 108 145
159 1 109 114
160 1 109 110
161 1 110 111
162 1 111 112
163 1 112 115
164 1 112 149
165 1 113 118
166 1 113 114
167 1 114 115
168 1 115 116
169 1 116 119
170 1 116 153
171 1 117 118
172 1 118 119
173 1 119 120
174 1 120 157
175 1 121 122
176 1 121 126
177 1 122 123
178 1 123 124
179 1 124 127
180 1 124 161
181 1 125 126
182 1 125 130
183 1 126 127
184 1 127 128
185 1 128 131
186 1 128 165
187 1 129 134
188 1 129 130
189 1 130 131
190 1 131 132
191 1 132 135
192 1 132 169
193 1 133 138
194 1 133 134
195 1 134 135
196 1 135 136
197 1 136 139
198 1 136 173
199 1 137 142
200 1 137 138
201 1 138 139
202 1 139 140
203 1 140 143
204 1 140 177
205 1 141 142
206 1 141 146
207 1 142 143
208 1 143 144
209 1 144 147
210 1 144 181
211 1 145 146
212 1 145 150
213 1 146 147
214 1 147 148
215 1 148 151
216 1 148 185
217 1 149 154
218 1 149 150
219 1 150 151
220 1 151 152
221 1 152 155
222 1 152 189
223 1 153 158
224 1 153 154
225 1 154 155
226 1 155 156
227 1 156 159
228 1 156 193
229 1 157 158
230 1 158 159
231 1 159 160
232 1 160 197
233 1 161 162
234 1 161 166
235 1 162 163
236 1 163 164
237 1 164 167
238 1 164 201
239 1 165 166
240 1 165 170
241 1 166 167
242 1 167 168
243 1 168 171
244 1 168 205
245 1 169 174
246 1 169 170
247 1 170 171
248 1 171 172
249 1 172 175
250 1 172 209
251 1 173 178
252 1 173 174
253 1 174 175
254 1 175 176
255 1 176 179
256 1 176 213
257 1 177 182
258 1 177 178
259 1 178 179
260 1 179 180
261 1 180 183
262 1 180 217
263 1 181 182
264 1 181 186
265 1 182 183
266 1 183 184
267 1 184 187
268 1 184 221
269 1 185 186
270 1 185 190
271 1 186 187
272 1 187 188
273 1 188 191
274 1 188 225
275 1 189 194
276 1 189 190
277 1 190 191
278 1 191 192
279 1 192 195
280 1 192 229
281 1 193 198
282 1 193 194
283 1 194 195
284 1 195 196
285 1 196 199
286 1 196 233
287 1 197 198
288 1 198 199
289 1 199 200
290 1 200 237
291 1 201 202
292 1 201 206
293 1 202 203
294 1 203 204
295 1 204 207
296 1 205 206
297 1 205 210
298 1 206 207
299 1 207 208
300 1 208 211
301 1 209 214
302 1 209 210
303 1 210 211
304 1 211 212
305 1 212 215
306 1 213 218
307 1 213 214
308 1 214 215
309 1 215 216
310 1 216 219
311 1 217 222
312 1 217 218
313 1 218 219
314 1 219 220
315 1 220 223
316 1 221 222
317 1 221 226
318 1 222 223
319 1 223 224
320 1 224 227
321 1 225 226
322 1 225 230
323 1 226 227
324 1 227 228
325 1 228 231
326 1 229 234
327 1 229 230
328 1 230 231
329 1 231 232
330 1 232 235
331 1 233 238
332 1 233 234
333 1 234 235
334 1 235 236
335 1 236 239
336 1 237 238
337 1 238 239
338 1 239 240
339 1 241 242
340 1 241 246
341 1 242 243
342 1 243 244
343 1 244 281
344 1 244 247
345 1 245 246
346 1 245 250
347 1 246 247
348 1 247 248
349 1 248 285
350 1 248 251
351 1 249 254
352 1 249 250
353 1 250 251
354 1 251 252
355 1 252 289
356 1 252 255
357 1 253 254
358 1 253 258
359 1 254 255
360 1 255 256
361 1 256 259
362 1 256 293
363 1 257 258
364 1 257 262
365 1 258 259
366 1 259 260
367 1 260 297
368 1 260 263
369 1 261 262
370 1 261 266
371 1 262 263
372 1 263 264
373 1 264 301
374 1 264 267
375 1 265 266
376 1 265 270
377 1 266 267
378 1 267 268
379 1 268 305
380 1 268 271
381 1 269 274
382 1 269 270
383 1 270 271
384 1 271 272
385 1 272 309
386 1 272 275
387 1 273 278
388 1 273 274
389 1 274 275
390 1 275 276
391 1 276 313
392 1 276 279
393 1 277 278
394 1 278 279
395 1 279 280
396 1 280 317
397 1 281 282
398 1 281 286
399 1 282 283
400 1 283 284
401 1 284 321
402 1 284 287
403 1 285 286
404 1 285 290
405 1 286 287
406 1 287 288
407 1 288 325
408 1 288 291
409 1 289 294
410 1 289 290
411 1 290 291
412 1 291 292
413 1 292 329
414 1 292 295
415 1 293 294
416 1 293 298
417 1 294 295
418 1 295 296
419 1 296 299
420 1 296 333
421 1 297 298
422 1 297 302
423 1 298 299
424 1 299 300
425 1 300 337
426 1 300 303
427 1 301 302
428 1 301 306
429 1 302 303
430 1 303 304
431 1 304 341
432 1 304 307
433 1 305 306
434 1 305 310
435 1 306 307
436 1 307 308
437 1 308 345
438 1 308 311
439 1 309 314
440 1 309 310
441 1 310 311
442 1 311 312
443 1 312 349
444 1 312 315
445 1 313 318
446 1 313 314
447 1 314 315
448 1 315 316
449 1 316 353
450 1 316 319
451 1 317 318
452 1 318 319
453 1 319 320
454 1 320 357
455 1 321 322
456 1 321 326
457 1 322 323
458 1 323 324
459 1 324 361
460 1 324 327
461 1 325 326
462 1 325 330
463 1 326 327
464 1 327 328
465 1 328 365
466 1 328 331
467 1 329 334
468 1 329 330
469 1 330 331
470 1 331 332
471 1 332 369
472 1 332 335
473 1 333 334
474 1 333 338
475 1 334 335
476 1 335 336
477 1 336 339
478 1 336 373
479 1 337 338
480 1 337 342
481 1 338 339
482 1 339 340
483 1 340 377
484 1 340 343
485 1 341 342
486 1 341 346
487 1 342 343
488 1 343 344
489 1 344 381
490 1 344 347
491 1 345 346
492 1 345 350
493 1 346 347
494 1 347 348
495 1 348 385
496 1 348 351
497 1 349 354
498 1 349 350
499 1 350 351
500 1 351 352
501 1 352 389
502 1 352 355
503 1 353 358
504 1 353 354
505 1 354 355
506 1 355 356
507 1 356 393
508 1 356 359
509 1 357 358
510 1 358 359
511 1 359 360
512 1 360 397
513 1 361 362
514 1 361 366
515 1 362 363
516 1 363 364
517 1 364 401
518 1 364 367
519 1 365 366
520 1 365 370
521 1 366 367
522 1 367 368
523 1 368 405
524 1 368 371
525 1 369 374
526 1 369 370
527 1 370 371
528 1 371 372
529 1 372 409