LAMMPS data file. CGCMM style. atom_style molecular generated by VMD/TopoTools v1.8 on Wed Sep 04 19:53:54 CEST 2024
 64 atoms
 80 bonds
 132 angles
 218 dihedrals
 36 impropers
 1 atom types
 1 bond types
 1 angle types
 1 dihedral types
 1 improper types
 -26.929940 33.070060  xlo xhi
 -25.746000 34.254000  ylo yhi
 -28.325000 31.675000  zlo zhi

# Pair Coeffs
#
# 1  CA

# Bond Coeffs
#
# 1  CA-CA

# Angle Coeffs
#
# 1  CA-CA-CA

# Dihedral Coeffs
#
# 1  CA-CA-CA-CA

# Improper Coeffs
#
# 1  CA-CA-CA-CA

 Masses

 1 12.010700 # CA

 Atoms # molecular

1 1 1 0.000000 0.000000 0.000000 # CA GRA
2 2 1 -1.228024 0.709000 0.000000 # CA GRA
3 3 1 -1.228024 2.127000 0.000000 # CA GRA
4 4 1 0.000000 2.836000 0.000000 # CA GRA
5 5 1 2.456048 0.000000 0.000000 # CA GRA
6 6 1 1.228024 0.709000 0.000000 # CA GRA
7 7 1 1.228024 2.127000 0.000000 # CA GRA
8 8 1 2.456048 2.836000 0.000000 # CA GRA
9 9 1 4.912096 0.000000 0.000000 # CA GRA
10 10 1 3.684072 0.709000 0.000000 # CA GRA
11 11 1 3.684072 2.127000 0.000000 # CA GRA
12 12 1 4.912096 2.836000 0.000000 # CA GRA
13 13 1 7.368144 0.000000 0.000000 # CA GRA
14 14 1 6.140120 0.709000 0.000000 # CA GRA
15 15 1 6.140120 2.127000 0.000000 # CA GRA
16 16 1 7.368144 2.836000 0.000000 # CA GRA
17 17 1 0.000000 4.254000 0.000000 # CA GRA
18 18 1 -1.228024 4.963000 0.000000 # CA GRA
19 19 1 -1.228024 6.381000 0.000000 # CA GRA
20 20 1 0.000000 7.090000 0.000000 # CA GRA
21 21 1 2.456048 4.254000 0.000000 # CA GRA
22 22 1 1.228024 4.963000 0.000000 # CA GRA
23 23 1 1.228024 6.381000 0.000000 # CA GRA
24 24 1 2.456048 7.090000 0.000000 # CA GRA
25 25 1 4.912096 4.254000 0.000000 # CA GRA
26 26 1 3.684072 4.963000 0.000000 # CA GRA
27 27 1 3.684072 6.381000 0.000000 # CA GRA
28 28 1 4.912096 7.090000 0.000000 # CA GRA
29 29 1 7.368144 4.254000 0.000000 # CA GRA
30 30 1 6.140120 4.963000 0.000000 # CA GRA
31 31 1 6.140120 6.381000 0.000000 # CA GRA
32 32 1 7.368144 7.090000 0.000000 # CA GRA
33 33 1 0.000000 1.418000 3.350000 # CA GRA
34 34 1 -1.228024 2.127000 3.350000 # CA GRA
35 35 1 -1.228024 3.545000 3.350000 # CA GRA
36 36 1 0.000000 4.254000 3.350000 # CA GRA
37 37 1 2.456048 1.418000 3.350000 # CA GRA
38 38 1 1.228024 2.127000 3.350000 # CA GRA
39 39 1 1.228024 3.545000 3.350000 # CA GRA
40 40 1 2.456048 4.254000 3.350000 # CA GRA
41 41 1 4.912096 1.418000 3.350000 # CA GRA
42 42 1 3.684072 2.127000 3.350000 # CA GRA
43 43 1 3.684072 3.545000 3.350000 # CA GRA
44 44 1 4.912096 4.254000 3.350000 # CA GRA
45 45 1 7.368144 1.418000 3.350000 # CA GRA
46 46 1 6.140120 2.127000 3.350000 # CA GRA
47 47 1 6.140120 3.545000 3.350000 # CA GRA
48 48 1 7.368144 4.254000 3.350000 # CA GRA
49 49 1 0.000000 5.672000 3.350000 # CA GRA
50 50 1 -1.228024 6.381000 3.350000 # CA GRA
51 51 1 -1.228024 7.799000 3.350000 # CA GRA
52 52 1 0.000000 8.508000 3.350000 # CA GRA
53 53 1 2.456048 5.672000 3.350000 # CA GRA
54 54 1 1.228024 6.381000 3.350000 # CA GRA
55 55 1 1.228024 7.799000 3.350000 # CA GRA
56 56 1 2.456048 8.508000 3.350000 # CA GRA
57 57 1 4.912096 5.672000 3.350000 # CA GRA
58 58 1 3.684072 6.381000 3.350000 # CA GRA
59 59 1 3.684072 7.799000 3.350000 # CA GRA
60 60 1 4.912096 8.508000 3.350000 # CA GRA
61 61 1 7.368144 5.672000 3.350000 # CA GRA
62 62 1 6.140120 6.381000 3.350000 # CA GRA
63 63 1 6.140120 7.799000 3.350000 # CA GRA
64 64 1 7.368144 8.508000 3.350000 # CA GRA

 Bonds

1 1 1 2
2 1 1 6
3 1 2 3
4 1 3 4
5 1 4 7
6 1 4 17
7 1 5 6
8 1 5 10
9 1 6 7
10 1 7 8
11 1 8 11
12 1 8 21
13 1 9 14
14 1 9 10
15 1 10 11
16 1 11 12
17 1 12 15
18 1 12 25
19 1 13 14
20 1 14 15
21 1 15 16
22 1 16 29
23 1 17 18
24 1 17 22
25 1 18 19
26 1 19 20
27 1 20 23
28 1 21 22
29 1 21 26
30 1 22 23
31 1 23 24
32 1 24 27
33 1 25 30
34 1 25 26
35 1 26 27
36 1 27 28
37 1 28 31
38 1 29 30
39 1 30 31
40 1 31 32
41 1 33 34
42 1 33 38
43 1 34 35
44 1 35 36
45 1 36 49
46 1 36 39
47 1 37 38
48 1 37 42
49 1 38 39
50 1 39 40
51 1 40 53
52 1 40 43
53 1 41 46
54 1 41 42
55 1 42 43
56 1 43 44
57 1 44 57
58 1 44 47
59 1 45 46
60 1 46 47
61 1 47 48
62 1 48 61
63 1 49 50
64 1 49 54
65 1 50 51
66 1 51 52
67 1 52 55
68 1 53 54
69 1 53 58
70 1 54 55
71 1 55 56
72 1 56 59
73 1 57 62
74 1 57 58
75 1 58 59
76 1 59 60
77 1 60 63
78 1 61 62
79 1 62 63
80 1 63 64

 Angles

1 1 2 1 6
2 1 1 2 3
3 1 2 3 4
4 1 3 4 7
5 1 3 4 17
6 1 7 4 17
7 1 6 5 10
8 1 1 6 5
9 1 1 6 7
10 1 5 6 7
11 1 4 7 6
12 1 4 7 8
13 1 6 7 8
14 1 7 8 11
15 1 7 8 21
16 1 11 8 21
17 1 10 9 14
18 1 5 10 9
19 1 5 10 11
20 1 9 10 11
21 1 8 11 10
22 1 8 11 12
23 1 10 11 12
24 1 11 12 15
25 1 11 12 25
26 1 15 12 25
27 1 9 14 13
28 1 9 14 15
29 1 13 14 15
30 1 12 15 14
31 1 12 15 16
32 1 14 15 16
33 1 15 16 29
34 1 4 17 18
35 1 4 17 22
36 1 18 17 22
37 1 17 18 19
38 1 18 19 20
39 1 19 20 23
40 1 8 21 22
41 1 8 21 26
42 1 22 21 26
43 1 17 22 21
44 1 17 22 23
45 1 21 22 23
46 1 20 23 22
47 1 20 23 24
48 1 22 23 24
49 1 23 24 27
50 1 12 25 30
51 1 12 25 26
52 1 26 25 30
53 1 21 26 25
54 1 21 26 27
55 1 25 26 27
56 1 24 27 26
57 1 24 27 28
58 1 26 27 28
59 1 27 28 31
60 1 16 29 30
61 1 25 30 29
62 1 25 30 31
63 1 29 30 31
64 1 28 31 30
65 1 28 31 32
66 1 30 31 32
67 1 34 33 38
68 1 33 34 35
69 1 34 35 36
70 1 35 36 49
71 1 35 36 39
72 1 39 36 49
73 1 38 37 42
74 1 33 38 37
75 1 33 38 39
76 1 37 38 39
77 1 36 39 38
78 1 36 39 40
79 1 38 39 40
80 1 39 40 53
81 1 39 40 43
82 1 43 40 53
83 1 42 41 46
84 1 37 42 41
85 1 37 42 43
86 1 41 42 43
87 1 40 43 42
88 1 40 43 44
89 1 42 43 44
90 1 43 44 57
91 1 43 44 47
92 1 47 44 57
93 1 41 46 45
94 1 41 46 47
95 1 45 46 47
96 1 44 47 46
97 1 44 47 48
98 1 46 47 48
99 1 47 48 61
100 1 36 49 50
101 1 36 49 54
102 1 50 49 54
103 1 49 50 51
104 1 50 51 52
105 1 51 52 55
106 1 40 53 54
107 1 40 53 58
108 1 54 53 58
109 1 49 54 53
110 1 49 54 55
111 1 53 54 55
112 1 52 55 54
113 1 52 55 56
114 1 54 55 56
115 1 55 56 59
116 1 44 57 62
117 1 44 57 58
118 1 58 57 62
119 1 53 58 57
120 1 53 58 59
121 1 57 58 59
122 1 56 59 58
123 1 56 59 60
124 1 58 59 60
125 1 59 60 63
126 1 48 61 62
127 1 57 62 61
128 1 57 62 63
129 1 61 62 63
130 1 60 63 62
131 1 60 63 64
132 1 62 63 64

 Dihedrals

1 1 6 1 2 3
2 1 2 1 6 5
3 1 2 1 6 7
4 1 1 2 3 4
5 1 2 3 4 7
6 1 2 3 4 17
7 1 3 4 7 6
8 1 3 4 7 8
9 1 17 4 7 6
10 1 17 4 7 8
11 1 3 4 17 18
12 1 3 4 17 22
13 1 7 4 17 18
14 1 7 4 17 22
15 1 10 5 6 1
16 1 10 5 6 7
17 1 6 5 10 9
18 1 6 5 10 11
19 1 1 6 7 4
20 1 1 6 7 8
21 1 5 6 7 4
22 1 5 6 7 8
23 1 4 7 8 11
24 1 4 7 8 21
25 1 6 7 8 11
26 1 6 7 8 21
27 1 7 8 11 10
28 1 7 8 11 12
29 1 21 8 11 10
30 1 21 8 11 12
31 1 7 8 21 22
32 1 7 8 21 26
33 1 11 8 21 22
34 1 11 8 21 26
35 1 10 9 14 13
36 1 10 9 14 15
37 1 14 9 10 5
38 1 14 9 10 11
39 1 5 10 11 8
40 1 5 10 11 12
41 1 9 10 11 8
42 1 9 10 11 12
43 1 8 11 12 15
44 1 8 11 12 25
45 1 10 11 12 15
46 1 10 11 12 25
47 1 11 12 15 14
48 1 11 12 15 16
49 1 25 12 15 14
50 1 25 12 15 16
51 1 11 12 25 30
52 1 11 12 25 26
53 1 15 12 25 30
54 1 15 12 25 26
55 1 9 14 15 12
56 1 9 14 15 16
57 1 13 14 15 12
58 1 13 14 15 16
59 1 12 15 16 29
60 1 14 15 16 29
61 1 15 16 29 30
62 1 4 17 18 19
63 1 22 17 18 19
64 1 4 17 22 21
65 1 4 17 22 23
66 1 18 17 22 21
67 1 18 17 22 23
68 1 17 18 19 20
69 1 18 19 20 23
70 1 19 20 23 22
71 1 19 20 23 24
72 1 8 21 22 17
73 1 8 21 22 23
74 1 26 21 22 17
75 1 26 21 22 23
76 1 8 21 26 25
77 1 8 21 26 27
78 1 22 21 26 25
79 1 22 21 26 27
80 1 17 22 23 20
81 1 17 22 23 24
82 1 21 22 23 20
83 1 21 22 23 24
84 1 20 23 24 27
85 1 22 23 24 27
86 1 23 24 27 26
87 1 23 24 27 28
88 1 12 25 30 29
89 1 12 25 30 31
90 1 26 25 30 29
91 1 26 25 30 31
92 1 12 25 26 21
93 1 12 25 26 27
94 1 30 25 26 21
95 1 30 25 26 27
96 1 21 26 27 24
97 1 21 26 27 28
98 1 25 26 27 24
99 1 25 26 27 28
100 1 24 27 28 31
101 1 26 27 28 31
102 1 27 28 31 30
103 1 27 28 31 32
104 1 16 29 30 25
105 1 16 29 30 31
106 1 25 30 31 28
107 1 25 30 31 32
108 1 29 30 31 28
109 1 29 30 31 32
110 1 38 33 34 35
111 1 34 33 38 37
112 1 34 33 38 39
113 1 33 34 35 36
114 1 34 35 36 49
115 1 34 35 36 39
116 1 35 36 49 50
117 1 35 36 49 54
118 1 39 36 49 50
119 1 39 36 49 54
120 1 35 36 39 38
121 1 35 36 39 40
122 1 49 36 39 38
123 1 49 36 39 40
124 1 42 37 38 33
125 1 42 37 38 39
126 1 38 37 42 41
127 1 38 37 42 43
128 1 33 38 39 36
129 1 33 38 39 40
130 1 37 38 39 36
131 1 37 38 39 40
132 1 36 39 40 53
133 1 36 39 40 43
134 1 38 39 40 53
135 1 38 39 40 43
136 1 39 40 53 54
137 1 39 40 53 58
138 1 43 40 53 54
139 1 43 40 53 58
140 1 39 40 43 42
141 1 39 40 43 44
142 1 53 40 43 42
143 1 53 40 43 44
144 1 42 41 46 45
145 1 42 41 46 47
146 1 46 41 42 37
147 1 46 41 42 43
148 1 37 42 43 40
149 1 37 42 43 44
150 1 41 42 43 40
151 1 41 42 43 44
152 1 40 43 44 57
153 1 40 43 44 47
154 1 42 43 44 57
155 1 42 43 44 47
156 1 43 44 57 62
157 1 43 44 57 58
158 1 47 44 57 62
159 1 47 44 57 58
160 1 43 44 47 46
161 1 43 44 47 48
162 1 57 44 47 46
163 1 57 44 47 48
164 1 41 46 47 44
165 1 41 46 47 48
166 1 45 46 47 44
167 1 45 46 47 48
168 1 44 47 48 61
169 1 46 47 48 61
170 1 47 48 61 62
171 1 36 49 50 51
172 1 54 49 50 51
173 1 36 49 54 53
174 1 36 49 54 55
175 1 50 49 54 53
176 1 50 49 54 55
177 1 49 50 51 52
178 1 50 51 52 55
179 1 51 52 55 54
180 1 51 52 55 56
181 1 40 53 54 49
182 1 40 53 54 55
183 1 58 53 54 49
184 1 58 53 54 55
185 1 40 53 58 57
186 1 40 53 58 59
187 1 54 53 58 57
188 1 54 53 58 59
189 1 49 54 55 52
190 1 49 54 55 56
191 1 53 54 55 52
192 1 53 54 55 56
193 1 52 55 56 59
194 1 54 55 56 59
195 1 55 56 59 58
196 1 55 56 59 60
197 1 44 57 62 61
198 1 44 57 62 63
199 1 58 57 62 61
200 1 58 57 62 63
201 1 44 57 58 53
202 1 44 57 58 59
203 1 62 57 58 53
204 1 62 57 58 59
205 1 53 58 59 56
206 1 53 58 59 60
207 1 57 58 59 56
208 1 57 58 59 60
209 1 56 59 60 63
210 1 58 59 60 63
211 1 59 60 63 62
212 1 59 60 63 64
213 1 48 61 62 57
214 1 48 61 62 63
215 1 57 62 63 60
216 1 57 62 63 64
217 1 61 62 63 60
218 1 61 62 63 64

 Impropers

1 1 4 3 7 17
2 1 6 1 5 7
3 1 7 4 6 8
4 1 8 7 11 21
5 1 10 5 9 11
6 1 11 8 10 12
7 1 12 11 15 25
8 1 14 9 13 15
9 1 15 12 14 16
10 1 17 4 18 22
11 1 21 8 22 26
12 1 22 17 21 23
13 1 23 20 22 24
14 1 25 12 30 26
15 1 26 21 25 27
16 1 27 24 26 28
17 1 30 25 29 31
18 1 31 28 30 32
19 1 36 35 49 39
20 1 38 33 37 39
21 1 39 36 38 40
22 1 40 39 53 43
23 1 42 37 41 43
24 1 43 40 42 44
25 1 44 43 57 47
26 1 46 41 45 47
27 1 47 44 46 48
28 1 49 36 50 54
29 1 53 40 54 58
30 1 54 49 53 55
31 1 55 52 54 56
32 1 57 44 62 58
33 1 58 53 57 59
34 1 59 56 58 60
35 1 62 57 61 63
36 1 63 60 62 64

