LAMMPS data file via write_data, version 27 Jun 2024, timestep = 150000, units = real

692 atoms
2 atom types
676 bonds
1 bond types
1268 angles
1 angle types
2394 dihedrals
1 dihedral types
396 impropers
1 improper types

-30 30 xlo xhi
-30 30 ylo yhi
-15 15 zlo zhi

Masses

1 12.0107
2 2.016

Bond Coeffs # harmonic

1 469 1.4

Angle Coeffs # harmonic

1 63 120

Dihedral Coeffs # opls

1 0 7.25 0 0

Improper Coeffs # harmonic

1 5 180

Atoms # molecular

6 1 1 -10.373797414592865 -12.602098828550192 -7.548224076299209 0 0 0
3 2 1 -11.583467071908371 -11.862253450274727 -7.429901136507436 0 0 0
1 3 1 -11.538825753483753 -10.429797682573701 -7.342187088306231 0 0 0
12 5 1 -7.923298298758413 -12.681155118450963 -7.718025725537512 0 0 0
9 6 1 -9.112629770507622 -11.95874601064361 -7.4800683313617125 0 0 0
7 7 1 -9.12516356554623 -10.542783832093624 -7.690554370417461 0 0 0
18 9 1 -5.487923908488843 -12.604243072750178 -7.860361781281905 0 0 0
15 10 1 -6.7081595039571 -11.934001308592343 -7.871237722428967 0 0 0
14 11 1 -6.701937073417338 -10.517960252973884 -7.559172597842012 0 0 0
21 14 1 -4.308300968755036 -11.899321163176877 -7.546483262626651 0 0 0
20 15 1 -4.2301404062161305 -10.521789430859528 -7.674400472442544 0 0 0
24 13 1 -3.076671961630328 -12.636387721074245 -7.585479203247354 0 0 0
28 17 1 -0.6342127562994041 -12.611985102284605 -7.671000585634482 0 0 0
27 18 1 -1.8514439168624084 -11.975439214508087 -7.396191256159263 0 0 0
26 19 1 -1.8166538808228638 -10.588329720548394 -7.5872231829891525 0 0 0
278 241 1 -10.272042146519903 -11.251625110699534 7.4865137938105555 0 0 0
276 242 1 -11.538846986627634 -10.587834788845145 7.556056890806828 0 0 0
282 245 1 -7.856250972595405 -11.264944440195714 7.203923700970325 0 0 0
280 246 1 -9.070885581948293 -10.566298686343558 7.224738546712443 0 0 0
286 249 1 -5.446708681374527 -11.20468607860279 7.479683811261478 0 0 0
284 250 1 -6.648053523018393 -10.514112855070016 7.15910573614177 0 0 0
288 254 1 -4.2581218651547275 -10.43591160277004 7.612488192773692 0 0 0
290 253 1 -3.0402739327274646 -11.101890240520744 7.471961787946756 0 0 0
293 257 1 -0.537994400234398 -11.178109338559182 7.5453504567046 0 0 0
292 258 1 -1.7539614144583409 -10.496275066023484 7.328227185533655 0 0 0
9256 0 2 -14.98670729903133 -11.803705141512713 -7.232753150087091 0 0 0
9271 0 2 -6.18587762571855 -25.914229993947142 8.271455404041156 0 0 0
6039 0 2 -3.4466103567801936 -10.941936583319587 -4.34853698046996 0 0 0
9329 0 2 -11.540892088269949 -10.082505836514143 -0.2829404027685347 0 0 0
9071 0 2 -5.664795907419373 -22.587678222803696 -6.586395165693629 0 0 0
9357 0 2 -0.08573482785510982 -23.733599759295537 7.992585794872285 0 0 0
9384 0 2 -26.56834745069694 -18.194938183114623 -7.497482115656605 0 0 0
7105 0 2 -2.8583057463886714 -10.958773474831416 -10.599360712781973 0 0 0
9410 0 2 -20.049567986706883 -16.502771618426205 -7.5475569297752925 0 0 0
9408 0 2 -17.74912986173758 -26.640001120007245 -2.076070900328981 0 0 0
9335 0 2 -12.994467502006431 -13.497008250535135 -12.754405658882574 0 0 0
9441 0 2 -18.258480160034054 -10.89289830993743 5.125248251529762 0 0 0
9406 0 2 -22.67101031215868 -13.455488617848212 12.744967395447103 0 0 0
9106 0 2 -1.712939314677006 -18.921862897490914 5.253055265604831 0 0 0
9405 0 2 -5.370371407028363 -16.936716805586876 -6.880342267114307 0 0 0
9391 0 2 -6.816994019833547 -17.8249737144708 -0.39510370456166305 0 0 0
8909 0 2 -12.651485997996994 -18.226368493815386 -9.298912119444768 0 0 0
9491 0 2 -12.841611412079974 -21.78353507856201 8.061027694335694 0 0 0
8923 0 2 -1.6539293856556918 -24.950740223132602 -0.2751332535540475 0 0 0
9472 0 2 -24.973783497604284 -27.042902747529695 1.030080821967153 0 0 0
9435 0 2 -18.157432750275987 -20.047831373117567 11.442556189766352 0 0 0
9119 0 2 -20.764180687789676 -25.518028506087962 -6.707688194059825 0 0 0
9486 0 2 -25.129364327852294 -19.3345699651628 -14.709812275514722 0 0 0
9371 0 2 -2.728587344574689 -20.354656430353284 -11.240422173584811 0 0 0
9373 0 2 -8.069133947264593 -27.889809421528934 3.627963233260799 0 0 0
9381 0 2 -8.337309849733085 -19.35387056219421 4.91175951936246 0 0 0
9386 0 2 -21.356575362731707 -16.943714258170562 8.050848731794643 0 0 0
9437 0 2 -4.235914279187785 -11.239793587674946 3.657834261702182 0 0 0
9431 0 2 -1.896165363949144 -21.636724805814932 13.575599581052026 0 0 0
9467 0 2 -15.829898607994581 -24.019110016861724 -7.453540150784664 0 0 0
9471 0 2 -29.686101340927593 -22.05570178291741 -13.864886174941184 0 0 0
9476 0 2 -12.510208465120733 -26.377040847039353 -12.6436520703168 0 0 0
5791 0 2 -2.188612904500689 -10.007886537172462 10.542987879516277 0 0 0
4 4 1 -10.309314728629413 -9.821471029022772 -7.380351821972611 0 0 0
10 8 1 -7.935799105560483 -9.823137452103165 -7.480131844177209 0 0 0
17 12 1 -5.4417882920100435 -9.807602297588415 -7.662995804147458 0 0 0
5 41 1 -10.345311440330176 -8.441221309804169 -7.578193907380163 0 0 0
2 42 1 -11.539047678457651 -7.720047123469914 -7.453942491116251 0 0 0
64 43 1 -11.57427888740138 -6.348206078949817 -7.601415739265259 0 0 0
69 44 1 -10.359231106123618 -5.625160823278374 -7.677411675371958 0 0 0
11 45 1 -7.913687047499857 -8.382994912318608 -7.613502374357357 0 0 0
8 46 1 -9.132230888408694 -7.72179344771322 -7.428167096787558 0 0 0
74 47 1 -9.119416350637547 -6.293577376227007 -7.43858266289437 0 0 0
79 48 1 -7.863836313173256 -5.630766319346477 -7.609304243381929 0 0 0
16 49 1 -5.48240174203901 -8.3858206789149 -7.546889894546235 0 0 0
13 50 1 -6.694409016096656 -7.645461101885485 -7.322492398231706 0 0 0
88 51 1 -6.680467828759943 -6.241418273758211 -7.290534108967836 0 0 0
89 52 1 -5.473800021084899 -5.640989269731779 -7.529136102848573 0 0 0
19 54 1 -4.235493357899306 -7.769346205528647 -7.327424774113744 0 0 0
96 55 1 -4.213031241809543 -6.331520435455863 -7.36583129945985 0 0 0
22 16 1 -2.997668336619072 -9.917169559002858 -7.421283921377263 0 0 0
29 20 1 -0.6195752062906277 -9.85880148079376 -7.353113497680927 0 0 0
23 53 1 -2.99470786572667 -8.500668312378933 -7.5517204042191475 0 0 0
99 56 1 -3.022440179490842 -5.605176206969734 -7.572213150902793 0 0 0
30 57 1 -0.6031106800725162 -8.415207986513632 -7.493651213136259 0 0 0
25 58 1 -1.8284659798390213 -7.737206829035304 -7.3126839701149375 0 0 0
104 59 1 -1.8061115610884737 -6.341194118900743 -7.5595567430737995 0 0 0
109 60 1 -0.6251975232560311 -5.654311185124432 -7.388023620678185 0 0 0
73 81 1 -10.373862485668024 -4.206679802099708 -7.376725514322317 0 0 0
66 82 1 -11.630787375676855 -3.480499680515373 -7.491150345371579 0 0 0
68 83 1 -11.567740618445333 -2.1327224356223926 -7.531489556338252 0 0 0
71 84 1 -10.357544904864481 -1.4176667297148808 -7.401306344521536 0 0 0
80 85 1 -7.930979142947595 -4.221245309946063 -7.641455791283961 0 0 0
76 86 1 -9.127415110680962 -3.4836771369287947 -7.390206482051715 0 0 0
77 87 1 -9.14637286495717 -2.0852355485807563 -7.6326220277219035 0 0 0
83 88 1 -7.906035282113034 -1.3749696306670995 -7.633546894618399 0 0 0
90 89 1 -5.460138145296322 -4.230727517932196 -7.3479308133157 0 0 0
85 90 1 -6.669207679357467 -3.549742032443192 -7.677304022184299 0 0 0
86 91 1 -6.6919020343014495 -2.116370961973506 -7.498125719029942 0 0 0
93 92 1 -5.436981116829031 -1.4028572808285382 -7.467019153056065 0 0 0
95 94 1 -4.284667996402855 -3.504270396700801 -7.493998541859404 0 0 0
97 95 1 -4.22433139566033 -2.1258159051404917 -7.270165309254024 0 0 0
70 121 1 -10.312692313854868 0.008105890672030654 -7.624848594664485 0 0 0
67 122 1 -11.457050869128786 0.7615017720685127 -7.316701251798253 0 0 0
65 123 1 -11.46831898206092 2.1566127306963727 -7.398249192538628 0 0 0
72 124 1 -10.269535688121604 2.84523412895715 -7.6351256770598654 0 0 0
82 125 1 -7.931916273279214 0.03034497309518186 -7.401548276904439 0 0 0
78 126 1 -9.100825713803221 0.736959612994174 -7.607188099713365 0 0 0
75 127 1 -9.125680630697525 2.108673505879385 -7.369142098705696 0 0 0
81 128 1 -7.910764920008725 2.8315678829076196 -7.533279595143344 0 0 0
92 129 1 -5.462102251079892 0.016422444932876253 -7.3461448127843445 0 0 0
87 130 1 -6.6989050198121785 0.6943205523801446 -7.511904810408838 0 0 0
84 131 1 -6.711161677095898 2.0977400913561617 -7.399847900685227 0 0 0
91 132 1 -5.496832053715387 2.7980965687752835 -7.57762446540303 0 0 0
98 134 1 -4.235026529922078 0.7324347023557097 -7.368778583220568 0 0 0
94 135 1 -4.261392548976954 2.1172997963336444 -7.630516647135751 0 0 0
175 161 1 -10.334968714382772 4.241809696441197 -7.78458553518028 0 0 0
183 165 1 -7.9097775571392015 4.235574445800955 -7.367686300113454 0 0 0
189 169 1 -5.479312795918891 4.211448188535189 -7.294869351830034 0 0 0
100 93 1 -3.0771157467772157 -4.183454323716819 -7.446915134591557 0 0 0
103 96 1 -2.9711758285414605 -1.3735364423531151 -7.353376354062753 0 0 0
110 97 1 -0.6168137352261341 -4.256567648558628 -7.641816628045491 0 0 0
106 98 1 -1.821869676995851 -3.4909834410319935 -7.525867040647697 0 0 0
107 99 1 -1.8206900670589068 -2.0867570997655287 -7.650923734262807 0 0 0
112 100 1 -0.5877904727916377 -1.3970831602906784 -7.610458132455413 0 0 0
102 133 1 -3.038017797505901 0.035879905987352835 -7.511971356668664 0 0 0
101 136 1 -3.010443643653892 2.871456441347532 -7.403968766579164 0 0 0
113 137 1 -0.5919530253397368 -0.0024953799933973395 -7.411285782282934 0 0 0
108 138 1 -1.828897262170028 0.7416468392176105 -7.581005912195558 0 0 0
105 139 1 -1.8176649559172788 2.1400107673951627 -7.365455146675807 0 0 0
111 140 1 -0.5968591432450867 2.8789483760796704 -7.367781788641724 0 0 0
198 173 1 -3.0391387175311317 4.300801244019911 -7.374828487928267 0 0 0
208 177 1 -0.6157706684922586 4.257926677115803 -7.66943648166272 0 0 0
171 162 1 -11.574910493029744 4.863568690466974 -7.487481503256905 0 0 0
170 163 1 -11.634064375348606 6.24887978141545 -7.234257657897234 0 0 0
174 164 1 -10.406309720143737 6.984195939484436 -7.474822500451454 0 0 0
179 166 1 -9.102142065830968 4.920984381094998 -7.640953644685285 0 0 0
178 167 1 -9.173380420299164 6.299169639448622 -7.326996941879923 0 0 0
182 168 1 -7.959608820101385 7.024043375157527 -7.268704469842928 0 0 0
186 170 1 -6.70351093063265 4.93660788936858 -7.521287405844442 0 0 0
185 171 1 -6.72173247837222 6.323915734151351 -7.357281274323123 0 0 0
190 172 1 -5.490417881800463 7.017134162668948 -7.5750529581345445 0 0 0
194 174 1 -4.277850920651114 4.942077468983792 -7.453211406737936 0 0 0
193 175 1 -4.275881712132128 6.333620241298252 -7.3213172663539785 0 0 0
173 201 1 -10.372735767636918 8.391327332103593 -7.14038124407538 0 0 0
169 202 1 -11.608368382767631 9.112400807496915 -7.175097445369587 0 0 0
181 205 1 -7.954153819378551 8.405925653120496 -7.588888829055518 0 0 0
177 206 1 -9.171431919982375 9.09808724394234 -7.473397233128913 0 0 0
191 209 1 -5.5472400966272 8.45676276613092 -7.720690933771899 0 0 0
187 210 1 -6.771455711263805 9.162064133978083 -7.468279043161683 0 0 0
195 214 1 -4.3432148022425965 9.113963080355129 -7.562989876169613 0 0 0
199 176 1 -3.049935473209875 7.017606634274797 -7.489380693823309 0 0 0
203 178 1 -1.7882556339659375 4.984162720632652 -7.478752464813375 0 0 0
201 179 1 -1.801335773616779 6.338308370756235 -7.735528706554903 0 0 0
207 180 1 -0.6291566107689509 7.05599690935488 -7.833999710940111 0 0 0
197 213 1 -3.0912511726074317 8.414873044917982 -7.784765981635633 0 0 0
206 217 1 -0.5947153384485596 8.427243085844697 -7.5459089583196075 0 0 0
202 218 1 -1.8327477337093239 9.080000521179764 -7.765017732135641 0 0 0
275 243 1 -11.56497249147039 -9.174701267664862 7.569168172754873 0 0 0
277 244 1 -10.30131766669744 -8.497824099479685 7.554299048902189 0 0 0
279 247 1 -9.093529774331268 -9.171048069768354 7.447797085773556 0 0 0
281 248 1 -7.940427394248314 -8.395549279304023 7.278531086794447 0 0 0
283 251 1 -6.734603909045896 -9.105215527758785 7.335448701703889 0 0 0
285 252 1 -5.530187321372385 -8.37495728033925 7.151181296766028 0 0 0
287 255 1 -4.239424714363093 -9.079283640596897 7.308608604372082 0 0 0
321 281 1 -10.331739236529025 -7.087391833118723 7.4038835338402205 0 0 0
315 282 1 -11.540949627667391 -6.381012116312852 7.534941152452201 0 0 0
316 283 1 -11.57019406189318 -4.9868131733609875 7.56222365583644 0 0 0
332 285 1 -7.988153330912015 -7.05114632697804 7.694248227064643 0 0 0
326 286 1 -9.190095091262823 -6.325925470420354 7.759159111076551 0 0 0
327 287 1 -9.135058448600887 -4.95675199976447 7.602989578905357 0 0 0
347 289 1 -5.499414381095168 -6.985764911795965 7.360811612397665 0 0 0
341 290 1 -6.7359883223771195 -6.35573225305501 7.6058756780033185 0 0 0
342 291 1 -6.764263187313979 -4.951664714811495 7.463241340672662 0 0 0
348 294 1 -4.25412207607044 -6.280777778547705 7.593368470356872 0 0 0
351 295 1 -4.264795004371262 -4.8629575322495535 7.5599869760271545 0 0 0
289 256 1 -3.0368295273646417 -8.409548733958845 7.502392531047802 0 0 0
291 259 1 -1.7997851181853943 -9.079331621513452 7.319371310710141 0 0 0
294 260 1 -0.5849245499624838 -8.400920957079087 7.484788576632173 0 0 0
358 293 1 -3.017784006704248 -6.986203451008626 7.4076319364250836 0 0 0
365 297 1 -0.5841478276950872 -6.995108175277084 7.353542078651292 0 0 0
359 298 1 -1.7942892442586866 -6.285644054415086 7.507206473935437 0 0 0
360 299 1 -1.8363143218781706 -4.895689800395818 7.377124174702218 0 0 0
322 284 1 -10.376958072118347 -4.2843131922846105 7.517921071828034 0 0 0
333 288 1 -7.956712988327288 -4.258981109999372 7.778564838976932 0 0 0
343 292 1 -5.513091670509003 -4.250498911763016 7.749089916020539 0 0 0
325 321 1 -10.403869333488602 -2.8755892302932584 7.7327139435547325 0 0 0
318 322 1 -11.573726790516929 -2.1346214834379915 7.593214530847439 0 0 0
320 323 1 -11.509276362562513 -0.7763625196274067 7.423982644858344 0 0 0
323 324 1 -10.335404355138184 -0.022425605851433026 7.363933082128568 0 0 0
334 325 1 -7.93802982048457 -2.797606752967448 7.7642904697049895 0 0 0
329 326 1 -9.200932725751732 -2.1636467510405066 7.53617397939265 0 0 0
331 327 1 -9.151470660496882 -0.7304720457776513 7.66994506818069 0 0 0
335 328 1 -7.941040047202079 0.011150486380049084 7.525709785469934 0 0 0
344 329 1 -5.463943860224574 -2.8012438824680173 7.758803233086685 0 0 0
337 330 1 -6.698967484983179 -2.0943967611890297 7.523266405318951 0 0 0
340 331 1 -6.70549684695253 -0.6730653964008403 7.645035844025159 0 0 0
345 332 1 -5.493500325818227 0.0024936956648979654 7.475222078509776 0 0 0
349 334 1 -4.284733828786986 -2.0555177165689793 7.567296652119775 0 0 0
353 335 1 -4.264936710101286 -0.6545940412600809 7.714176270426873 0 0 0
324 361 1 -10.36527689364107 1.3491778897333953 7.6715136868596225 0 0 0
319 362 1 -11.562755777529683 2.075121380790302 7.460467366234756 0 0 0
317 363 1 -11.5860997216186 3.514296521050487 7.4945622264100455 0 0 0
434 364 1 -10.365042041803688 4.213673339314656 7.619826659969676 0 0 0
336 365 1 -7.934871795826144 1.3852365415085943 7.652624537680007 0 0 0
330 366 1 -9.149198413318025 2.0695132902464377 7.463222223767452 0 0 0
328 367 1 -9.143067029492853 3.459595743255544 7.620182851659085 0 0 0
443 368 1 -7.948426850120381 4.135711922723942 7.440864214590473 0 0 0
346 369 1 -5.499160318813816 1.4223101042537687 7.605543324140384 0 0 0
339 370 1 -6.740560410444929 2.057550538267762 7.458141890283745 0 0 0
338 371 1 -6.693634064045282 3.4703859584986945 7.378200275315697 0 0 0
450 372 1 -5.476689749281927 4.159622038317904 7.589412237615455 0 0 0
352 374 1 -4.26211398445784 2.1020527751699998 7.397680212063761 0 0 0
350 375 1 -4.256398378932299 3.4649132487403453 7.426499218052983 0 0 0
354 296 1 -3.0313094462545593 -4.1430451433205855 7.660816390906674 0 0 0
366 300 1 -0.6000623906701711 -4.192462043230338 7.545269454460263 0 0 0
355 333 1 -3.0469465002933576 -2.7207741564473635 7.688727065913648 0 0 0
356 336 1 -3.052769144977839 0.06356332067965052 7.422490729943838 0 0 0
367 337 1 -0.6071543604334417 -2.7571099486409714 7.573182694913427 0 0 0
362 338 1 -1.8500482627110262 -2.0529090903358607 7.354137791548967 0 0 0
364 339 1 -1.846209664177302 -0.635961862500672 7.554881558657556 0 0 0
369 340 1 -0.6033749975047698 0.032928094747545024 7.388724700059219 0 0 0
357 373 1 -3.0339775793808186 1.4152675931994048 7.6366681693128 0 0 0
460 376 1 -3.0270575457315583 4.138354554947916 7.755606944077929 0 0 0
368 377 1 -0.5875191398882981 1.4353770989169339 7.531703336258483 0 0 0
363 378 1 -1.8214521948701836 2.078655574582939 7.444101355972607 0 0 0
361 379 1 -1.8008097655041668 3.4928464367792857 7.734709979938882 0 0 0
471 380 1 -0.5675736705048553 4.193788907931509 7.56000485144381 0 0 0
433 401 1 -10.340602752171222 5.629807133601736 7.437753910392039 0 0 0
429 402 1 -11.568765746095519 6.30611740681926 7.381259741577915 0 0 0
428 403 1 -11.508449473340262 7.7099436255753115 7.3701483032198745 0 0 0
432 404 1 -10.310194264599506 8.407734960523829 7.568878630661757 0 0 0
442 405 1 -7.941421538352183 5.575102691266633 7.587479206089759 0 0 0
438 406 1 -9.106389436553066 6.288367340570268 7.634975945173676 0 0 0
437 407 1 -9.108917560856298 7.671427495915341 7.443031788744389 0 0 0
441 408 1 -7.910468363625475 8.416828150539057 7.549163577971417 0 0 0
449 409 1 -5.502402790443727 5.594609746301356 7.597694810863577 0 0 0
446 410 1 -6.744706579236162 6.297976335938007 7.3378406152139455 0 0 0
445 411 1 -6.716175228851926 7.718565552495056 7.336045833854984 0 0 0
451 412 1 -5.492941552520076 8.37671918032743 7.574523744491305 0 0 0
455 414 1 -4.221106173706767 6.268308916545474 7.451502502105468 0 0 0
454 415 1 -4.241497744935737 7.700069875486357 7.388720814090973 0 0 0
8291 0 2 -8.35952520500339 6.724725874163604 -4.156571032115963 0 0 0
440 445 1 -7.919417277686268 9.829508580731282 7.625533784754983 0 0 0
452 449 1 -5.419421204597941 9.767671093465573 7.4525598810174065 0 0 0
459 413 1 -3.0231368289922793 5.54753846966824 7.790164608819181 0 0 0
461 416 1 -2.992124568809888 8.426616057511438 7.691076040265153 0 0 0
470 417 1 -0.5620343646211496 5.60316433573668 7.754643187776784 0 0 0
465 418 1 -1.8577461028286117 6.263651806770461 7.562521922066666 0 0 0
463 419 1 -1.8120980145482761 7.6788905203954645 7.6631274058871615 0 0 0
469 420 1 -0.5838934838718493 8.378725327950507 7.442705465912835 0 0 0
458 453 1 -2.9843423537777674 9.809481211783002 7.429899508846938 0 0 0
468 457 1 -0.5452594371492019 9.807731175203944 7.567369013666074 0 0 0
8135 0 2 -9.110472873071751 -8.610135229340141 -4.576246509916871 0 0 0
9171 0 2 -17.67911800691426 -7.773362176167102 13.138051863278335 0 0 0
3911 0 2 -9.273271608716716 -4.435584865959301 4.329934149442309 0 0 0
267 0 2 -3.9505284188950904 1.9669390814774772 -3.467622368501343 -1 0 0
7213 0 2 -7.9325119333224094 4.8062021898547975 10.953441051962619 0 0 0
254 0 2 -10.484868937460293 -3.3085825546076526 -4.277445798963837 0 0 0
7877 0 2 -3.052337093658428 -2.001562250160457 12.742398214572301 0 0 0
252 0 2 -3.0165198025731894 4.949001149297453 11.392241305833686 0 1 -1
9422 0 2 -26.07816373415004 -9.379850363745028 -2.251611604970542 0 0 0
7524 0 2 -8.364452653722068 6.355016502944296 4.3750544312479756 0 0 0
9460 0 2 -14.103910942655657 -0.7961087555708579 0.49318717416536045 0 0 0
5360 0 2 -9.536406460695076 1.5658541481054575 4.365429869494519 0 0 0
8973 0 2 -22.39437476341199 1.836387534122323 -12.072006676048172 0 0 0
3782 0 2 -1.4291390267711488 2.932706826907239 -10.363336121589473 0 0 0
9393 0 2 -19.442890556714914 0.2887201499024343 1.4859064989269233 0 0 0
711 0 2 -0.4759928914871274 -4.263343058277064 -4.404961281699538 0 0 0
615 0 2 -9.548090418710286 -8.644144932046553 4.03001483600864 0 0 0
5675 0 2 -5.124487179186335 -1.3858485466685122 4.235853190407948 0 0 0
9469 0 2 -2.785158536525865 -7.632585168996317 -14.960053245237246 0 0 1
8979 0 2 -10.574533126906276 -9.51709111123986 10.495163635188314 0 0 0
5128 0 2 -4.394561776289524 -6.436415544622566 4.406516632864521 0 0 0
5079 0 2 -9.035887754166529 -2.6369060276639815 -10.655336370378865 0 0 0
9475 0 2 -6.182848644851897 -5.744727408156112 12.74984405145468 0 0 0
9409 0 2 -22.563140277221986 9.745958095044767 -11.662759757348326 0 0 0
9288 0 2 -25.031197447583867 2.216811306407015 9.707982981849554 0 0 0
9317 0 2 -16.625191436634676 8.264341578884808 0.33742884369926374 0 0 0
272 0 2 -5.215705221983126 6.426758902465189 -10.868109013827281 0 1 1
1428 0 2 -3.094043044418372 5.105606774339709 4.272409154419692 0 0 0
5604 0 2 -8.590240798636215 -9.367246930286562 -10.789277935891487 0 0 0
9452 0 2 -24.040709535344774 -5.094899210412693 9.983290657083714 0 0 0
8902 0 2 -20.767305658504018 -9.663658769936468 -8.449330730940925 0 0 0
2524 0 2 -5.483696486850478 -4.392916270649925 -4.138155424327834 0 0 0
9060 0 2 -14.283025432813991 -0.14922196050565867 -7.885181648276023 0 0 0
9451 0 2 -22.18024247409478 5.851042983410157 5.748795989055792 0 0 0
8941 0 2 -15.382062879696717 -1.4062292814925434 9.241358806459996 0 0 0
431 441 1 -10.342519817874832 9.793842729480387 7.2800298375061505 0 0 0
9487 0 2 -2.497754279540848 -3.081685101403603 -11.182110430778211 0 0 0
9225 0 2 -21.785498644516544 -6.023315914824561 -4.63605653119693 0 0 0
9340 0 2 -14.814749350419595 9.735134573161236 10.013332841240414 0 0 0
9439 0 2 -29.777243883297952 4.951914988864186 2.2936387851108906 0 0 0
9474 0 2 -28.343456844550833 -8.496175293656076 -12.891678287799449 0 0 0
9481 0 2 -13.30956909739448 9.170135696086248 -9.82869389537929 0 0 0
172 203 1 -11.576872138212526 10.502698112779687 -7.261228582215714 0 0 0
176 204 1 -10.370037881607448 11.162910967065326 -7.470972917182567 0 0 0
180 207 1 -9.16766829105779 10.528416383667446 -7.308421382100458 0 0 0
184 208 1 -7.986584833220775 11.25562494536587 -7.43350471156062 0 0 0
188 211 1 -6.783494974394931 10.551185267523824 -7.655425128946721 0 0 0
192 212 1 -5.544043392043083 11.208634969554328 -7.551781321798169 0 0 0
196 215 1 -4.345824401988971 10.508395696677331 -7.671558312195836 0 0 0
200 216 1 -3.087675878144784 11.146237669997893 -7.521905564189165 0 0 0
204 219 1 -1.8807128777274502 10.399476485391455 -7.374041086165826 0 0 0
205 220 1 -0.7067463098501576 11.144369499188738 -7.4632654742986455 0 0 0
427 442 1 -11.52652724574789 10.426332863751355 7.531339937772184 0 0 0
430 443 1 -11.472831011769125 11.84334088448662 7.708445326998767 0 0 0
435 444 1 -10.329924108296757 12.604793554912373 7.54251368768643 0 0 0
436 446 1 -9.147191149818443 10.532263245151087 7.541004588951753 0 0 0
439 447 1 -9.117335552430129 11.907065911485338 7.274860404827496 0 0 0
444 448 1 -7.899610081304371 12.557193682008663 7.497260523303675 0 0 0
447 450 1 -6.675590892989048 10.462301679379083 7.44506229985099 0 0 0
448 451 1 -6.67269899422387 11.841999376217924 7.556664318304935 0 0 0
453 452 1 -5.469858938968212 12.58255537519726 7.326330848921412 0 0 0
456 454 1 -4.207782165012058 10.480102018317496 7.563970169065755 0 0 0
457 455 1 -4.2274739686293925 11.875953553031131 7.218718379318204 0 0 0
462 456 1 -3.027721140654602 12.573746266427696 7.2304158332224695 0 0 0
464 458 1 -1.7718742403275554 10.515569598028511 7.5951721874183615 0 0 0
466 459 1 -1.7829772766721246 11.863135009058594 7.20854757130072 0 0 0
467 460 1 -0.5694874804723 12.611323067597976 7.379421925467794 0 0 0
9402 0 2 -16.25533904306215 15.440758841376418 5.137686430641141 0 0 0
9208 0 2 -13.945109875360464 19.302893270459936 1.5673306018077013 0 0 0
9111 0 2 -25.357797673650694 10.83751444443489 -4.539253911609487 0 0 0
9369 0 2 -15.270802275347455 20.79339465910066 -10.165505822338295 0 0 0
9321 0 2 -1.4194073555195599 21.586994011251157 2.1202744534716036 0 0 0
9448 0 2 -27.2080847697998 15.51472892008987 -11.418847904910164 0 0 0
9468 0 2 -29.326120139118093 26.33357403310075 0.9090251838354603 0 0 0
9473 0 2 -12.83010410673393 24.632556063975294 -11.207598214375222 0 0 0
3694 0 2 -8.370716700472181 11.724966239718402 10.481895855971425 0 0 0
9420 0 2 -19.461142665802015 11.353965568426371 5.567958483492564 0 0 0
9038 0 2 -8.211913279744447 14.833387934480857 5.2078394460216995 0 0 0
9312 0 2 -10.812270802578732 11.605682591012874 -3.2176900731479727 0 0 0
9429 0 2 -7.316972099344604 14.656344644420624 -14.047737381220145 0 0 0
9395 0 2 -16.083466168289203 13.213787254181586 -5.682509877320627 0 0 0
9389 0 2 -14.423706147311213 10.600696779931175 -14.851026055700844 0 0 0
9269 0 2 -2.087910243071664 10.147765946188734 0.21877385628675516 0 0 0
9000 0 2 -9.337524310714125 21.37218239233422 -6.879353024410467 0 0 0
9465 0 2 -11.300450198004974 27.648738312436524 -3.6705751365537402 0 0 0
9359 0 2 -20.06119665181508 18.040804507584113 -2.5069813290608685 0 0 0
9387 0 2 -27.605326422948544 26.03652336258586 -6.931586944194691 0 0 0
9430 0 2 -18.970778532867666 21.2208241366037 14.47549426604606 0 0 0
9135 0 2 -4.871914485088547 16.175055085632593 7.830465091805487 0 0 0
9370 0 2 -23.020386564886227 26.311058535027243 12.06794411897437 0 0 0
9258 0 2 -19.180550153148427 25.325357552598962 1.6702733866686816 0 0 0
9449 0 2 -9.41492445743273 22.95931707733429 14.555808866312372 0 0 0
9482 0 2 -26.73465749481901 20.754783848310712 -13.649034811328164 0 0 0
9492 0 2 -28.03850523921051 18.647534933129947 4.7492349978839785 0 0 0
9495 0 2 -28.585957874798684 20.700142789170812 0.35929071738772717 0 0 0
9496 0 2 -28.2756528507717 28.373630497491366 8.95992862249859 0 0 0
36 21 1 1.8553457066973797 -12.636829372257473 -7.700611389252798 0 0 0
33 22 1 0.5908984715427463 -11.926476860312084 -7.8760489445185105 0 0 0
32 23 1 0.5568381721882972 -10.587604060175423 -7.470401955033612 0 0 0
39 26 1 3.064200988120639 -11.937234223991714 -7.516053728676819 0 0 0
38 27 1 3.0075401766136807 -10.508988740077061 -7.700935423173375 0 0 0
40 25 1 4.256383743183919 -12.642092192904093 -7.697896699322097 0 0 0
48 29 1 6.6868259171082105 -12.549593158224747 -7.740672167000976 0 0 0
45 30 1 5.452848564863879 -11.941760204925272 -7.528335597424963 0 0 0
43 31 1 5.4744201144004165 -10.54620059419877 -7.4767785882998075 0 0 0
52 33 1 9.119208963770895 -12.499247977579778 -7.5727572968625925 0 0 0
49 34 1 7.9300773215855465 -11.803041216921464 -7.851784262891142 0 0 0
51 35 1 7.883464809703737 -10.469258975137983 -7.479643489020446 0 0 0
58 37 1 11.405757919324786 -12.61602999311397 -7.173137768334517 0 0 0
55 38 1 10.275389093342536 -11.817898021629055 -7.270453197666283 0 0 0
57 39 1 10.353148300145772 -10.471534877764686 -7.590893057324153 0 0 0
298 261 1 1.8591147751406543 -11.208832781510587 7.672008172187617 0 0 0
296 262 1 0.6344948827678699 -10.50278032734021 7.684199740899342 0 0 0
300 266 1 3.0911545862375536 -10.607504275131879 7.480217085876247 0 0 0
301 265 1 4.281670452276179 -11.289097473237447 7.766290347337804 0 0 0
306 269 1 6.692170286008253 -11.242355274485089 7.712081805937802 0 0 0
304 270 1 5.442358520922553 -10.568413137400956 7.8331561263163545 0 0 0
309 273 1 9.139963418649325 -11.22336519393989 7.507806785079184 0 0 0
307 274 1 7.920302566400214 -10.536545035977749 7.45362372838822 0 0 0
313 277 1 11.492078676082992 -11.211248863947104 7.838272711385231 0 0 0
311 278 1 10.354174944772828 -10.517538653005158 7.4337406656543585 0 0 0
9479 0 2 2.483482399823015 -21.246473891246676 0.019281572086423126 0 0 0
9383 0 2 6.308569625977754 -28.802705838068174 9.573576651186347 0 0 0
9302 0 2 29.592966268813583 -10.63120268903789 1.5398508284876808 0 0 0
9240 0 2 9.283746300929508 -24.25304932634389 3.255993926148969 0 0 0
6808 0 2 2.9158604854163808 -11.904856530519378 -10.654173570953743 0 0 0
9404 0 2 13.132730831959826 -24.036659121510368 -4.970087916920441 0 0 0
9424 0 2 26.64433225230771 -21.70614188935688 -5.4798843786865055 0 0 0
4945 0 2 1.3767962723805864 -10.336513467157879 4.269284428750937 0 0 0
8568 0 2 13.455204597734227 -11.691044772779481 -9.816349019169305 0 0 0
9493 0 2 22.15856722429355 -16.07019480431494 -9.365021512563441 0 0 0
9344 0 2 28.812450832565904 -15.032184497167645 -9.14840272628134 0 0 0
9428 0 2 11.62214174113213 -11.416408277995725 -2.0812634045934053 0 0 0
9350 0 2 12.041456257466782 -15.537774165583839 -6.104802785048848 0 0 0
9379 0 2 7.446934466820813 -21.487948080912297 -12.171876357711584 0 0 0
9313 0 2 11.970601473355044 -10.763633119335093 12.75187016447362 0 0 0
4479 0 2 3.4987514934067323 -10.069926809690672 10.965737406750218 0 0 0
9396 0 2 4.318675801227972 -23.810222658240427 13.88674682280581 0 0 0
9443 0 2 28.880342456738532 -28.901071729236502 1.0083016756986847 0 0 0
9403 0 2 22.533244192358246 -16.569050406748502 -3.6144941057614943 0 0 0
9436 0 2 28.064809532941172 -26.910375934397482 -5.350788003257834 0 0 0
9447 0 2 28.702689997359595 -12.016561658500388 8.496536298055087 0 0 0
9454 0 2 17.735869018059137 -27.9299987345151 -8.823517423360148 0 0 0
9455 0 2 1.9294017493112685 -29.350570931947466 14.094388314524423 0 0 0
9466 0 2 22.89588881981573 -26.47153654532027 -5.708290201077946 0 0 0
9463 0 2 16.684544139847805 -16.7438713030529 8.512875529339741 0 0 0
9461 0 2 2.8915464351909193 -16.39114341159331 14.612111401489342 0 0 0
9478 0 2 20.118335737978516 -21.73777570053044 10.770208496137654 0 0 0
9480 0 2 8.001541242019162 -16.038341072131267 9.008766637766879 0 0 0
9483 0 2 14.335501399714019 -23.206244013675228 11.079053917829858 0 0 0
9489 0 2 16.73343054818123 -20.199407069452146 -6.234212183309306 0 0 0
9490 0 2 17.008934118110208 -21.170959875305538 -12.072569737677242 0 0 0
35 24 1 1.766054023535037 -9.870055556369577 -7.670796882862662 0 0 0
34 61 1 1.783045500754126 -8.451171787754701 -7.421220122452558 0 0 0
31 62 1 0.5926916520879189 -7.717695387463685 -7.436635639447014 0 0 0
118 63 1 0.5821472976022231 -6.362344705437104 -7.544001579843954 0 0 0
123 64 1 1.8051255621034572 -5.6535132509016295 -7.447298104298495 0 0 0
37 66 1 3.011846717391836 -7.712628895900496 -7.673834154271952 0 0 0
128 67 1 3.0137769675457196 -6.317142179349806 -7.409077133135484 0 0 0
42 28 1 4.2284977230539615 -9.809684797513386 -7.532311578398481 0 0 0