LAMMPS data file via write_data, version 27 Jun 2024, timestep = 150000, units = real

108 atoms
2 atom types
80 bonds
1 bond types
132 angles
1 angle types
218 dihedrals
1 dihedral types
36 impropers
1 improper types

-12.5 12.5 xlo xhi
-12.5 12.5 ylo yhi
-15 15 zlo zhi

Masses

1 12.0107
2 2.016

Bond Coeffs # harmonic

1 469 1.4

Angle Coeffs # harmonic

1 63 120

Dihedral Coeffs # opls

1 0 7.25 0 0

Improper Coeffs # harmonic

1 5 180

Atoms # molecular

9 1 1 -3.108475205447499 -4.169797545718517 -7.405970338964794 0 0 0
16 5 1 -0.6948044012377638 -4.077306512735448 -7.505503685927218 0 0 0
22 9 1 1.7701073997584877 -4.12328332463088 -7.640345782958079 0 0 0
31 13 1 4.206581781893598 -4.148755556467916 -7.485103796517174 0 0 0
5 2 1 -4.370797386027189 -3.4679217586289686 -7.352848820611681 0 0 0
3 3 1 -4.342175337672042 -2.0946660988040984 -7.311145358421592 0 0 0
6 4 1 -3.116411055031623 -1.4028103199217303 -7.2361434400011895 0 0 0
12 6 1 -1.8931218101578735 -3.419510352047986 -7.298138705101869 0 0 0
11 7 1 -1.9025694647300884 -2.020311695315054 -7.575932590306729 0 0 0
14 8 1 -0.6352962455720157 -1.4120797797933142 -7.453757650610468 0 0 0
21 10 1 0.5195354774524125 -3.431773561770381 -7.806240801147521 0 0 0
18 11 1 0.5695098108467558 -2.0632044446853897 -7.748614033564006 0 0 0
25 12 1 1.797971317590794 -1.3614083417549616 -7.668702117762991 0 0 0
27 14 1 3.024073329934059 -3.467105889512247 -7.833277853211729 0 0 0
28 15 1 2.9948393470277277 -2.0692591345358076 -7.534691288028399 0 0 0
33 16 1 4.17300473793446 -1.358334411705735 -7.799643869666126 0 0 0
8089 0 2 -8.379274740219175 -2.6975887289884897 -9.40343702195468 0 0 0
8127 0 2 -2.292006294476551 -6.929432291344187 -6.614985267143993 0 0 0
7 17 1 -3.1393980563699784 -0.011659011768397377 -7.575503993166227 0 0 0
8112 0 2 2.0834683232955897 -1.3068117643191153 -11.791649872772382 0 0 0
8169 0 2 -7.086150720716129 -11.35456691525033 -9.566041881866811 0 0 0
8201 0 2 -10.497827809094764 -8.084783591795784 -14.809284298044554 0 0 0
8186 0 2 12.269926344265437 -2.0511931478733176 -14.599991635577432 0 0 0
8187 0 2 -3.1169817905566797 -4.971766727993687 -13.5442651437728 0 0 0
15 21 1 -0.656843000822342 -0.001866699925678611 -7.57572000713335 0 0 0
8124 0 2 5.008291171658511 -4.088878969105459 4.192791387485869 0 0 0
8151 0 2 8.454921699451084 -2.142150845778178 -4.428727720000135 0 0 0
8191 0 2 12.012813932491131 -2.0860777465568012 1.0997531866546217 0 0 0
8189 0 2 -10.497480122884198 -11.150946473061255 1.1874399955770334 0 0 0
8192 0 2 0.9905878728974619 -8.806103846907233 0.14023239230361392 0 0 0
39 34 1 -4.250700481550201 -2.158558821763283 7.713329002532403 0 0 0
38 35 1 -4.290331049822682 -0.738201168591445 7.568679780869172 0 0 0
42 33 1 -3.042407847401077 -2.7320763591627726 7.587818319943455 0 0 0
48 37 1 -0.6029776936000497 -2.7844977375175866 7.369757935787319 0 0 0
45 38 1 -1.8595527495729058 -2.138716491217555 7.1906594076473755 0 0 0
44 39 1 -1.892538432307508 -0.7493281602216794 7.329308200733338 0 0 0
52 41 1 1.846072382910337 -2.7772340591807874 7.45781448655968 0 0 0
51 42 1 0.6272877921060986 -2.162663685602318 7.238968949570199 0 0 0
50 43 1 0.5974032435227385 -0.7794763226076599 7.467086137742809 0 0 0
55 46 1 3.049975338616862 -2.1123490938103644 7.7313402763682255 0 0 0
57 47 1 3.0616109329907912 -0.7208919795535449 7.622956783103686 0 0 0
58 45 1 4.158974739686842 -2.9174846289749015 7.571460102933701 0 0 0
60 48 1 4.256723134604816 -0.020170426348195734 7.450832265988015 0 0 0
47 40 1 -0.6354321890434567 -0.06421149975813391 7.22652223841555 0 0 0
40 36 1 -3.1089287680436604 -0.026251089358800078 7.288771323855839 0 0 0
8139 0 2 -11.872948010076247 -3.951843446473841 9.876263011464985 0 0 0
53 44 1 1.8401664978891146 -0.06212736607795304 7.254543015619273 0 0 0
8058 0 2 6.459583515998886 -4.2107750322439434 10.184143553128111 0 0 0
8088 0 2 -2.431519677959291 -3.264713962195014 10.865654131647132 0 0 0
8014 0 2 -7.517499036968843 -1.6212606202179694 5.279525816770784 0 0 0
8181 0 2 11.542412007868123 -10.778383702804478 11.980680915296974 0 0 0
8190 0 2 0.8754503656174981 -10.273250841987249 11.669457830417258 0 0 0
8196 0 2 -4.630854779033753 -6.755337485622235 5.394479700684281 0 0 0
8197 0 2 5.943381389659556 -9.69329243762968 11.251380970683579 0 0 0
2 18 1 -4.32706296156432 0.7474876555210542 -7.487972399757257 0 0 0
4 19 1 -4.237048842966818 2.16619966079594 -7.698785126906531 0 0 0
8 20 1 -2.964450198951456 2.8459704910964594 -7.6763402491426005 0 0 0
10 22 1 -1.8896953870462447 0.7093308078564664 -7.483022935345186 0 0 0
13 23 1 -1.7764795234210844 2.107740974178562 -7.792007667210553 0 0 0
17 24 1 -0.58475173713057 2.7999105558793267 -7.46183886702533 0 0 0
19 26 1 0.5608711944435588 0.7024074845722439 -7.558042331234546 0 0 0
20 27 1 0.5879927806912688 2.0869626629472107 -7.225921271781871 0 0 0
23 28 1 1.812444706626304 2.7491345189399143 -7.239391056375879 0 0 0
29 30 1 3.043481063941633 0.6788298979812227 -7.3028009955464785 0 0 0
26 31 1 3.0673025807685064 2.1057370500687433 -7.495094578246761 0 0 0
30 32 1 4.334481351509996 2.7831538809789604 -7.138294285126998 0 0 0
5547 0 2 -3.0071873008344934 0.692402059310656 -10.911250736033848 0 0 0
8162 0 2 1.245708033905499 5.444660789690801 -14.763694583342213 0 0 0
32 29 1 4.255256974676995 0.012454377036717132 -7.605622921301444 0 0 0
8145 0 2 0.2101102128590127 5.436661149822394 -6.168035447477676 0 0 0
8175 0 2 -2.0337510353265493 7.843616163902326 -10.435401959790559 0 0 0
24 25 1 1.7517405279823428 0.01449209903760504 -7.36746305797702 0 0 0
8202 0 2 4.515941429982253 10.405429601391644 -10.23414882085442 0 0 0
8158 0 2 7.792383738881272 1.1779083618569668 -13.36538636657342 0 0 0
8193 0 2 -5.477275593672216 3.808735183998166 -9.84141037137703 0 0 0
8194 0 2 -11.145043526375954 8.59275246758046 -13.598863271708634 0 0 0
8142 0 2 -1.83966449385137 1.697856188639962 -3.595760411456312 0 0 0
7852 0 2 0.6904944231427157 0.22921619483578987 3.878043599187052 0 0 0
8198 0 2 10.247094276728903 5.862327418165451 4.88850913111754 0 0 0
8164 0 2 2.6209876551534093 11.995859379585912 -3.019656283117938 0 0 0
8178 0 2 -2.5718433356727313 9.221389379490969 2.892228751025978 0 0 0
7681 0 2 2.6573706606256793 5.424354656291918 4.2836387352033825 0 0 0
8172 0 2 -3.41635208686001 2.1809818001923804 4.434401164000694 0 0 0
8204 0 2 -11.906586942166378 8.716589987820422 0.2172816442713079 0 0 0
37 50 1 -4.2388800156833915 2.0840446348112485 7.455103450580099 0 0 0
63 51 1 -4.1291313085313766 3.480220167611542 7.234898657090548 0 0 0
72 64 1 4.125543403858712 4.198322860818971 7.809894096998382 0 0 0
8156 0 2 8.710674193671885 5.660467870839935 10.254181752699003 0 0 0
66 56 1 -0.6475465096489209 4.131899163460803 7.659270274558828 0 0 0
41 49 1 -3.045498701717927 1.3491343922834986 7.5250480280412315 0 0 0
46 53 1 -0.5979743865174891 1.336161865127614 7.506959086404638 0 0 0
43 54 1 -1.8172269777993642 1.996425514575279 7.429328741048086 0 0 0
65 55 1 -1.8343453176017952 3.3792653841337015 7.714256004059403 0 0 0
54 57 1 1.8462798275242658 1.3147751423775706 7.24591986815008 0 0 0
49 58 1 0.6325114322846995 2.0574217307721487 7.294650724393201 0 0 0
67 59 1 0.5513080471235665 3.4012150937140486 7.653058997471937 0 0 0
56 62 1 3.051013588512403 2.0567965055399666 7.481220985470841 0 0 0
71 63 1 3.002430535049889 3.455471491201655 7.386217051779743 0 0 0
68 60 1 1.7141307630745544 4.102033181448087 7.537076945856857 0 0 0
59 61 1 4.24210018834139 1.3301014092044445 7.4233486071734776 0 0 0
64 52 1 -2.948199836095061 4.1146279826706165 7.40046348274304 0 0 0
8034 0 2 -0.9613672454354263 7.537674900058195 9.113999576755067 0 0 0
8071 0 2 -6.205670827615657 3.460727062088934 10.638864025357778 0 0 0
7894 0 2 -0.31071566384392146 1.954084735970331 10.661377809486403 0 0 0
8160 0 2 7.514573218710293 0.7005655316316202 7.7702148942681974 0 0 0
8168 0 2 -3.9441979655939194 9.582514413780784 14.882698810479775 0 0 0
8195 0 2 -10.02344632614185 3.880691599892199 7.184806924853189 0 0 0
8199 0 2 -8.558970940580494 8.733212030530389 11.664217976079444 0 0 0

Velocities

9 -0.0026698406144816415 -0.0019352719188583246 -0.006809999419245306
16 0.0015256258996728942 -0.008727456037528664 0.006788227556273646
22 -0.00010190748820417167 0.00015081712825204988 0.0005340258696010664
31 0.0032300107139745238 -0.0024881645270180765 0.005639890672032514
5 -0.0006928078422131277 -0.004388237569267152 -0.0006130405888654977
3 0.0034790844954352474 -0.0027670838995331884 0.0010184966901420234
6 0.00176375203351143 0.0038915523975802556 0.005199141967402785
12 -0.005788248727823353 -0.0015801005794865307 -0.009862520868759292
11 -0.001177499760099843 0.012047193517782363 0.0001852042819440299
14 0.0033875325367684482 0.006998029223270632 0.0036652323160627047
21 0.0015849089977724505 0.004047915653573431 0.002444324229913128
18 -0.001120710699697309 0.001292211564255917 -0.007971729701777376
25 0.002732240291801517 0.002573041952553052 0.0051920855973006915
27 -0.006951863907355806 -0.0013077746203949833 0.007733742366364911
28 -0.0006274941329176863 0.0029440211141767013 -0.001320174775049355
33 0.014313763629893285 -0.004983453485628608 -0.0012458521800164648
8089 0.0009688595545258307 -0.0014807078704900019 -0.004254213502552742
8127 0.014161930044550778 -0.01241737521841655 0.008636534796397116
7 0.0011098642245084011 0.00769978758393831 0.002157661850111848
8112 9.134958701026182e-05 0.02502218040968165 0.016018329926074368
8169 0.00734412464225262 -0.0028710484928881684 -0.016480606122902
8201 -0.003120378950715549 -0.008651204443673458 -0.016400664019557726
8186 -0.005942805670335473 0.007695411263044457 -0.007753566131498474
8187 0.03048678002119777 0.015356083431154967 0.002374799529840169
15 0.0025088431295873016 0.0011743990996354347 0.0034053679161870766
8124 -0.007964873428022304 0.0015551324477609523 -0.011793191682226646
8151 0.0006349910121949332 -0.003261490936811643 -0.012613141741733435
8191 -0.020278536721365276 0.008838216315009258 0.010092502456860442
8189 -0.0074048666560582056 0.010376071239576807 -0.001414561417035389
8192 -0.011940727001041533 0.01440705179638687 0.008809318784909585
39 -0.0037411371344714434 0.0011400628457228117 -0.006678560536773056
38 0.0007210403393236128 -0.001688251368347683 -0.00021377041622041627
42 -0.0038184714599468943 0.00046987398697791725 0.004818321055044252
48 0.005274378385160851 0.0023078683292279 0.00032379974390024814
45 -0.0016371183000641635 0.00372715470894307 0.007684786830513663
44 0.0018325912673496894 0.005301201162186292 -0.002665830522741127
52 -0.0008080421671699151 0.006880909842884769 0.0020996764601636927
51 0.004799284424751205 -0.0004834570648129263 -0.0020384342588990845
50 -0.00533278695894254 0.0022123322400159733 0.0005549439488692571
55 -0.00567934045876429 0.00018617990360047956 -0.0033059560878125668
57 0.00508952569710916 0.003665465051503123 -0.0065865271032079075
58 -0.005044020037434618 -0.0042833013325461414 3.712801992087969e-05
60 -0.00031572900257219213 -0.00803761814669817 0.0015121116334169708
47 -0.002627896869128011 0.004462390250450821 0.002467119693449499
40 -0.004086769280626151 -0.005239871327401998 0.0034134127397584826
8139 -0.024018171966206942 0.01052619385544838 -0.009069124169966592
53 0.009743564724338759 -1.0557265258950871e-05 0.0013707708411152758
8058 -0.00938146158600996 0.014467966747076715 0.0014836484829603843
8088 -0.007228102508334995 0.017030612002530796 -0.01605469435896661
8014 0.01040183433450844 0.0057204888069305624 -0.0014440375005208906
8181 -0.019894043917407095 0.010586844350805627 0.003992043185990388
8190 0.01718556487087701 0.012306965939729339 -0.01065838086084341
8196 0.010763380471333161 -0.0023920141995951126 -4.794268304463657e-06
8197 -0.002994170132425747 -0.0013680618330728339 0.028181516265551453
2 -0.0006195585434143489 0.004928157601312961 -0.001428825022207459
4 0.0021742850164217465 -0.0011739684284287318 -0.0059821876728369935
8 -0.0013004504665879853 0.0005371906421214098 0.0004852572353420654
10 0.005088172718090031 -0.008269678554077902 0.006243675189703586
13 6.493736825525086e-05 0.0074174822310743 -0.000779978256771462
17 -0.010201253145624218 0.004348365147151839 -0.010762043720175973
19 -0.0013857612708038267 -0.006544676334815212 -0.0005382041958866318
20 8.034873670725505e-05 0.004502037962874017 0.00013593291408510653
23 0.004419358775018593 -0.0014870408865174484 -0.004724009096044502
29 -0.009322372164591138 0.0017981632627795383 -0.006487888914124632
26 -0.003119648645949833 0.0007331705941753076 -0.0010337045797986389
30 -0.0016457748679257053 -0.0038905992611297847 -0.00026678304554233
5547 0.017577780069351352 -0.0014105226300782042 0.008840530463143544
8162 -0.01348152467316701 -0.006185945629140471 0.004890617523047049
32 -0.007598661857493565 0.0013662291816618386 -0.0037927852624250968
8145 0.012808462876551812 -0.011221692133032275 0.00573732286763393
8175 0.011290341850198251 0.015173826951754133 -0.00113883222756378
24 0.002943983180308436 -0.005859033067218361 0.004511107415385622
8202 0.0054304007974247314 -0.006469324482612524 0.011127179943332946
8158 0.01690451695149068 -0.0060279680268766605 0.008263661345565339
8193 0.011385780927555563 0.005038694540610099 -0.0024078019836823086
8194 -0.005015886460917789 -0.005901918885331344 0.0029008888527677027
8142 -0.0007817078019770454 0.008530256306310349 -0.019252627908664867
7852 0.03162984415054393 -0.0011676968648124937 -0.015096481635995562
8198 -0.0015324328280685153 0.00597364490270212 -0.011163477466030873
8164 0.003799055164551978 0.007596112942773523 -0.013229601623629503
8178 0.0012835152372188063 -0.015070581676039833 0.026312145412076646
7681 0.0036279276844864267 -0.012953277052431376 -0.01736488797622389
8172 0.012711955705152395 0.0020794732058756126 -0.0008677331074146008
8204 0.007634053175629783 0.012421347803634084 -0.033592165488679986
37 0.003925798457537248 -0.004002757808820336 -0.0013286687364053604
63 0.005046900909921965 0.012140142646312517 0.0031458984753448952
72 0.00468943165452152 -0.0033692832600062984 0.011889419584983693
8156 -0.007338013057880463 0.011664096881963642 0.004138129140075503
66 -0.0027456281312612657 0.007868406102506274 -0.008210458373816112
41 0.002030384484687535 -0.00014501685374895462 0.00437687733216586
46 2.9855661450079084e-05 0.005073473555318593 -0.005967950565958239
43 -0.005733740423598329 -0.0032869953320238824 0.006161591354943707
65 -0.0034593276893460615 0.0005181963120820531 -0.0016778932693682204
54 -0.0001790489770786454 -0.0014283692053459506 0.00022791676644243027
49 -0.0020491048359020615 -0.005783228464970092 0.008147569964531061
67 0.010336892185928486 -0.006167087057982419 0.0037782269614747266
56 -0.00032511059292013636 0.002945163097413256 -0.00037150516489855374
71 0.0013388310557221708 0.0025396352443616843 -0.00751938902900628
68 -0.00465943276948871 -0.0027725673418651994 -0.002990608528501628
59 5.0833957561350876e-05 0.002099598702466538 0.002626093096314428
64 0.0050943273640744234 0.009871796631245903 -0.007546207923130214
8034 -0.012146136164382156 0.006088475367344948 -6.168991131119865e-05
8071 0.005021973431744151 -0.006121010523256407 0.028665066809542294
7894 0.01451737893261081 -0.008302222413745966 0.004904448672986614
8160 0.017826852458607056 0.011708939488334428 -0.010262927627348253
8168 -0.0036752354581534763 -0.0013488187070290947 0.026390648510523074
8195 -0.0017344524784933162 0.0051787068111996135 -0.00264099626172405
8199 0.0018731227918821014 -0.01935822570051282 0.015399759685430989

Bonds

1 1 9 5
2 1 9 12
3 1 16 12
4 1 16 21
5 1 22 27
6 1 22 21
7 1 31 27
8 1 5 3
9 1 3 6
10 1 6 11
11 1 6 7
12 1 12 11
13 1 11 14
14 1 14 18
15 1 14 15
16 1 21 18
17 1 18 25
18 1 25 28
19 1 25 24
20 1 27 28
21 1 28 33
22 1 33 32
23 1 7 2
24 1 7 10
25 1 15 10
26 1 15 19
27 1 39 38
28 1 38 40
29 1 42 39
30 1 42 45
31 1 48 45
32 1 48 51
33 1 45 44
34 1 44 47
35 1 52 55
36 1 52 51
37 1 51 50
38 1 50 53
39 1 55 57
40 1 57 60
41 1 58 55
42 1 60 59
43 1 47 46
44 1 47 50
45 1 40 41
46 1 40 44
47 1 53 54
48 1 53 57
49 1 2 4
50 1 4 8
51 1 8 13
52 1 10 13
53 1 13 17
54 1 17 20
55 1 19 20
56 1 20 23
57 1 23 26
58 1 29 26
59 1 26 30
60 1 32 29
61 1 24 29
62 1 24 19
63 1 37 63
64 1 63 64
65 1 66 67
66 1 41 37
67 1 41 43
68 1 46 43
69 1 46 49
70 1 43 65
71 1 65 66
72 1 54 56
73 1 54 49
74 1 49 67
75 1 67 68
76 1 56 71
77 1 71 72
78 1 68 71
79 1 59 56
80 1 64 65

Angles

1 1 5 9 12
2 1 12 16 21
3 1 21 22 27
4 1 9 5 3
5 1 5 3 6
6 1 3 6 11
7 1 3 6 7
8 1 11 6 7
9 1 9 12 16
10 1 9 12 11
11 1 16 12 11
12 1 6 11 12
13 1 6 11 14
14 1 12 11 14
15 1 11 14 18
16 1 11 14 15
17 1 18 14 15
18 1 16 21 22
19 1 16 21 18
20 1 22 21 18
21 1 14 18 21
22 1 14 18 25
23 1 21 18 25
24 1 18 25 28
25 1 18 25 24
26 1 28 25 24
27 1 22 27 31
28 1 22 27 28
29 1 31 27 28
30 1 25 28 27
31 1 25 28 33
32 1 27 28 33
33 1 28 33 32
34 1 6 7 2
35 1 6 7 10
36 1 2 7 10
37 1 14 15 10
38 1 14 15 19
39 1 10 15 19
40 1 42 39 38
41 1 39 38 40
42 1 39 42 45
43 1 45 48 51
44 1 42 45 48
45 1 42 45 44
46 1 48 45 44
47 1 40 44 45
48 1 40 44 47
49 1 45 44 47
50 1 51 52 55
51 1 48 51 52
52 1 48 51 50
53 1 52 51 50
54 1 47 50 51
55 1 47 50 53
56 1 51 50 53
57 1 52 55 58
58 1 52 55 57
59 1 58 55 57
60 1 53 57 55
61 1 53 57 60
62 1 55 57 60
63 1 57 60 59
64 1 44 47 46
65 1 44 47 50
66 1 50 47 46
67 1 38 40 41
68 1 38 40 44
69 1 44 40 41
70 1 50 53 54
71 1 50 53 57
72 1 57 53 54
73 1 7 2 4
74 1 2 4 8
75 1 4 8 13
76 1 7 10 15
77 1 7 10 13
78 1 15 10 13
79 1 8 13 10
80 1 8 13 17
81 1 10 13 17
82 1 13 17 20
83 1 15 19 24
84 1 15 19 20
85 1 24 19 20
86 1 17 20 19
87 1 17 20 23
88 1 19 20 23
89 1 20 23 26
90 1 24 29 32
91 1 24 29 26
92 1 32 29 26
93 1 23 26 29
94 1 23 26 30
95 1 29 26 30
96 1 33 32 29
97 1 25 24 29
98 1 25 24 19
99 1 19 24 29
100 1 41 37 63
101 1 37 63 64
102 1 65 66 67
103 1 40 41 37
104 1 40 41 43
105 1 37 41 43
106 1 47 46 43
107 1 47 46 49
108 1 43 46 49
109 1 41 43 46
110 1 41 43 65
111 1 46 43 65
112 1 64 65 43
113 1 64 65 66
114 1 43 65 66
115 1 53 54 56
116 1 53 54 49
117 1 49 54 56
118 1 46 49 54
119 1 46 49 67
120 1 54 49 67
121 1 66 67 49
122 1 66 67 68
123 1 49 67 68
124 1 54 56 59
125 1 54 56 71
126 1 59 56 71
127 1 68 71 56
128 1 68 71 72
129 1 56 71 72
130 1 67 68 71
131 1 60 59 56
132 1 63 64 65

Dihedrals

1 1 12 9 5 3
2 1 5 9 12 16
3 1 5 9 12 11
4 1 21 16 12 9
5 1 21 16 12 11
6 1 12 16 21 22
7 1 12 16 21 18
8 1 21 22 27 31
9 1 21 22 27 28
10 1 27 22 21 16
11 1 27 22 21 18
12 1 9 5 3 6
13 1 5 3 6 11
14 1 5 3 6 7
15 1 3 6 11 12
16 1 3 6 11 14
17 1 7 6 11 12
18 1 7 6 11 14
19 1 3 6 7 2
20 1 3 6 7 10
21 1 11 6 7 2
22 1 11 6 7 10
23 1 9 12 11 6
24 1 9 12 11 14
25 1 16 12 11 6
26 1 16 12 11 14
27 1 6 11 14 18
28 1 6 11 14 15
29 1 12 11 14 18
30 1 12 11 14 15
31 1 11 14 18 21
32 1 11 14 18 25
33 1 15 14 18 21
34 1 15 14 18 25
35 1 11 14 15 10
36 1 11 14 15 19
37 1 18 14 15 10
38 1 18 14 15 19
39 1 16 21 18 14
40 1 16 21 18 25
41 1 22 21 18 14
42 1 22 21 18 25
43 1 14 18 25 28
44 1 14 18 25 24
45 1 21 18 25 28
46 1 21 18 25 24
47 1 18 25 28 27
48 1 18 25 28 33
49 1 24 25 28 27
50 1 24 25 28 33
51 1 18 25 24 29
52 1 18 25 24 19
53 1 28 25 24 29
54 1 28 25 24 19
55 1 22 27 28 25
56 1 22 27 28 33
57 1 31 27 28 25
58 1 31 27 28 33
59 1 25 28 33 32
60 1 27 28 33 32
61 1 28 33 32 29
62 1 6 7 2 4
63 1 10 7 2 4
64 1 6 7 10 15
65 1 6 7 10 13
66 1 2 7 10 15
67 1 2 7 10 13
68 1 14 15 10 7
69 1 14 15 10 13
70 1 19 15 10 7
71 1 19 15 10 13
72 1 14 15 19 24
73 1 14 15 19 20
74 1 10 15 19 24
75 1 10 15 19 20
76 1 42 39 38 40
77 1 39 38 40 41
78 1 39 38 40 44
79 1 45 42 39 38
80 1 39 42 45 48
81 1 39 42 45 44
82 1 51 48 45 42
83 1 51 48 45 44
84 1 45 48 51 52
85 1 45 48 51 50
86 1 42 45 44 40
87 1 42 45 44 47
88 1 48 45 44 40
89 1 48 45 44 47
90 1 40 44 47 46
91 1 40 44 47 50
92 1 45 44 47 46
93 1 45 44 47 50
94 1 51 52 55 58
95 1 51 52 55 57
96 1 55 52 51 48
97 1 55 52 51 50
98 1 48 51 50 47
99 1 48 51 50 53
100 1 52 51 50 47
101 1 52 51 50 53
102 1 47 50 53 54
103 1 47 50 53 57
104 1 51 50 53 54
105 1 51 50 53 57
106 1 52 55 57 53
107 1 52 55 57 60
108 1 58 55 57 53
109 1 58 55 57 60
110 1 53 57 60 59
111 1 55 57 60 59
112 1 57 60 59 56
113 1 44 47 46 43
114 1 44 47 46 49
115 1 50 47 46 43
116 1 50 47 46 49
117 1 44 47 50 51
118 1 44 47 50 53
119 1 46 47 50 51
120 1 46 47 50 53
121 1 38 40 41 37
122 1 38 40 41 43
123 1 44 40 41 37
124 1 44 40 41 43
125 1 38 40 44 45
126 1 38 40 44 47
127 1 41 40 44 45
128 1 41 40 44 47
129 1 50 53 54 56
130 1 50 53 54 49
131 1 57 53 54 56
132 1 57 53 54 49
133 1 50 53 57 55
134 1 50 53 57 60
135 1 54 53 57 55
136 1 54 53 57 60
137 1 7 2 4 8
138 1 2 4 8 13
139 1 4 8 13 10
140 1 4 8 13 17
141 1 7 10 13 8
142 1 7 10 13 17
143 1 15 10 13 8
144 1 15 10 13 17
145 1 8 13 17 20
146 1 10 13 17 20
147 1 13 17 20 19
148 1 13 17 20 23
149 1 15 19 20 17
150 1 15 19 20 23
151 1 24 19 20 17
152 1 24 19 20 23
153 1 17 20 23 26
154 1 19 20 23 26
155 1 20 23 26 29
156 1 20 23 26 30
157 1 24 29 26 23
158 1 24 29 26 30
159 1 32 29 26 23
160 1 32 29 26 30
161 1 33 32 29 24
162 1 33 32 29 26
163 1 25 24 29 32
164 1 25 24 29 26
165 1 19 24 29 32
166 1 19 24 29 26
167 1 25 24 19 15
168 1 25 24 19 20
169 1 29 24 19 15
170 1 29 24 19 20
171 1 41 37 63 64
172 1 37 63 64 65
173 1 65 66 67 49
174 1 65 66 67 68
175 1 40 41 37 63
176 1 43 41 37 63
177 1 40 41 43 46
178 1 40 41 43 65
179 1 37 41 43 46
180 1 37 41 43 65
181 1 47 46 43 41
182 1 47 46 43 65
183 1 49 46 43 41
184 1 49 46 43 65
185 1 47 46 49 54
186 1 47 46 49 67
187 1 43 46 49 54
188 1 43 46 49 67
189 1 41 43 65 64
190 1 41 43 65 66
191 1 46 43 65 64
192 1 46 43 65 66
193 1 64 65 66 67
194 1 43 65 66 67
195 1 53 54 56 59
196 1 53 54 56 71
197 1 49 54 56 59
198 1 49 54 56 71
199 1 53 54 49 46
200 1 53 54 49 67
201 1 56 54 49 46
202 1 56 54 49 67
203 1 46 49 67 66
204 1 46 49 67 68
205 1 54 49 67 66
206 1 54 49 67 68
207 1 66 67 68 71
208 1 49 67 68 71
209 1 54 56 71 68
210 1 54 56 71 72
211 1 59 56 71 68
212 1 59 56 71 72
213 1 67 68 71 56
214 1 67 68 71 72
215 1 60 59 56 54
216 1 60 59 56 71
217 1 63 64 65 43
218 1 63 64 65 66

Impropers

1 1 12 9 16 11
2 1 21 16 22 18
3 1 27 22 31 28
4 1 6 3 11 7
5 1 11 6 12 14
6 1 7 6 2 10
7 1 14 11 18 15
8 1 18 14 21 25
9 1 15 14 10 19
10 1 25 18 28 24
11 1 28 25 27 33
12 1 24 25 29 19
13 1 10 7 15 13
14 1 19 15 24 20
15 1 40 38 41 44
16 1 45 42 48 44
17 1 51 48 52 50
18 1 47 44 46 50
19 1 55 52 58 57
20 1 53 50 54 57
21 1 50 47 51 53
22 1 46 47 43 49
23 1 44 40 45 47
24 1 41 40 37 43
25 1 57 53 55 60
26 1 54 53 56 49
27 1 13 8 10 17
28 1 20 17 19 23
29 1 26 23 29 30
30 1 29 24 32 26
31 1 67 66 49 68
32 1 43 41 46 65
33 1 49 46 54 67
34 1 56 54 59 71
35 1 71 68 56 72
36 1 65 64 43 66
