LAMMPS data file via write_data, version 27 Jun 2024, timestep = 140000, units = real

84 atoms
2 atom types
80 bonds
1 bond types
132 angles
1 angle types
218 dihedrals
1 dihedral types
36 impropers
1 improper types

-12.5 12.5 xlo xhi
-12.5 12.5 ylo yhi
-15 15 zlo zhi

Masses

1 12.0107
2 2.016

Bond Coeffs # harmonic

1 469 1.4

Angle Coeffs # harmonic

1 63 120

Dihedral Coeffs # opls

1 0 7.25 0 0

Improper Coeffs # harmonic

1 5 180

Atoms # molecular

1 1 1 -2.882356641441724 -4.2205149436493725 -7.519978169775519 0 0 0
3 5 1 -0.4739169604771938 -4.277113646981349 -7.383416150058396 0 0 0
4 9 1 1.8834983836647476 -4.173903865643284 -7.568978354719939 0 0 0
5 13 1 4.266203893931771 -4.323105234144462 -7.437955719660238 0 0 0
10 2 1 -4.120958175120645 -3.5329252493062646 -7.626107889213356 0 0 0
8 3 1 -4.10609597863371 -2.1597354163302143 -7.62463934148038 0 0 0
11 4 1 -2.883185845640482 -1.4654417430682594 -7.695593984258294 0 0 0
16 6 1 -1.6797624960862503 -3.5579805089660566 -7.599609565597618 0 0 0
15 7 1 -1.735352617629458 -2.1630019326156398 -7.329178792635017 0 0 0
18 8 1 -0.5042340404565702 -1.4644572070156465 -7.338048073004025 0 0 0
24 10 1 0.7072552788596465 -3.5611679546025807 -7.203153867665294 0 0 0
21 11 1 0.6750982353151739 -2.1784701185560404 -7.523961070235869 0 0 0
27 12 1 1.9001171625590643 -1.4842912315153916 -7.4739893786627905 0 0 0
29 14 1 3.129395774369532 -3.51949322257411 -7.603734525067023 0 0 0
30 15 1 3.134213118250014 -2.1399415384354223 -7.33282102863689 0 0 0
34 16 1 4.314786893677922 -1.345778458383013 -7.304790584595426 0 0 0
19 21 1 -0.6014303670403358 -0.06531152526859899 -7.554887814266836 0 0 0
12 17 1 -2.972616712166488 -0.10110469236555748 -7.382592225781144 0 0 0
26 25 1 1.856571539461013 -0.08697567664603699 -7.305995736553912 0 0 0
8007 0 2 -5.438053080569082 -10.039651648750679 -6.0079019900946 0 0 0
7953 0 2 9.906309921737117 -0.7889412928600495 -3.622048212469769 0 0 0
7975 0 2 -11.433964816620499 -2.8645558502524358 1.3790888558039835 0 0 0
7935 0 2 -9.153418045246976 -10.710961029958893 2.3293696781304227 0 0 0
60 34 1 -4.301139580701787 -2.022141213082743 7.83675841059036 0 0 0
59 35 1 -4.2602967525411435 -0.6413769320915782 7.676237466568538 0 0 0
64 33 1 -3.112202170915612 -2.7508056714200206 7.740999621958747 0 0 0
71 37 1 -0.7086817235390708 -2.761192051530114 7.618196950545678 0 0 0
67 38 1 -1.889900891227138 -2.117755099681576 7.3317636194492355 0 0 0
66 39 1 -1.8468281905188193 -0.7358649539344447 7.5947613761793145 0 0 0
76 41 1 1.6908055296743747 -2.740097831488848 7.6621915015837905 0 0 0
75 42 1 0.4678890993925841 -2.055192558412784 7.68790165317147 0 0 0
73 43 1 0.5074331531261839 -0.7044633546972325 7.314693118692128 0 0 0
79 46 1 2.954521230266719 -2.128382802656235 7.529264098065003 0 0 0
82 47 1 2.96150678442276 -0.7248584841402064 7.312807679319479 0 0 0
83 45 1 4.098917091019827 -2.807183223306723 7.248025123701843 0 0 0
7826 0 2 0.4134369226998435 -4.05477354606315 5.1446565620388665 0 0 0
7961 0 2 5.34185885804152 -5.04903279682954 14.374222601833138 0 0 0
85 48 1 4.157154661949401 -0.0023443368545452464 7.351772920145172 0 0 0
7987 0 2 -11.351446134426235 -3.597990242563951 13.322312879114017 0 0 0
7993 0 2 -4.806000093773749 -1.067234386522365 11.7286839344137 0 0 0
7977 0 2 8.941970198049876 -2.052641719702191 8.349530857792884 0 0 0
7 18 1 -4.212280736880148 0.5811195023215898 -7.477746719875911 0 0 0
9 19 1 -4.200556283032544 1.9743620169060312 -7.305669994547253 0 0 0
13 20 1 -3.0309589833451795 2.76113916941622 -7.369863295543037 0 0 0
14 22 1 -1.8107317392800666 0.6882893192039501 -7.591387299712857 0 0 0
17 23 1 -1.7841873436186186 2.081817829226027 -7.356744825057361 0 0 0
20 24 1 -0.590734051595346 2.685587009635579 -7.813101335778327 0 0 0
22 26 1 0.5994513654662312 0.6360400922128295 -7.399339127652216 0 0 0
23 27 1 0.6083132923641751 1.9314223280026115 -7.866810314356888 0 0 0
25 28 1 1.8009571923774554 2.6932496957327294 -7.7896295556340105 0 0 0
31 30 1 3.0533326241955265 0.6644764698235731 -7.453333188709426 0 0 0
28 31 1 3.0019828938225652 2.067283881780908 -7.3530839334896 0 0 0
32 32 1 4.124801583965958 2.8158677096111515 -7.48711946012125 0 0 0
33 29 1 4.273342963768105 0.01192054772588544 -7.3270704525891945 0 0 0
7980 0 2 8.613857495166705 2.075723086486099 -11.37764835558149 0 0 0
8009 0 2 -9.136667077529223 7.0353922346635365 -11.493566262242778 0 0 0
8011 0 2 -0.9470899067764006 11.667022686882277 -7.861981340458442 0 0 0
7944 0 2 7.080883692076747 2.2022548621663485 4.70407131918855 0 0 0
7940 0 2 -12.276116338244007 4.20222310681526 2.402102836236281 1 0 0
8003 0 2 3.0766493947598628 3.0846079909073536 -0.28009080980554346 0 0 0
7994 0 2 1.2156809055109916 9.06498279569913 -4.117386068280556 0 0 0
58 50 1 -4.273930133393351 2.124536353731133 7.631642765261157 0 0 0
61 51 1 -4.3295714384297455 3.508775852240328 7.616563930590242 0 0 0
96 64 1 4.204134204484169 4.15664954522519 7.606035232931328 0 0 0
7984 0 2 -6.544397044260538 9.842543284334363 13.468617622516673 0 0 0
92 56 1 -0.6508634488341767 4.1583863040810325 7.377730094478767 0 0 0
63 49 1 -3.0470856337354824 1.4260373425626898 7.758081343215541 0 0 0
69 53 1 -0.635750045466234 1.3681351814138307 7.522512756515029 0 0 0
65 54 1 -1.8808241973623272 2.0806407728115213 7.468555118060815 0 0 0
68 55 1 -1.8975134000430227 3.47983217002785 7.56409686433355 0 0 0
78 57 1 1.8099133708289947 1.411863024792493 7.198708101987179 0 0 0
72 58 1 0.6007572390501088 2.0989647822366244 7.444860608317605 0 0 0
74 59 1 0.594763749666568 3.4895585754024494 7.384938187214 0 0 0
81 62 1 3.003088417310314 2.0995901338958363 7.238824203567108 0 0 0
80 63 1 2.9748050773579173 3.4600742197074643 7.721791773317042 0 0 0
93 60 1 1.7630490681860926 4.231087326028395 7.644798875784358 0 0 0
84 61 1 4.238901701436694 1.4004740604449304 7.35823516390558 0 0 0
91 52 1 -3.1384764496601485 4.154957201293987 7.35727959793782 0 0 0
7997 0 2 -10.246740372875403 7.489257691194355 6.380345774392924 0 0 0
7981 0 2 0.17718838252099933 2.4428086437485828 10.864049494835934 0 0 0
8008 0 2 -8.705560443535106 4.959248120809685 13.062156219871758 0 0 0
62 36 1 -3.0573552576314604 0.038790423782401585 7.540435941869165 0 0 0
70 40 1 -0.702567688670474 0.01407957152254635 7.297295713188053 0 0 0
77 44 1 1.7723880718102514 0.0005168430392631498 7.436291456745465 0 0 0

Velocities

1 -0.0013746475004925785 -0.00266194867884947 0.00432959421785855
3 -0.0010767394062912731 0.006778605949213415 0.004029641965825409
4 -0.0045115319097506455 0.002774759336494521 0.0011936161140478046
5 0.003961157514332345 -0.0016137799287936168 -0.013337610512300067
10 0.002248577885355396 -0.0006787095997397495 -0.003851712509141246
8 -0.003795769606155867 0.001508411656417072 -0.0049820784279464144
11 -0.006210017862224398 0.006667697645378048 -0.0025169885944417267
16 0.0009375671412096347 0.0049490048369902175 0.0015896888054503955
15 -0.0008955947046170468 -0.0003819193839376779 -0.006232787317486119
18 0.0062206257359043145 -0.0007376538014966017 0.0039258953009186056
24 -0.0009862159612705449 -0.003934845839246939 0.0014574978823841556
21 -0.003071340743585686 -0.003206414091204296 0.005058228658101833
27 -0.0030087739652928363 -0.0048121208453181154 -0.004215799569681382
29 -0.0005141763050389911 0.0043744990283698494 0.002506404695919124
30 0.006893925903800136 0.0007695357215766076 0.001859659884567345
34 -0.0028406072467310447 0.003733562306116244 0.0019021393902291593
19 0.004755419714241382 -0.003312895216074964 -0.00709762262778143
12 -0.006528571120505373 0.0014134028946877451 0.0025271295048266184
26 -0.0013459383422110296 -0.002628880261020425 0.0006736221872580512
8007 -0.006643293998275374 -0.009620463639527774 0.0025756029726622057
7953 -0.005524934054887374 -0.006807327352806612 0.005695472302600527
7975 0.005700134481652911 0.0026127450785440537 0.006811729434295533
7935 -0.009646884422945909 -0.008855816711973349 -0.0054238137151670215
60 0.0004045447377719768 -0.0028502986314153274 0.0017664346506138036
59 -0.001593335070162914 0.009178344213665405 -0.004695368910132509
64 0.001121800110438766 -0.007007279152837938 -5.166094870117024e-05
71 -0.00169070447826155 0.0011612122582794725 0.0022457347615873237
67 -0.002807452588951664 -0.0015660792658037897 0.004404472591564776
66 0.0004573398994327499 0.006854922118169624 -0.0034418511844549853
76 0.0011961749948489358 -0.0019341650305298845 0.0031244882626768463
75 -0.0006287274911479547 0.001490241217962688 0.006433783613438084
73 0.0004786104112694536 0.003123087614496036 -0.009747170196083087
79 -0.0003556619546587083 -0.005068302758515791 0.009108719865985035
82 -0.004740494898594503 -0.006268396329556438 0.003425078964806825
83 0.006366426743638821 0.00045195385442408476 -0.005336358672677599
7826 0.011221044928789396 -0.006932172277982282 0.003556079982180951
7961 -0.0051045150509827835 0.02481922605435212 0.017945602135968228
85 0.001678972161049365 0.0007540295495211371 0.00028704677943243114
7987 -0.003572111102725344 -0.009962149368163191 0.03340316257435458
7993 -0.0030346281162421103 -0.006684510553789339 0.007994576171517232
7977 -0.0033254088397310514 0.005653349382555645 0.005428155388507267
7 -0.0005121395187617405 -0.001837980291571107 -0.0032818772255509346
9 1.9080169981587588e-06 -0.0024595766237986718 0.0040131628225618735
13 0.00021335817471351476 -0.003753077245324966 -0.00033349122044861303
14 -0.0038451606227745466 0.008593301692557185 0.0064395192210904865
17 0.007931482264320293 0.0023279074691874503 -0.007140307318003356
20 -0.0014181475298281198 -0.009147973881262225 0.0009277705128202127
22 0.004053705660397153 -0.004898161328118786 0.0034211516931886947
23 -0.0020097349518116117 -0.0022002932222902278 0.009799689081588393
25 -0.0034607584712013626 0.0037086402192597037 0.006029078742423863
31 -0.003449312199196139 -0.002506041337759866 0.0011020321042349661
28 0.00010680734633932431 0.0004997677604985172 -0.00015407790550254685
32 0.0019037905274343363 0.005293176126701447 -0.004965458455875102
33 -0.002948349745936585 0.003476252187340748 0.0008886280711191348
7980 -0.00882653723349989 -0.013994053691523206 0.021694104761918707
8009 -0.0162348046206848 -0.024909917056819202 0.005415629350190222
8011 -0.0020893895278985258 0.012479492147815668 -0.006963625359886867
7944 -0.0026384204700155784 -0.006011018869638008 -0.0020121602602310596
7940 0.011050811159422995 0.004809238865183607 0.005921954862953132
8003 0.0222918617969473 -0.005934240723688015 0.008070967045627795
7994 -0.006324260341806876 0.012999262747558384 -0.005078965309948294
58 -0.0007352344257259253 -0.0006170902236237422 -0.0013969210370064341
61 0.0020450102132583995 0.000807639453679636 0.00437361529620972
96 -0.0035182891094558888 -0.0026281136659092813 0.001633081129774158
7984 -0.003142874988923548 0.0060317563310457985 0.005311945637603907
92 -0.006012557101000391 0.005555592927502753 -0.00126000187617928
63 0.002493435559599599 0.003511216443567208 -0.005618931777881251
69 -0.004000020566900304 -0.0068194614337519395 0.0049505040281100044
65 0.006254859381255214 -0.004470057647555309 -0.0009482311017563669
68 -0.0011952277027827008 -0.005355649111148767 0.00332153882136954
78 0.00031873644546201555 0.0031436905197585532 -0.00366573534444274
72 -0.001056830345018686 -0.0027921101815939786 -0.003343216061730192
74 0.003416237053884523 -0.0032948621958397368 0.00110591580757954
81 -0.005037423632633119 -0.0014592453424087742 0.005061977579803616
80 0.0013743571893636492 -0.0013644970625685765 0.0019681068777211803
93 0.00220257449097324 0.000482879370250011 0.0033254936350745955
84 0.002799887160136236 0.004361479762538242 -0.004869376483448322
91 -0.0025867066709403543 -0.006167497183153699 -0.004610400616914509
7997 0.006533647264927174 -0.013289729225825171 0.004100403572433028
7981 -0.011187123510846914 0.002384264397174738 0.00754989443816034
8008 0.007094470808443348 0.028619213025102796 0.002804275583561271
62 0.005078731624507597 0.00951401130007631 0.0033863676335153994
70 0.005987135182245999 0.001969260959093596 0.0011812123696516791
77 0.0018855845178014118 0.00484979649607782 -0.0059361887629624825

Bonds

1 1 1 10
2 1 1 16
3 1 3 16
4 1 3 24
5 1 4 29
6 1 4 24
7 1 5 29
8 1 10 8
9 1 8 11
10 1 11 15
11 1 11 12
12 1 16 15
13 1 15 18
14 1 18 21
15 1 18 19
16 1 24 21
17 1 21 27
18 1 27 30
19 1 27 26
20 1 29 30
21 1 30 34
22 1 34 33
23 1 19 14
24 1 19 22
25 1 12 7
26 1 12 14
27 1 26 31
28 1 26 22
29 1 60 59
30 1 59 62
31 1 64 60
32 1 64 67
33 1 71 67
34 1 71 75
35 1 67 66
36 1 66 70
37 1 76 79
38 1 76 75
39 1 75 73
40 1 73 77
41 1 79 82
42 1 82 85
43 1 83 79
44 1 85 84
45 1 7 9
46 1 9 13
47 1 13 17
48 1 14 17
49 1 17 20
50 1 20 23
51 1 22 23
52 1 23 25
53 1 25 28
54 1 31 28
55 1 28 32
56 1 33 31
57 1 58 61
58 1 61 91
59 1 92 74
60 1 63 58
61 1 63 65
62 1 69 65
63 1 69 72
64 1 65 68
65 1 68 92
66 1 78 81
67 1 78 72
68 1 72 74
69 1 74 93
70 1 81 80
71 1 80 96
72 1 93 80
73 1 84 81
74 1 91 68
75 1 62 63
76 1 62 66
77 1 70 69
78 1 70 73
79 1 77 78
80 1 77 82

Angles

1 1 10 1 16
2 1 16 3 24
3 1 24 4 29
4 1 1 10 8
5 1 10 8 11
6 1 8 11 15
7 1 8 11 12
8 1 15 11 12
9 1 1 16 3
10 1 1 16 15
11 1 3 16 15
12 1 11 15 16
13 1 11 15 18
14 1 16 15 18
15 1 15 18 21
16 1 15 18 19
17 1 21 18 19
18 1 3 24 4
19 1 3 24 21
20 1 4 24 21
21 1 18 21 24
22 1 18 21 27
23 1 24 21 27
24 1 21 27 30
25 1 21 27 26
26 1 30 27 26
27 1 4 29 5
28 1 4 29 30
29 1 5 29 30
30 1 27 30 29
31 1 27 30 34
32 1 29 30 34
33 1 30 34 33
34 1 18 19 14
35 1 18 19 22
36 1 14 19 22
37 1 11 12 7
38 1 11 12 14
39 1 7 12 14
40 1 27 26 31
41 1 27 26 22
42 1 22 26 31
43 1 64 60 59
44 1 60 59 62
45 1 60 64 67
46 1 67 71 75
47 1 64 67 71
48 1 64 67 66
49 1 71 67 66
50 1 62 66 67
51 1 62 66 70
52 1 67 66 70
53 1 75 76 79
54 1 71 75 76
55 1 71 75 73
56 1 76 75 73
57 1 70 73 75
58 1 70 73 77
59 1 75 73 77
60 1 76 79 83
61 1 76 79 82
62 1 83 79 82
63 1 77 82 79
64 1 77 82 85
65 1 79 82 85
66 1 82 85 84
67 1 12 7 9
68 1 7 9 13
69 1 9 13 17
70 1 12 14 19
71 1 12 14 17
72 1 19 14 17
73 1 13 17 14
74 1 13 17 20
75 1 14 17 20
76 1 17 20 23
77 1 19 22 26
78 1 19 22 23
79 1 26 22 23
80 1 20 23 22
81 1 20 23 25
82 1 22 23 25
83 1 23 25 28
84 1 26 31 33
85 1 26 31 28
86 1 33 31 28
87 1 25 28 31
88 1 25 28 32
89 1 31 28 32
90 1 34 33 31
91 1 63 58 61
92 1 58 61 91
93 1 68 92 74
94 1 62 63 58
95 1 62 63 65
96 1 58 63 65
97 1 70 69 65
98 1 70 69 72
99 1 65 69 72
100 1 63 65 69
101 1 63 65 68
102 1 69 65 68
103 1 91 68 65
104 1 91 68 92
105 1 65 68 92
106 1 77 78 81
107 1 77 78 72
108 1 72 78 81
109 1 69 72 78
110 1 69 72 74
111 1 78 72 74
112 1 92 74 72
113 1 92 74 93
114 1 72 74 93
115 1 78 81 84
116 1 78 81 80
117 1 84 81 80
118 1 93 80 81
119 1 93 80 96
120 1 81 80 96
121 1 74 93 80
122 1 85 84 81
123 1 61 91 68
124 1 59 62 63
125 1 59 62 66
126 1 66 62 63
127 1 66 70 69
128 1 66 70 73
129 1 73 70 69
130 1 73 77 78
131 1 73 77 82
132 1 82 77 78

Dihedrals

1 1 16 1 10 8
2 1 10 1 16 3
3 1 10 1 16 15
4 1 24 3 16 1
5 1 24 3 16 15
6 1 16 3 24 4
7 1 16 3 24 21
8 1 24 4 29 5
9 1 24 4 29 30
10 1 29 4 24 3
11 1 29 4 24 21
12 1 1 10 8 11
13 1 10 8 11 15
14 1 10 8 11 12
15 1 8 11 15 16
16 1 8 11 15 18
17 1 12 11 15 16
18 1 12 11 15 18
19 1 8 11 12 7
20 1 8 11 12 14
21 1 15 11 12 7
22 1 15 11 12 14
23 1 1 16 15 11
24 1 1 16 15 18
25 1 3 16 15 11
26 1 3 16 15 18
27 1 11 15 18 21
28 1 11 15 18 19
29 1 16 15 18 21
30 1 16 15 18 19
31 1 15 18 21 24
32 1 15 18 21 27
33 1 19 18 21 24
34 1 19 18 21 27
35 1 15 18 19 14
36 1 15 18 19 22
37 1 21 18 19 14
38 1 21 18 19 22
39 1 3 24 21 18
40 1 3 24 21 27
41 1 4 24 21 18
42 1 4 24 21 27
43 1 18 21 27 30
44 1 18 21 27 26
45 1 24 21 27 30
46 1 24 21 27 26
47 1 21 27 30 29
48 1 21 27 30 34
49 1 26 27 30 29
50 1 26 27 30 34
51 1 21 27 26 31
52 1 21 27 26 22
53 1 30 27 26 31
54 1 30 27 26 22
55 1 4 29 30 27
56 1 4 29 30 34
57 1 5 29 30 27
58 1 5 29 30 34
59 1 27 30 34 33
60 1 29 30 34 33
61 1 30 34 33 31
62 1 18 19 14 12
63 1 18 19 14 17
64 1 22 19 14 12
65 1 22 19 14 17
66 1 18 19 22 26
67 1 18 19 22 23
68 1 14 19 22 26
69 1 14 19 22 23
70 1 11 12 7 9
71 1 14 12 7 9
72 1 11 12 14 19
73 1 11 12 14 17
74 1 7 12 14 19
75 1 7 12 14 17
76 1 27 26 31 33
77 1 27 26 31 28
78 1 22 26 31 33
79 1 22 26 31 28
80 1 27 26 22 19
81 1 27 26 22 23
82 1 31 26 22 19
83 1 31 26 22 23
84 1 64 60 59 62
85 1 60 59 62 63
86 1 60 59 62 66
87 1 67 64 60 59
88 1 60 64 67 71
89 1 60 64 67 66
90 1 75 71 67 64
91 1 75 71 67 66
92 1 67 71 75 76
93 1 67 71 75 73
94 1 64 67 66 62
95 1 64 67 66 70
96 1 71 67 66 62
97 1 71 67 66 70
98 1 62 66 70 69
99 1 62 66 70 73
100 1 67 66 70 69
101 1 67 66 70 73
102 1 75 76 79 83
103 1 75 76 79 82
104 1 79 76 75 71
105 1 79 76 75 73
106 1 71 75 73 70
107 1 71 75 73 77
108 1 76 75 73 70
109 1 76 75 73 77
110 1 70 73 77 78
111 1 70 73 77 82
112 1 75 73 77 78
113 1 75 73 77 82
114 1 76 79 82 77
115 1 76 79 82 85
116 1 83 79 82 77
117 1 83 79 82 85
118 1 77 82 85 84
119 1 79 82 85 84
120 1 82 85 84 81
121 1 12 7 9 13
122 1 7 9 13 17
123 1 9 13 17 14
124 1 9 13 17 20
125 1 12 14 17 13
126 1 12 14 17 20
127 1 19 14 17 13
128 1 19 14 17 20
129 1 13 17 20 23
130 1 14 17 20 23
131 1 17 20 23 22
132 1 17 20 23 25
133 1 19 22 23 20
134 1 19 22 23 25
135 1 26 22 23 20
136 1 26 22 23 25
137 1 20 23 25 28
138 1 22 23 25 28
139 1 23 25 28 31
140 1 23 25 28 32
141 1 26 31 28 25
142 1 26 31 28 32
143 1 33 31 28 25
144 1 33 31 28 32
145 1 34 33 31 26
146 1 34 33 31 28
147 1 63 58 61 91
148 1 58 61 91 68
149 1 68 92 74 72
150 1 68 92 74 93
151 1 62 63 58 61
152 1 65 63 58 61
153 1 62 63 65 69
154 1 62 63 65 68
155 1 58 63 65 69
156 1 58 63 65 68
157 1 70 69 65 63
158 1 70 69 65 68
159 1 72 69 65 63
160 1 72 69 65 68
161 1 70 69 72 78
162 1 70 69 72 74
163 1 65 69 72 78
164 1 65 69 72 74
165 1 63 65 68 91
166 1 63 65 68 92
167 1 69 65 68 91
168 1 69 65 68 92
169 1 91 68 92 74
170 1 65 68 92 74
171 1 77 78 81 84
172 1 77 78 81 80
173 1 72 78 81 84
174 1 72 78 81 80
175 1 77 78 72 69
176 1 77 78 72 74
177 1 81 78 72 69
178 1 81 78 72 74
179 1 69 72 74 92
180 1 69 72 74 93
181 1 78 72 74 92
182 1 78 72 74 93
183 1 92 74 93 80
184 1 72 74 93 80
185 1 78 81 80 93
186 1 78 81 80 96
187 1 84 81 80 93
188 1 84 81 80 96
189 1 74 93 80 81
190 1 74 93 80 96
191 1 85 84 81 78
192 1 85 84 81 80
193 1 61 91 68 65
194 1 61 91 68 92
195 1 59 62 63 58
196 1 59 62 63 65
197 1 66 62 63 58
198 1 66 62 63 65
199 1 59 62 66 67
200 1 59 62 66 70
201 1 63 62 66 67
202 1 63 62 66 70
203 1 66 70 69 65
204 1 66 70 69 72
205 1 73 70 69 65
206 1 73 70 69 72
207 1 66 70 73 75
208 1 66 70 73 77
209 1 69 70 73 75
210 1 69 70 73 77
211 1 73 77 78 81
212 1 73 77 78 72
213 1 82 77 78 81
214 1 82 77 78 72
215 1 73 77 82 79
216 1 73 77 82 85
217 1 78 77 82 79
218 1 78 77 82 85

Impropers

1 1 16 1 3 15
2 1 24 3 4 21
3 1 29 4 5 30
4 1 11 8 15 12
5 1 15 11 16 18
6 1 12 11 7 14
7 1 18 15 21 19
8 1 21 18 24 27
9 1 19 18 14 22
10 1 27 21 30 26
11 1 30 27 29 34
12 1 26 27 31 22
13 1 22 19 26 23
14 1 14 12 19 17
15 1 31 26 33 28
16 1 62 59 63 66
17 1 67 64 71 66
18 1 75 71 76 73
19 1 70 66 69 73
20 1 79 76 83 82
21 1 77 73 78 82
22 1 17 13 14 20
23 1 23 20 22 25
24 1 28 25 31 32
25 1 74 92 72 93
26 1 65 63 69 68
27 1 72 69 78 74
28 1 81 78 84 80
29 1 80 93 81 96
30 1 68 91 65 92
31 1 66 62 67 70
32 1 63 62 58 65
33 1 73 70 75 77
34 1 69 70 65 72
35 1 82 77 79 85
36 1 78 77 81 72
