LAMMPS data file via write_data, version 29 Aug 2024, timestep = 150000, units = real

422 atoms
2 atom types
338 bonds
1 bond types
634 angles
1 angle types
1197 dihedrals
1 dihedral types
198 impropers
1 improper types

-30 30 xlo xhi
-30 30 ylo yhi
-15 15 zlo zhi

Masses

1 12.0107
2 2.016

Bond Coeffs # harmonic

1 469 1.4

Angle Coeffs # harmonic

1 63 120

Dihedral Coeffs # opls

1 0 7.25 0 0

Improper Coeffs # harmonic

1 5 180

Atoms # molecular

40 1 1 -10.385520805484736 -11.8857284132366 -0.2199972881677317 0 0 0
35 2 1 -11.586872391641409 -11.173034140943578 -0.25518747962422633 0 0 0
50 5 1 -7.93864105979494 -11.891348236773549 -0.1360421123480193 0 0 0
45 6 1 -9.17436768971196 -11.226297531654836 -0.33333144374388246 0 0 0
60 9 1 -5.436796567902801 -11.878412206218897 -0.013364126377451198 0 0 0
55 10 1 -6.690410321771853 -11.219094806660861 0.08163662559898895 0 0 0
65 14 1 -4.249831042728307 -11.191539988193586 0.10811354987934346 0 0 0
70 13 1 -3.0483463335945244 -11.877312856945284 -0.1637743247363509 0 0 0
76 17 1 -0.6295720499539394 -12.009241806703292 -0.03985127259732771 0 0 0
74 18 1 -1.8065504259705563 -11.266489920533134 -0.2577824126368826 0 0 0
10393 0 2 -8.055025677255392 -27.883295011361405 3.655216690142487 0 0 0
10327 0 2 -2.226134905024425 -21.240295939344037 8.76371537642996 0 0 0
8826 0 2 -6.579015596435201 -15.391709368742497 0.2717516537946364 0 0 0
10502 0 2 -20.490006811288342 -25.938743746932403 -3.7033480255330837 0 0 0
10378 0 2 -25.536946450400542 -28.815753185340274 5.7528977150417635 0 0 0
10401 0 2 -26.578497066717556 -18.207254260845154 -7.468348885401248 0 0 0
10180 0 2 -12.56473800698526 -19.104762605080975 2.1282912127104505 0 0 0
10439 0 2 -5.360125519737851 -16.996670378145165 -6.870695830108143 0 0 0
10449 0 2 -23.63938420553268 -24.511466377712008 -8.877262197955664 0 0 0
10485 0 2 -9.839012165399646 -18.13437459321894 -3.96038116961376 0 0 0
10473 0 2 -18.268754859279692 -10.889658793607394 5.116780505136674 0 0 0
10443 0 2 -22.642955220616724 -13.457188648936977 12.722145108632136 0 0 0
10016 0 2 -24.161069618466758 -29.032788127680178 13.406486115043961 0 0 0
4616 0 2 -3.3655954244776822 -10.935371769192052 3.0675289997070236 0 0 0
10025 0 2 -21.33768095198087 -18.413174878939913 -2.95071559658043 0 0 0
10500 0 2 -24.973589732659274 -27.037039105139467 1.0253924430812622 0 0 0
10387 0 2 -9.285176726841561 -21.701136039845814 6.088004127132542 0 0 0
10057 0 2 -2.307062467300382 -27.422044010524132 -1.9093720713164697 0 0 0
10177 0 2 -17.268620624958313 -12.340272244216626 -3.1798749610641615 0 0 0
10480 0 2 -11.501526760516537 -10.506610450141693 -6.1632124311356735 0 0 0
10504 0 2 -12.509858160026964 -26.376486473469257 -12.64381961122813 0 0 0
10410 0 2 -1.7542528431370719 -13.428165553410322 -13.363814782131307 0 0 0
10427 0 2 -14.397759196439281 -10.480293863861275 8.834602287573327 0 0 0
10429 0 2 -16.213141738384998 -24.448838915320994 5.633042644162885 0 0 0
10430 0 2 -27.90272019504362 -22.349585281556465 -13.129420519503594 0 0 0
10028 0 2 -8.91914107437999 -29.671465279987434 11.719681416011008 0 1 0
10149 0 2 -0.04628024542026083 -24.20513316468218 -12.63575867576531 0 0 0
10196 0 2 -9.35828231262048 -6.121718641673214 9.088737216264796 0 0 0
36 4 1 -10.326536941180631 -9.116930599320966 -0.35108201974243686 0 0 0
41 7 1 -9.184732261139413 -9.864847464099197 -0.10764015173695113 0 0 0
46 8 1 -7.9681769483024345 -9.165895134084993 -0.050129963028643434 0 0 0
54 11 1 -6.730218221000584 -9.833082348641398 -0.1903709244466484 0 0 0
59 12 1 -5.509212959774209 -9.176548377577015 -0.018574084671787516 0 0 0
64 15 1 -4.258831914432569 -9.825073139735567 -0.14181131296523142 0 0 0
37 41 1 -10.369041312636893 -7.727653694557766 -0.027946791767021858 0 0 0
32 42 1 -11.590575052451797 -6.975981386034769 -0.16037102398973707 0 0 0
33 43 1 -11.506138132525368 -5.582966240730866 -0.038577023880000186 0 0 0
38 44 1 -10.342071256859967 -4.938179914079797 0.1718659570150958 0 0 0
47 45 1 -7.902640627102936 -7.755543581219686 -0.11276577750678846 0 0 0
42 46 1 -9.109280146297811 -7.03933451618604 0.07269207216847548 0 0 0
43 47 1 -9.108995572713141 -5.637054918919381 -0.034423581634992755 0 0 0
48 48 1 -7.88736363628658 -4.9789128171204045 0.07551931632615015 0 0 0
58 49 1 -5.447979868723935 -7.774148277663061 -0.13322150955605178 0 0 0
52 50 1 -6.639514471759143 -7.07202480353145 0.03724815031886738 0 0 0
53 51 1 -6.659277424662309 -5.669175056045502 -0.0930919487361773 0 0 0
56 52 1 -5.4736908032488945 -4.94757952547838 0.1420890486166434 0 0 0
61 54 1 -4.2279389530753235 -7.09490921659191 0.09443870009938804 0 0 0
63 55 1 -4.265313121214686 -5.663227425145891 -0.11934106160911488 0 0 0
66 16 1 -3.0164480833397374 -9.11020411952198 -0.04366482828492478 0 0 0
72 19 1 -1.8120501864790053 -9.85931170960331 -0.03027527227343167 0 0 0
77 20 1 -0.561250313980908 -9.183459915417053 -0.14379912247217844 0 0 0
69 53 1 -3.0049091644140553 -7.736758891172507 -0.12858801810440162 0 0 0
67 56 1 -3.0317975251319087 -4.9802962604535175 0.08446148263264704 0 0 0
78 57 1 -0.5563670804294327 -7.752233596854913 -0.17796873650417236 0 0 0
71 58 1 -1.7864133477632584 -7.036968801534092 0.042772097234446645 0 0 0
73 59 1 -1.8206094374368949 -5.630995386920831 -0.06810748188048689 0 0 0
79 60 1 -0.5930689850116526 -4.924400041244884 0.03757944835667424 0 0 0
39 81 1 -10.433723244876047 -3.525401707663602 -0.0050097275471260305 0 0 0
34 82 1 -11.616965471888726 -2.695467298694382 0.17522739636378865 0 0 0
139 83 1 -11.609965214259132 -1.3304655067304247 0.1157697130440829 0 0 0
145 84 1 -10.397770197717103 -0.7111352662219065 -0.14354502352107992 0 0 0
49 85 1 -7.966073948083877 -3.586408940723716 -0.08800295496271475 0 0 0
44 86 1 -9.166233908681429 -2.839163976310675 0.08107468987182816 0 0 0
152 87 1 -9.167188442537928 -1.4257881285495555 -0.0787065067911447 0 0 0
160 88 1 -7.920191536848019 -0.7375800386485499 0.08280709816801898 0 0 0
57 89 1 -5.531106128299469 -3.547077833745883 -0.09162791986212641 0 0 0
51 90 1 -6.761992537106541 -2.8480576714226182 -0.008899658035238137 0 0 0
163 91 1 -6.742137287938783 -1.429377279717613 -0.2110466710442845 0 0 0
172 92 1 -5.524743459620325 -0.7674147068423124 -0.004917598770665634 0 0 0
62 94 1 -4.286036948667785 -2.7884670754888634 0.09903078245238496 0 0 0
179 95 1 -4.294496411180604 -1.401711273793854 -0.1073753601327517 0 0 0
144 121 1 -10.367180147658589 0.6726859583267802 0.06015859531225605 0 0 0
138 122 1 -11.581315774940515 1.3665868432340533 -0.09265618058786108 0 0 0
137 123 1 -11.567193911235515 2.775927442300912 0.003894012224369973 0 0 0
146 124 1 -10.363321198240035 3.4746011466615916 -0.2179176215499515 0 0 0
159 125 1 -7.944271052557746 0.6390599046559262 -0.12332550535943422 0 0 0
153 126 1 -9.136689876729164 1.3711818707909016 0.08533958726303525 0 0 0
151 127 1 -9.17545993862772 2.771928308876422 -0.23203166106654133 0 0 0
158 128 1 -7.992766471119189 3.4703600439096918 0.038598457431778005 0 0 0
171 129 1 -5.499231703163106 0.6365307010657119 -0.19985021530534225 0 0 0
164 130 1 -6.715335650328114 1.337403846482197 -0.0517323202219441 0 0 0
162 131 1 -6.751462571762064 2.7724995739627305 -0.2151177631523317 0 0 0
170 132 1 -5.49885953508321 3.4762862733876045 -0.16255485226765642 0 0 0
180 134 1 -4.3008154762868065 1.3497568900411452 -0.1510775954802504 0 0 0
177 135 1 -4.310408364558366 2.753982980680862 0.03273238568047101 0 0 0
68 93 1 -3.04290405325924 -3.5507864918996046 -0.04116472024974089 0 0 0
187 96 1 -3.1099439178375383 -0.692957558973788 0.10893583423216845 0 0 0
80 97 1 -0.5776565537769033 -3.5094559059394754 -0.1608522606423848 0 0 0
75 98 1 -1.8407456931210477 -2.809230470965014 0.06951239441162622 0 0 0
195 99 1 -1.8880685387966072 -1.356005412694593 -0.13428647528873752 0 0 0
202 100 1 -0.6234251560566131 -0.687892613724677 0.11199675110010511 0 0 0
186 133 1 -3.0766248890736523 0.6925178369531256 0.21261794309124443 0 0 0
185 136 1 -3.049679404426398 3.4758962951084795 0.12426995954340579 0 0 0
203 137 1 -0.5258483468281507 0.7221252458400054 0.13726394581363183 0 0 0
196 138 1 -1.8013911620251384 1.3758041525996718 -0.007728687222182263 0 0 0
194 139 1 -1.8418746152490633 2.786434188300376 0.19187074996197306 0 0 0
201 140 1 -0.6392768026669294 3.504676495142226 0.0004736246822215506 0 0 0
143 161 1 -10.336861954767686 4.902385614013 -0.014434016424742789 0 0 0
136 162 1 -11.500036259833537 5.690006355699358 -0.06591801744451727 0 0 0
135 163 1 -11.541021709239626 7.059988619379701 -0.14130442461291268 0 0 0
142 164 1 -10.321458379393285 7.709824592442783 -0.034276565212054175 0 0 0
157 165 1 -7.956778425158439 4.864945621249769 -0.21463574321103127 0 0 0
150 166 1 -9.120758775660654 5.579092380025669 -0.1000099111903466 0 0 0
149 167 1 -9.134186841005869 7.000799130961824 -0.24164557401031192 0 0 0
156 168 1 -7.930940947169868 7.708454650971787 -0.17769052869510368 0 0 0
169 169 1 -5.472219779184256 4.875225863061747 -0.05994661743291307 0 0 0
166 170 1 -6.718340966829069 5.57114963288698 -0.21995439068562964 0 0 0
165 171 1 -6.740790014297492 6.986618988754371 -0.015905801202489658 0 0 0
173 172 1 -5.5123950427051005 7.6894762861083406 -0.07034333175095865 0 0 0
178 174 1 -4.240631536978072 5.594178988620833 -0.16912817741302466 0 0 0
176 175 1 -4.317529469193119 6.987468619364548 0.11196701948480425 0 0 0
141 201 1 -10.363336702956808 9.108998138173382 -0.2710026578058958 0 0 0
10112 0 2 -28.89346890329182 1.2003717806623073 -6.834994184670534 0 0 0
155 205 1 -7.970849742816544 9.082253721403886 0.05453547865847187 0 0 0
148 206 1 -9.146098217275277 9.830166166865057 -0.19412401465482892 0 0 0
174 209 1 -5.557340173692189 9.116416201519094 0.11920393680394935 0 0 0
167 210 1 -6.777648146527713 9.778163753981522 -0.15560097050201213 0 0 0
181 214 1 -4.318144278183749 9.80194956974769 -0.11833539450807753 0 0 0
184 173 1 -3.009200359488873 4.917921443238303 0.14249453549571955 0 0 0
188 176 1 -3.1008786625259788 7.724985053465319 -0.04089957050686941 0 0 0
200 177 1 -0.583110558347627 4.914231357087589 0.19030659350507406 0 0 0
192 178 1 -1.7983261480607 5.64261927867542 -0.005982528459215066 0 0 0
190 179 1 -1.8372039354191783 7.0642564258405125 0.12360087665080494 0 0 0
199 180 1 -0.6083093081804457 7.75376380750792 -0.036938964166467296 0 0 0
183 213 1 -3.096485473148675 9.123305201620171 0.2301592328598659 0 0 0
198 217 1 -0.6596471393212864 9.171882892760358 0.20073363590284246 0 0 0
191 218 1 -1.890294150127438 9.82408249061899 0.03653651741307357 0 0 0
277 0 2 -6.509308818824924 7.745381914180091 -3.6200631982520797 0 0 0
8257 0 2 -3.7496750981824034 -6.626820644755016 3.217900850603459 0 0 0
6998 0 2 -0.26071293267088497 -0.6755518527573586 -3.071664902257045 0 0 0
9765 0 2 -11.169383852058841 7.954353485866283 7.962138473147777 0 0 0
134 202 1 -11.514485769192628 9.89980524718612 -0.04970634535056482 0 0 0
9491 0 2 -13.899614212088089 -0.5095110736481516 -1.4901567521937833 0 0 0
5925 0 2 -0.6228343015837444 3.8108598296017027 3.5454942493449804 0 0 0
7996 0 2 -4.794902355781948 8.923629523669065 3.286849344106937 0 0 0
9 0 2 -3.240044085134969 -6.276162537299059 -3.9379250718177397 0 0 0
3659 0 2 -1.5805418966615925 -1.0026328757642353 3.14507669435908 0 0 0
10315 0 2 -28.783718984361297 4.020193254202503 -14.172919050273373 0 0 0
9067 0 2 -11.478096094030061 5.102737759542812 -3.0773373120015717 0 0 0
10496 0 2 -23.633480307770384 0.7514224324630494 6.229542727173507 0 0 0
10469 0 2 -8.650818539337676 0.7386248643118982 -8.76088846049541 0 0 0
9928 0 2 -23.912993194236478 6.465151735809436 -12.25921887039597 0 0 0
10508 0 2 -24.088571908314478 2.0145469124793527 12.47308264598349 0 0 0
31 3 1 -11.556557759395714 -9.749030813776796 -0.2287105381186406 0 0 0
1896 0 2 -6.430755376851073 2.1210756138841687 3.057069365237863 0 0 0
10499 0 2 -17.484082600097278 2.010548542808868 7.598250616768219 0 0 0
10321 0 2 -7.097763024569406 -4.580248246432482 -11.78462964398228 0 0 0
10484 0 2 -22.191948539990076 5.85552235505344 5.748240616040273 0 0 0
9142 0 2 -3.430459668697561 3.269330520621946 -2.9904766035812242 0 0 0
10345 0 2 -23.07342066254927 -7.20441053667052 -1.6695805283185097 0 0 0
10268 0 2 -2.2766563292205504 -0.5192181986593393 -8.65094990833453 0 0 0
7922 0 2 -8.371338675292773 0.8525424857134074 -3.4673119971896087 0 0 0
10389 0 2 -28.88567820824193 -8.840881539491155 13.889118353148408 0 0 0
10117 0 2 -25.60002949121375 -4.95260145337214 -7.3194318667750045 0 0 0
10097 0 2 -14.742954310459394 -7.2844462019421705 1.229727981339207 0 0 0
10452 0 2 -17.57685519109878 8.47545281841012 6.184227951378762 0 0 0
10272 0 2 -13.517584958643248 -0.6482984828216558 12.72332811495813 0 0 0
10369 0 2 -5.443435278981363 -8.73335090156792 11.677370519800398 0 0 0
10273 0 2 -28.365543972827027 -9.694765536522219 -4.954041445444788 0 0 0
10424 0 2 -13.853303009508048 -0.47671947134575665 -7.374785691965042 0 0 0
10520 0 2 -13.290244503142283 5.470775637224278 -8.150564399420093 0 0 0
140 203 1 -11.46083215135571 11.291893164881808 -0.09025262017692123 0 0 0
147 204 1 -10.268321958713372 12.004794329477695 -0.15951264127083364 0 0 0
154 207 1 -9.140079054428616 11.200670484967729 0.013419941257151086 0 0 0
161 208 1 -7.944835581713894 11.861296058709401 -0.02385765195292967 0 0 0
168 211 1 -6.739133354912349 11.182312336770664 0.12533462053366917 0 0 0
175 212 1 -5.530231220428706 11.872262971446757 -0.0798020421351362 0 0 0
182 215 1 -4.341691878976873 11.190317572170562 -0.2842000986035775 0 0 0
189 216 1 -3.1733110950641303 11.941931364829912 0.04162372218981198 0 0 0
193 219 1 -1.9469681205912428 11.218676893091683 0.26150703381877083 0 0 0
197 220 1 -0.7379358475063973 11.92477636704679 0.09335381876880547 0 0 0
10396 0 2 -26.36178952551176 15.44459226057842 -3.5175373475543394 0 0 0
5598 0 2 -1.1623704004499082 10.228858648297196 -3.1986489259188566 0 0 0
10152 0 2 -20.426936553450275 22.91250695438992 -8.484033163595964 0 0 0
10517 0 2 -6.051166864895136 17.433457050305318 5.721600948854282 0 0 0
10434 0 2 -16.304680158657245 15.377869906824158 5.148220109204474 0 0 0
10435 0 2 -5.552219573918673 14.555502884412943 -14.699276428616479 0 0 0
10498 0 2 -5.755681643956926 10.942254702128839 -7.903001642704373 0 0 0
10440 0 2 -29.848072009368483 21.002361411096455 -14.401547090810734 0 0 0
10250 0 2 -18.141136175256033 29.430347115487038 -5.350884393955894 0 0 0
10224 0 2 -17.566781748042 13.605271886856034 -4.348758074777553 0 0 0
10501 0 2 -12.837100517577362 24.622929236814606 -11.21202070633608 0 0 0
10324 0 2 -24.662461866092986 26.369183785913545 9.436252983835384 0 0 0
10297 0 2 -1.6823654400089614 15.075212255994403 8.782992534001341 0 0 0
10463 0 2 -26.02096091592424 22.04998139925356 -10.16418037628395 0 0 0
9683 0 2 -3.851883709586045 14.535074319539323 -2.0054396814391318 0 0 0
10366 0 2 -11.067260817610304 10.240904360426269 -7.215944948914225 0 0 0
10489 0 2 -5.179391892171298 18.454377473659015 -10.617765444636477 0 0 0
10350 0 2 -0.7282575741765165 29.140457811812126 12.337737815494867 0 0 0
10414 0 2 -6.905976803176389 22.182400531779226 -7.320445925930969 0 0 0
10417 0 2 -14.427827221784375 10.590410309630311 -14.850285829418318 0 0 0
10329 0 2 -1.452076828661887 21.54188274612224 2.2119123279109747 0 0 0
10323 0 2 -9.298332898293783 16.854387028133523 -6.851843386585348 0 0 0
10459 0 2 -18.973855721227096 21.210653023791462 14.487795615475548 0 0 0
10412 0 2 -7.75297093568358 22.967904116753367 10.455454838469338 0 0 0
10400 0 2 -1.851592530150529 24.128721846068128 9.964015077981559 0 0 0
10516 0 2 -28.03880139194306 18.64780834230813 4.749515773116354 0 0 0
10521 0 2 -28.5853117824426 20.699509500767903 0.35919365519978075 0 0 0
90 21 1 1.817081416212208 -11.932939368587608 0.018808846706680402 0 0 0
85 22 1 0.5768157801203894 -11.267583225759124 0.13146307281663572 0 0 0
95 26 1 3.0379919788389165 -11.222016472799133 0.08630633367162603 0 0 0
96 25 1 4.310489075334225 -11.889614254980286 -0.01412164358342919 0 0 0
110 29 1 6.726413496882572 -11.911688683228284 0.02129285801854264 0 0 0
105 30 1 5.509341022578713 -11.220447630833375 0.22820984061124025 0 0 0
116 33 1 9.127819842885776 -11.92768720914792 -0.05831613815270643 0 0 0
111 34 1 7.951643085569444 -11.23616251686422 0.2114196111963775 0 0 0
126 37 1 11.473301907588324 -11.941696555296963 -0.8253965510789316 0 0 0
123 38 1 10.356660858873191 -11.238144209924563 -0.23417715203844533 0 0 0
10466 0 2 8.026887558823297 -10.61446329403649 -7.501798586969036 0 0 0
10397 0 2 3.865616926053453 -12.60180111139235 3.7214232375229632 0 0 0
10433 0 2 6.380624976763258 -28.605057555941237 -2.683967292969817 0 0 0
8974 0 2 7.133273964717257 -14.47104564171918 -2.0248612964403256 0 0 0
10314 0 2 3.224454617047339 -25.361946875295963 -8.053843202871915 0 0 0
10420 0 2 25.19793856905553 -29.01332357517681 -12.743221778779596 0 0 0
10456 0 2 20.181555383246952 -19.02074346365995 9.007004652608817 0 0 0
10008 0 2 2.930266153925899 -10.979967853898199 11.677381257629207 0 0 0
10358 0 2 25.512140076089423 -26.799269837470707 -5.939467523154555 0 0 0
10423 0 2 26.70056530694739 -14.579613870448066 -0.32158830564734103 0 0 0
10518 0 2 22.15542569303474 -16.069488994234533 -9.365600944251847 0 0 0
10375 0 2 24.797025792284014 -15.185507084494754 11.85597057136109 0 0 0
10515 0 2 17.009071125116506 -21.171479015858342 -12.073085623877436 0 0 0
10346 0 2 27.886828092692117 -28.13808555258326 9.581869286333571 0 0 0
10437 0 2 22.532567881896618 -16.553138931876678 -3.624735902421695 0 0 0
10475 0 2 28.873184526028307 -28.90850936591604 1.0069818096970762 0 0 0
10278 0 2 21.09405098844335 -23.960973148470806 -8.067589663005991 0 0 0
10495 0 2 2.8897300917265145 -16.389535023154483 14.615694196022524 0 0 0
10479 0 2 28.70795086603586 -12.019089558820687 8.491080259404804 0 0 0
10497 0 2 26.684001620304723 -15.932949486920421 -7.905023280140043 0 0 0
10471 0 2 11.26788962048681 -11.0544920099366 9.973040307734172 0 0 0
10478 0 2 2.024808062214997 -15.562867612180504 -4.077252025778419 0 0 0
10488 0 2 17.745077927458706 -27.925044890123516 -8.819099971510067 0 0 0
10490 0 2 28.704959412527323 -18.717998823148807 12.170198808422805 0 0 0
10492 0 2 13.087047394403132 -16.86656129844905 -0.9230055409616119 0 0 0
10494 0 2 16.592731989545545 -13.469087020346855 -2.8171628552538666 0 0 0
10505 0 2 2.0314471828932357 -24.763433086084355 11.718321477562585 0 0 0
10507 0 2 2.4828772810823825 -21.246433660477443 0.018061469320385916 0 0 0
10513 0 2 16.73332039079907 -20.1997235709937 -6.234169938211969 0 0 0
10514 0 2 8.104513726206353 -26.138652280572582 3.2109022720320874 0 0 0
84 23 1 0.629265142095098 -9.872533194999033 0.08285529411918384 0 0 0
89 24 1 1.8169690036335482 -9.153890952779577 -0.1667311768162506 0 0 0
94 27 1 3.0405556152980897 -9.832116581756692 -0.1516233859544417 0 0 0
88 61 1 1.8599054187831001 -7.7305542989923275 -0.17278141486897305 0 0 0
83 62 1 0.6330086988388427 -7.011612672800883 0.026506392559020514 0 0 0
82 63 1 0.6624964915341667 -5.590011289068929 -0.12777336225824584 0 0 0
87 64 1 1.8656511856990954 -4.87616617154455 0.17180543693911463 0 0 0
93 66 1 3.073858911559058 -7.017550158733154 0.00982483645438815 0 0 0
92 67 1 3.0775656162420857 -5.627477156810253 -0.00683736539947571 0 0 0
100 28 1 4.2611518229743535 -9.124565615162311 0.03100149909956438 0 0 0
101 31 1 5.517568603915443 -9.813886080609993 -0.03840621889184864 0 0 0
107 32 1 6.760771525283407 -9.14874884688932 0.1737030825696654 0 0 0
115 35 1 7.902938774899219 -9.867528822997576 -0.04753763144621005 0 0 0
120 36 1 9.15137865721298 -9.168231955238577 0.018296114317788315 0 0 0
125 39 1 10.356851294034628 -9.819724770164942 -0.1859975060989023 0 0 0
130 40 1 11.577545960710218 -9.159604700396256 -0.1695076671812369 0 0 0
99 65 1 4.267558136450708 -7.713675216566862 -0.0508709189972533 0 0 0
98 68 1 4.295477324158904 -4.914296961062245 0.2075638409672616 0 0 0
106 69 1 6.761523989023904 -7.777029577471885 -0.01713451076861353 0 0 0
104 70 1 5.502508536126307 -7.087121167241591 0.2086668311969829 0 0 0
103 71 1 5.5209286073142545 -5.657293011779976 0.20178216156485604 0 0 0
109 72 1 6.725716863081756 -4.941704294059186 0.2871574660481961 0 0 0
119 73 1 9.198353623379681 -7.7627565016338504 -0.03405068646517539 0 0 0
114 74 1 7.961900845799468 -7.086437071636964 0.2100150820001094 0 0 0
112 75 1 7.942974133850908 -5.622836478927456 0.07799037231513903 0 0 0
118 76 1 9.148584677906648 -4.925473902886429 0.41565203787563265 0 0 0
129 77 1 11.629525741411909 -7.761033592752644 -0.05134413267611788 0 0 0
124 78 1 10.421099844047466 -7.049045760075978 -0.019525365818218787 0 0 0
122 79 1 10.365052790746272 -5.637149731295367 0.2833822133728486 0 0 0
127 80 1 11.551453168126422 -4.921717070401879 0.1171982830625238 0 0 0
86 101 1 1.8391687937916088 -3.4814593675207344 0.05797869881115006 0 0 0
81 102 1 0.6254390562661624 -2.7697287957958343 -0.06653556628230145 0 0 0
205 103 1 0.6066491535808181 -1.3596062950745103 -0.022863430309340974 0 0 0
211 104 1 1.8390987864029393 -0.66145479335266 0.22431408751448595 0 0 0
91 106 1 3.0813175845380063 -2.8128145320562217 -0.09291758565668044 0 0 0
219 107 1 3.0599416309478342 -1.3841941093255872 -0.04729932637914962 0 0 0
212 141 1 1.8817698880657263 0.7355578335705981 0.05299613470572149 0 0 0
204 142 1 0.6736906622417382 1.4136777099061557 -0.028936515936398132 0 0 0
206 143 1 0.5948200658212248 2.777353581872227 0.16875834553652025 0 0 0
213 144 1 1.8196626438417824 3.5072616992040855 0.12790924775524565 0 0 0
218 146 1 3.115245625926185 1.4194542877504055 0.2339190084627088 0 0 0
220 147 1 3.06867778478534 2.8136306014175516 0.14608888324459116 0 0 0
97 105 1 4.280770859595914 -3.481493390656818 0.23501488076037325 0 0 0
226 108 1 4.294412566835134 -0.7524600276500933 0.06551246730936247 0 0 0
108 109 1 6.753841392081713 -3.5362964972327164 0.01979065635694189 0 0 0
102 110 1 5.55033706354017 -2.822509289386767 0.13751006051314607 0 0 0
233 111 1 5.54376602300395 -1.4343721599635466 -0.08711038604526128 0 0 0
241 112 1 6.733846347764828 -0.7424152721838584 0.0014297271813206152 0 0 0
117 113 1 9.193570893455046 -3.534629815182165 0.13295136987827808 0 0 0
113 114 1 7.951375347114113 -2.843548727205545 -0.04710625329246351 0 0 0
249 115 1 7.953624646647624 -1.4528926325743339 0.06792983632556741 0 0 0
255 116 1 9.13864546933424 -0.7546116086642933 -0.143022073380113 0 0 0
128 117 1 11.598153653457167 -3.521731832035189 0.18020678557431244 0 0 0
121 118 1 10.381289301487703 -2.8192838910486255 0.3377403866432892 0 0 0
261 119 1 10.371301884111528 -1.4639686213973098 -0.0007659019470938271 0 0 0
268 120 1 11.577861563751185 -0.7104054568109063 0.14821343730619202 0 0 0
227 145 1 4.270950587041286 0.6669799368340621 0.009558671786764884 0 0 0
228 148 1 4.26920133380368 3.470313625764022 -0.11951073025372377 0 0 0
242 149 1 6.6774769797293 0.6573970850115781 -0.16029605776584915 0 0 0
234 150 1 5.499412179320375 1.3666112831896804 0.14031078879392164 0 0 0
235 151 1 5.506777798046223 2.801402837689144 0.12113428967699173 0 0 0
243 152 1 6.6368430336157465 3.4997935961056474 -0.1558089755946617 0 0 0
256 153 1 9.138993964823426 0.6710003077531187 -0.12863621982036003 0 0 0
248 154 1 7.884493213703895 1.3502827256852985 0.10507434279763997 0 0 0
250 155 1 7.859945790568959 2.8357331478469714 0.029189274745308313 0 0 0
254 156 1 9.083226566611415 3.4727907805549196 -0.2987355077067756 0 0 0
269 157 1 11.566070334810968 0.6818076096654784 -0.030473915916209342 0 0 0
260 158 1 10.339400580726124 1.3673132073669407 -0.020199242631297503 0 0 0
262 159 1 10.318666452198626 2.7802120346419574 -0.30923728122760485 0 0 0
271 160 1 11.540877381445588 3.5185477995393106 -0.2691927051761212 0 0 0
214 181 1 1.8360866057823406 4.924171987219262 0.14763518294224537 0 0 0
207 182 1 0.6052152494988109 5.640580354104288 0.04727069047217218 0 0 0
208 183 1 0.5899546159237296 7.04581790950293 0.10820947868858762 0 0 0
215 184 1 1.7574783546880914 7.766153179247717 -0.12130362248830913 0 0 0
221 186 1 3.0667537071113444 5.640453360014376 -0.09958988569808162 0 0 0
222 187 1 3.0056602075406103 7.060420653689469 -0.013717296635521199 0 0 0
216 221 1 1.781510188199016 9.205271403343177 0.07187703058361894 0 0 0
209 222 1 0.5579366494245416 9.913873192055297 0.03358353287935122 0 0 0
223 226 1 2.995272244157455 9.907837928685323 -0.06772967628184252 0 0 0
229 185 1 4.24263088273191 4.875523322111377 0.022016860221785357 0 0 0
230 188 1 4.22084346415249 7.76658226548385 -0.18063933529495002 0 0 0
244 189 1 6.666879934337163 4.9081770602713775 -0.06529286675270268 0 0 0
236 190 1 5.436993138775676 5.597680764196601 -0.2253360377070398 0 0 0
237 191 1 5.445159582861751 7.031297217541638 -0.002396736253345322 0 0 0
239 192 1 6.652380607672221 7.750862319480154 -0.1349618042492825 0 0 0
257 193 1 9.084940563535902 4.91351356583962 -0.19136656777159566 0 0 0
247 194 1 7.846753895306689 5.6128200528608785 -0.3312236223431988 0 0 0
251 195 1 7.792862823608987 7.010991936209404 -0.13882841544815558 0 0 0
258 196 1 9.04653201477131 7.677675788613825 -0.32035744361762253 0 0 0
270 197 1 11.588887295609442 4.927427428956174 -0.2558354757308597 0 0 0
263 198 1 10.357491672414275 5.614333930219808 -0.3442986879702085 0 0 0
265 199 1 10.272152372019502 6.973418235572397 -0.03455444222477738 0 0 0
272 200 1 11.476178158055706 7.690727450070632 0.11003376211364023 0 0 0
231 225 1 4.190357311087011 9.158916527401725 0.05652416193377588 0 0 0
240 229 1 6.659901953450036 9.154760556447854 -0.011745200984093181 0 0 0
232 230 1 5.411543927109397 9.847102481228145 -0.09663006692057736 0 0 0
259 233 1 9.08401152234433 9.085326130996402 -0.09820817453207535 0 0 0
252 234 1 7.907042901900069 9.815290862228101 -0.08288126148411246 0 0 0
273 237 1 11.462347918423644 9.096696143174155 0.06931000802743141 0 0 0
266 238 1 10.272381095135446 9.820685088969274 -0.1344572408612272 0 0 0
9795 0 2 3.2091232626236352 9.214992444417854 3.715246934954915 0 0 0
10472 0 2 14.429951109095482 0.6091755002566261 -9.404893923684199 0 0 0
10344 0 2 28.76796071407659 -6.276995155640534 7.450806749772465 0 0 0
10493 0 2 1.0696277167366806 6.460854509405522 11.93326916151053 0 0 0
10310 0 2 0.6982894954657305 4.875777129890889 -6.023379986850282 0 0 0
10422 0 2 23.76605274834635 -8.326547280012093 -3.523431205377839 0 0 0
3 0 2 2.9080407779170323 -7.221656842220682 2.9822882305105782 0 -1 0
8245 0 2 8.54132107391643 -8.023357116043565 -3.1253744617907206 0 0 0
3149 0 2 8.47247407724639 2.1822440129439875 -3.55773198780144 0 0 0
10347 0 2 17.228866482141406 0.1955520769488948 3.5264707047399044 0 0 0
10238 0 2 16.96411706442578 -4.733648977026034 -8.373362838907491 0 0 0
10476 0 2 5.507923373879793 0.7730261843479267 -11.86778424465136 0 0 0
10421 0 2 24.626429169351585 -1.2381516633387855 -2.2447209159035526 0 0 0
9354 0 2 14.424699721125798 -5.66600227740679 -1.4375507476373097 0 0 0
10519 0 2 0.9191750667241827 -5.521911353157371 -13.819478805378145 0 0 0
10448 0 2 19.504203451888664 9.376230871959022 7.190141619988324 0 0 0
2077 0 2 10.198341696295737 8.95822178927661 -3.2543147135132457 0 0 0
9615 0 2 10.75971688700417 -2.264703034222718 -6.58002036521426 0 0 0
10154 0 2 9.934078038277333 -9.179480431063151 3.2425209912539237 0 0 0
10343 0 2 26.7798895555015 7.9614155543859155 13.184289590185944 0 0 0
10119 0 2 29.07568398284942 -0.7315323627219044 11.548686951282086 0 0 0
1399 0 2 7.104030112644305 -2.3321506940020784 3.0649531603839235 0 0 0
8249 0 2 2.786861977960305 -9.701006968984023 -3.165027251531852 0 0 0
3548 0 2 3.857014750785368 -4.894446819940969 -3.1408172607246714 0 0 0
554 0 2 9.238870572321998 6.435805423336287 3.109471205242514 0 0 0
10477 0 2 26.070597285822675 -1.010479435158881 7.202572216681706 0 0 0
10482 0 2 4.314006442629173 1.1435449694232158 3.7881168044464766 0 0 0
10373 0 2 9.375977099930878 8.935946600597529 -14.472142659927142 0 0 0
10374 0 2 20.11491368648536 6.89558837140147 -9.81470377500058 0 0 0
10403 0 2 17.505417056302218 -3.1987275180015544 10.160814244994352 0 0 0
10404 0 2 13.09509693460641 1.3040531529790165 -3.3942790334769333 0 0 0
10436 0 2 5.170368887304696 0.17769061721207796 -6.677190099366574 0 0 0
10446 0 2 13.074675363270027 6.397856623083957 13.638473801002993 0 0 0
10451 0 2 0.04958175557709137 1.449987930124395 9.252957518206196 0 0 0
10453 0 2 27.816203445108332 3.6365229223558466 0.5543848600637002 0 0 0
10457 0 2 13.192251811153817 6.342104127538517 -9.10858778953448 0 0 0
10506 0 2 29.047941586625203 -5.1397661862445885 1.1118666136459188 0 0 0
10467 0 2 18.521048570350647 2.98447683023454 -13.695505677657792 0 0 0
210 223 1 0.5392480391088572 11.27372541993468 0.25617065718719423 0 0 0
217 224 1 1.8128093455961711 11.931411181376497 0.06871482808001586 0 0 0
224 227 1 3.0192969331840325 11.256934982801132 0.2315641555792065 0 0 0
225 228 1 4.235749164646895 11.951106465412602 0.03331481839934268 0 0 0
238 231 1 5.44723163522517 11.265691542697889 -0.13155090081926035 0 0 0
245 232 1 6.661222703482548 11.880066372675463 0.11653853775671603 0 0 0
246 235 1 7.867912681863642 11.209825228010512 0.15458241416903507 0 0 0
253 236 1 9.118085817032854 11.90420102376033 -0.009151000472702852 0 0 0
264 239 1 10.293691771719642 11.200084375245353 0.035990013482177244 0 0 0
267 240 1 11.348354455962431 11.92079097139543 -0.5361352834631771 0 0 0
10474 0 2 3.791586871926529 13.573628135549916 -14.855275600737881 0 0 0
10012 0 2 16.481852947659245 15.075648124123472 -1.1215372837805013 0 0 0
10062 0 2 3.5428590174847407 27.355671513355013 5.411253795723223 0 0 0
9806 0 2 13.812356351672348 11.736298444860529 1.6253941628025153 0 0 0
10128 0 2 27.07524990604676 19.499823698880228 -7.52098261985565 0 0 0
10470 0 2 28.483373417187188 21.77046918250806 10.78479449651529 0 0 0
10487 0 2 25.637607189511005 11.14979435244286 9.645601115206363 0 0 0