LAMMPS data file via write_data, version 27 Jun 2024, timestep = 150000, units = real

1901 atoms
2 atom types
1352 bonds
1 bond types
2536 angles
1 angle types
4788 dihedrals
1 dihedral types
792 impropers
1 improper types

-30 30 xlo xhi
-30 30 ylo yhi
-18 18 zlo zhi

Masses

1 12.0107
2 2.016

Bond Coeffs # harmonic

1 469 1.4

Angle Coeffs # harmonic

1 63 120

Dihedral Coeffs # opls

1 0 7.25 0 0

Improper Coeffs # harmonic

1 5 180

Atoms # molecular

5076 0 2 -21.619349609901594 -27.925982192112098 -11.790975802635929 0 0 0
5094 0 2 -11.349925186980395 -20.77776274669989 -4.143283406688407 0 0 0
5251 0 2 -19.941595722670705 -17.065450287564925 -9.285864744056452 0 0 0
5090 0 2 -13.51344383248728 -28.910006372667045 -17.708120367201378 0 0 1
5239 0 2 -27.090201993399578 -18.020935444102943 -8.732297961340798 0 0 0
5099 0 2 -17.45130874839374 -17.17988438981826 -14.83481690675412 0 0 0
5078 0 2 -24.110196054447115 -29.868156962184877 -15.7935442081792 0 1 0
1505 0 2 -10.54236995873265 -15.197136700749173 -7.711590796473328 0 0 0
5275 0 2 -15.93875385978933 -23.84190704659747 -9.114655319794336 0 0 0
5193 0 2 -19.17068752779263 -25.60479058984529 0.48575364146791855 0 0 0
4878 0 2 -11.325784490438092 -16.046615408076022 3.427858753184557 0 0 0
5074 0 2 -18.924164799134942 -16.070500296951437 3.8145119299532255 0 0 0
5248 0 2 -19.613942661717296 -19.350928417821052 15.59822652655368 0 0 0
5258 0 2 -20.265151636401644 -23.223081191833053 11.52593899402533 0 0 0
5146 0 2 -13.529275514740219 -22.320009832874856 6.069230204980047 0 0 0
5166 0 2 -25.778843012858733 -21.58334736132261 16.015756460755007 0 0 0
5121 0 2 -12.826774678909377 -20.23159351543369 15.21125596626598 0 0 0
5168 0 2 -23.204246912746015 -27.785783139815333 11.497088100906465 0 0 0
5277 0 2 -24.97473766334236 -27.091217316354843 1.5232494571396493 0 0 0
5237 0 2 -25.717266678009967 -21.896577972324415 1.552880244566389 0 0 0
5240 0 2 -21.41278047250493 -16.845709306732722 8.562796961197543 0 0 0
4999 0 2 -15.771031078934163 -29.640706293618955 5.714451958679914 0 1 0
5195 0 2 -13.331877936340684 -19.73082053315364 0.2580204058257841 0 0 0
2076 0 2 -11.782567718806597 -11.271104541857678 -4.869349677030364 0 0 0
3915 0 2 -16.33036285255405 -13.674392276580507 -5.450620787152761 0 0 0
3058 0 2 -17.58702729423236 -0.27922821877176485 -9.517561535780915 0 0 0
1869 0 2 -11.27528824754002 -4.165136443649965 -0.46155087646757487 0 0 0
5224 0 2 -24.680849788951328 -10.248080882473781 -6.772465098408519 0 0 0
2856 0 2 -12.43663762850723 -2.2978099653679056 -9.52553232333809 0 0 0
1851 0 2 -13.371230540656239 -7.928935388454721 -5.238113416736377 0 0 0
2130 0 2 -13.006838428274342 -12.06720213729983 -12.259832132088496 0 0 0
2116 0 2 -11.642298802726614 -0.3592469738342896 -16.58550050553888 0 0 1
2075 0 2 -15.057546370120399 -6.195338916154493 -11.210442408429095 0 0 0
4352 0 2 -17.456964627944203 -10.962019065502636 -13.776371450272157 0 0 0
2583 0 2 -14.637375138506618 -4.195084960953515 -6.135793209409568 0 0 0
2622 0 2 -11.811714230592168 -7.085371402476935 -2.289186699564739 0 0 0
1521 0 2 -12.000992982083279 -3.113732244995848 -15.738671487507583 0 0 0
1776 0 2 -10.605876925347161 -1.219996611366429 -13.949372765327373 0 0 0
1010 0 2 -15.358285917013868 -6.353227383143052 -0.2813567988550662 0 0 0
1039 0 2 -11.632168162153496 -4.842782883063395 -13.302809964708107 0 0 0
1164 0 2 -11.459436507716756 -2.3417030219621755 -4.033731893447051 0 0 0
254 243 1 -10.071620895047387 -8.50280107343189 -4.816681155415735 0 0 0
1328 0 2 -11.663906497435848 -6.180508598136058 -7.949439447922547 0 0 0
2417 0 2 -11.406490710925144 -0.6017483731522444 -0.38672136273394947 0 0 0
5232 0 2 -19.991738397475107 -6.846777618387188 -10.801067811705881 0 0 0
1285 0 2 -12.233206465910476 -10.054506197849152 -8.439873769116533 0 0 0
5058 0 2 -25.057809088190226 -2.643049983713097 -15.719876231373 0 0 0
1687 0 2 -14.652978739063917 -2.4392489887433637 -2.046167848347762 0 0 0
1493 0 2 -11.492965844058544 -7.691766841730586 -13.259320599008829 0 0 0
2045 0 2 -12.99934343098528 -6.087113823036102 -16.222628582883175 0 0 0
1569 0 2 -10.731791306890074 -5.242607122848617 -4.118022445889034 0 0 0
255 242 1 -10.27073469262608 -8.629999257944199 -6.178660130732522 0 0 0
2038 0 2 -11.774162874940997 -9.082614430174033 -16.043094589673853 0 0 0
1522 0 2 -10.287443001664375 -9.663633254960503 -1.215369376581166 0 0 0
1782 0 2 -14.794877553053782 -1.2030884417651313 -13.24277663161379 0 0 0
3466 0 2 -17.278820947225732 -8.875725187414826 -7.545176966219695 0 0 0
4136 0 2 -16.876233652878106 -5.0067747565272605 -15.877704798219883 0 0 0
4138 0 2 -18.085974249038447 -5.937559493678721 -3.921452179927714 0 0 0
3176 0 2 -15.426154463363808 -9.561115383985927 -17.85610909965939 0 0 0
2168 0 2 -14.805783449829319 -5.16830840340893 15.787571191840833 0 0 -1
5250 0 2 -22.32864501126813 -13.07907534751373 14.593731103419007 0 0 0
3028 0 2 -19.844227267277418 -0.4814659722767531 10.75736992097455 0 0 0
1754 0 2 -11.91925236150276 -7.204149120193078 14.132132913656223 0 0 0
2826 0 2 -13.348264702441483 -13.165098057049638 9.980849462379082 0 0 0
2763 0 2 -12.57682104320278 -0.9053602605848082 5.268661441923439 0 0 0
1832 0 2 -13.337011138016743 -2.515955448992484 2.2259523776753385 0 0 0
2143 0 2 -14.040717798117281 -11.422944905737468 0.1965612441259457 0 0 0
2617 0 2 -12.035841195290889 -5.104799858895738 10.73141229887211 0 0 0
2717 0 2 -12.06339152399088 -2.7214931811435306 13.436564866771631 0 0 0
4627 0 2 -29.000285856457083 -8.292155684343504 0.98636452670421 0 0 0
1112 0 2 -10.960418408914087 -10.411196877664077 13.636108914227869 0 0 0
1862 0 2 -10.823812644674465 -6.106779903059598 16.723964910248835 0 0 0
1379 0 2 -15.890959770666516 -4.900784811681886 11.355320371448538 0 0 0
1150 0 2 -14.327772497300197 -4.655429275897316 6.569881877192478 0 0 0
1334 0 2 -12.728429510283338 -8.578686251843807 8.013870497580532 0 0 0
1172 0 2 -10.508676001540696 -8.026517171098435 11.644965846463386 0 0 0
1174 0 2 -10.234398483691672 -8.046935830139315 3.9687966449874015 0 0 0
2886 0 2 -14.20269094211475 -1.220179767967039 9.185100059453125 0 0 0
1195 0 2 -10.71321819927676 -7.323882625281759 0.9593328095598033 0 0 0
5180 0 2 -22.286036362531757 -11.61612907189436 1.0671370898785713 0 0 0
1333 0 2 -14.148798051216602 -8.5493418337274 3.4131861648540833 0 0 0
1555 0 2 -10.111526562784098 -10.450769282319596 2.2806948206995403 0 0 0
1372 0 2 -10.635444406446693 -3.614833554947308 5.570877574013267 0 0 0
1559 0 2 -15.761682274275088 -9.630835567847733 12.777847693854584 0 0 0
1617 0 2 -11.604005578149382 -5.265920558866658 3.1198651045788215 0 0 0
5205 0 2 -19.7489563160602 -5.364481043960464 6.780943855491134 0 0 0
1286 0 2 -20.31813868140087 -3.101618590588699 15.537929478952988 0 0 -1
2357 0 2 -10.358648943903981 -1.8978171804877102 9.94189437445729 0 0 0
1231 0 2 -11.504310476216128 -9.383881275256872 16.75760691573078 0 0 -1
549 563 1 -10.323796578065648 -1.5699159691119815 2.8774711222016616 0 0 0
4388 0 2 -21.089939026372146 -5.662315865761685 1.1326057131249352 0 0 0
4888 0 2 -17.34535210824457 -0.45313081208817263 4.1361631816945295 0 0 0
1600 0 2 -12.487545677546276 -12.016635006148029 5.475630668652595 0 0 0
2649 0 2 -11.347920470036911 -3.103607734886076 17.152397697947627 0 0 0
5267 0 2 -18.26400625392101 -10.727564746325108 6.3140109312294195 0 0 0
4877 0 2 -28.6760241239289 -0.17717088902140843 9.510333215928636 0 0 0
5056 0 2 -27.43494951283817 -6.022190132025226 12.375520730809267 0 0 0
4509 0 2 -17.268923585007354 -14.44181974277597 12.73718774975646 0 0 -1
1630 0 2 -13.289994170418103 -14.119414267078193 17.586070316383083 0 0 0
2129 0 2 -15.152413961588383 0.9054772691998301 -6.0305544242376605 0 0 0
2837 0 2 -15.40774250451409 5.659689059944379 -2.4932618159922564 0 0 0
2825 0 2 -13.61603457516502 13.78466998584862 -6.246014694144183 0 0 0
1550 0 2 -10.44188975331833 3.045755637410221 -4.763597638978483 0 0 0
4941 0 2 -20.60052077690581 8.535921624972222 -3.954794051968584 0 0 0
3966 0 2 -14.817883164469768 13.299942013975022 -16.47766644538182 0 0 0
2185 0 2 -11.98461099501277 4.026928310928557 -16.156407580679407 0 0 1
4496 0 2 -21.11750786665494 3.1509601734136097 -1.9312451422203913 0 0 0
136 202 1 -10.371645043302362 8.919468531947 -13.639060122141029 0 0 0
2125 0 2 -13.47895259716182 10.271643107877324 -13.531968592653731 0 0 0
1365 0 2 -11.41187291671218 1.5735883271482098 -14.364656988216296 0 0 0
1436 0 2 -11.078605168022206 10.601542495122827 -4.359540109219304 0 0 0
2343 0 2 -10.488077611881407 4.624605962026612 -13.760978856746908 0 0 0
228 203 1 -10.516035528310724 9.395653453372788 -12.366861479360576 0 0 0
1969 0 2 -11.33145908859253 3.239032435211726 -1.7385298755189982 0 0 0
1069 0 2 -10.559216368214347 7.877095608657909 -5.470289816010896 0 0 0
1275 0 2 -15.838327648246143 3.050181323050436 -13.530428299427749 0 0 0
2548 0 2 -13.362999185537378 4.937634153194206 -6.92334426881828 0 0 0
1169 0 2 -12.90975265570003 9.331501200683778 -10.013778925696169 0 0 0
2128 0 2 -13.048197657486064 2.1495710558613084 -10.034730317849924 0 0 0
1236 0 2 -11.212543174147712 5.636407947114799 -3.708567562249985 0 0 0
3022 0 2 -17.07543139011083 14.228761762715983 -0.6579032644291348 0 0 0
1766 0 2 -11.096613250675029 9.618146537828551 -16.826168104525784 0 0 0
2480 0 2 -12.620941914466643 7.008229592309718 -14.951947156141177 0 0 0
4405 0 2 -21.05657102822232 4.570246833126636 -12.450472547626712 0 0 0
3443 0 2 -16.28679512233186 5.324601958501523 -17.79999537639065 0 0 0
1366 0 2 -11.874377248532305 5.784683655401583 -0.18956179768784323 0 0 0
1582 0 2 -10.523293740656346 0.2432192029431041 -6.092437941009789 0 0 0
2767 0 2 -15.782119394360622 6.946710228858449 -11.51559524410499 0 0 0
2247 0 2 -11.639108998332189 8.406087777802556 -2.400200976069463 0 0 0
1779 0 2 -11.669840144911738 0.4648291377249523 -3.3105725562160067 0 0 0
2112 0 2 -10.561622635259077 12.325636124606275 -10.846999154056636 0 0 0
2538 0 2 -14.771865510126824 9.358896216729546 -5.374657959869956 0 0 0
2843 0 2 -11.287760305174382 11.803662746333789 -1.1916417660057617 0 0 0
3218 0 2 -14.098416103078804 14.520322369353282 -11.209516943771245 0 0 0
2154 0 2 -11.884617236633598 6.5205534971536965 -11.968216825933803 0 0 0
2273 0 2 -10.500989481001659 12.174933263451864 -14.351147678826543 0 0 0
2913 0 2 -15.07774174971683 1.7858725920134177 -0.3463787763755854 0 0 0
5178 0 2 -27.068993571093763 7.64865435909447 -5.570475022074123 0 0 0
5211 0 2 -19.510019502163317 9.467849467740697 -16.198577221493032 0 0 0
1936 0 2 -15.366535856393208 9.546661743400968 -0.5770639397023806 0 0 0
2884 0 2 -10.146011611670602 13.944568993411142 -3.843143065150404 0 0 0
3438 0 2 -10.004507152221006 5.915360788541678 -9.701905062984544 0 0 0
2246 0 2 -10.002610005744897 11.740691283711616 -7.113220147499484 0 0 0
4569 0 2 -17.675279432229203 9.049305835930578 15.673622943111841 0 0 -1
3331 0 2 -14.885560399326875 10.091841828473749 6.28792509984141 0 0 0
2153 0 2 -15.73326695544631 0.5117355347268974 17.388016900656407 0 0 -1
2216 0 2 -10.806947304574322 5.111313734172319 8.882456161370277 0 0 0
1021 0 2 -10.83008720412503 4.315322747023036 5.918798283360261 0 0 0
1313 0 2 -10.751913451223597 5.081570322018923 12.253333917744625 0 0 0
4518 0 2 -18.111293960796285 4.250452754396257 1.977992037008369 0 0 0
2532 0 2 -11.89849308034721 7.350277998764039 7.163057865129209 0 0 0
2751 0 2 -14.610091918124391 6.482525079126673 2.9136126635748587 0 0 0
1239 0 2 -11.205727106128286 11.076744332765754 12.262642693307269 0 0 0
5079 0 2 -22.38447902644966 3.2059013567155787 13.49841513402808 0 0 0
1850 0 2 -11.932240506564522 1.117671585315776 2.3636606667951194 0 0 0
2667 0 2 -13.100225138523625 1.9856189332508776 12.716508541164599 0 0 0
2595 0 2 -13.18838874856568 2.6217091174167892 5.101108534549054 0 0 0
1222 0 2 -17.349980508303943 2.6760905158344044 13.544546730456545 0 0 0
1238 0 2 -11.78074662237347 1.8661307380243926 7.975181558127223 0 0 0
5242 0 2 -20.495486410529328 14.515170464132796 17.098514240412417 0 0 0
5010 0 2 -20.142124458867823 8.485228333863985 11.972219298221113 0 0 0
3046 0 2 -10.418619639875521 9.02196472086593 0.3412071030285278 0 0 0
1552 0 2 -10.192831824280853 13.695657983804134 10.668266852097517 0 0 0
3020 0 2 -14.315626161751862 6.142674417555848 13.907537317249176 0 0 0
1781 0 2 -12.480907502046334 6.830021249351552 17.67418047009656 0 0 -1
1615 0 2 -15.525511447568753 10.097896652783637 11.526603118850458 0 0 0
1899 0 2 -10.289157717488788 3.606159649851833 3.370048540546235 0 0 0
2233 0 2 -13.087273685050874 11.493838247079399 16.01777328081081 0 0 0
1457 0 2 -10.915846933905303 8.237380893223968 13.84966003767165 0 0 0
1474 0 2 -11.719138053950454 7.492370886558247 10.651122215150693 0 0 0
1983 0 2 -15.414215851655378 5.268206420695932 8.700542966119965 0 0 0
4374 0 2 -17.320997892893406 13.489327382302237 8.729397354905945 0 0 0
3848 0 2 -19.67321902231658 3.6979001439585786 7.155201366029335 0 0 0
1350 0 2 -12.060880843026153 10.185390879711168 9.242964365393501 0 0 0
3336 0 2 -10.845840272894772 9.613657259859751 5.06912613681005 0 0 0
2620 0 2 -11.477787465476633 3.5977810300394673 16.995666036825064 0 0 0
1549 0 2 -10.614521689266066 12.017244710874724 7.363305561629499 0 0 0
2044 0 2 -10.529847848660928 6.819141340873128 4.26886917705636 0 0 0
5083 0 2 -23.314301089189588 12.809439920926906 0.703963540919531 0 0 0
2959 0 2 -11.828840745410307 13.798468287514753 2.6236825170503932 0 0 0
5209 0 2 -27.580621301339395 6.5469737962540915 5.746797999766595 0 0 0
5035 0 2 -26.646165404381485 14.927659461152187 15.3163642248274 0 0 0
5262 0 2 -29.687185972212898 6.564447643802254 13.895330409397905 0 0 0
5270 0 2 -24.627717004786746 8.52222300303037 17.320209107087965 0 0 0
5272 0 2 -23.81073498275174 0.7099723831652716 7.542478022582108 0 0 0
1183 0 2 -11.001957987485946 0.13851611548012768 16.58406014071496 0 0 0
5278 0 2 -24.088152996583826 9.270556893105878 8.579531799438078 0 0 0
4925 0 2 -13.76129683629399 23.16464219507254 -6.123213948924314 0 0 0
5249 0 2 -29.444785813190165 21.08911685647108 -17.13729658590045 0 0 0
3169 0 2 -11.37857855448225 17.43642718987709 -1.296968348389863 0 0 0
5133 0 2 -12.636291902850752 17.05441557570317 -14.524755979675085 0 0 0
5233 0 2 -15.600889220207653 23.21359914568497 -0.8980894288110549 0 0 0
5045 0 2 -14.411951906375936 22.61358785156655 -14.917925939389033 0 0 0
5247 0 2 -19.50681302458024 25.429416801934348 -14.049730175654501 0 0 0
5268 0 2 -27.325528533741213 15.619657520221859 -13.45855596079171 0 0 0
5271 0 2 -21.78690327217158 17.17824585418441 -4.632481226073352 0 0 0
5274 0 2 -11.454152607440593 27.50839929150738 -4.497193052566292 0 0 0
5261 0 2 -18.845237025188812 21.067915741566456 17.612201727119082 0 0 0
5212 0 2 -27.031194045578854 28.8269778751357 6.761226639418871 0 0 0
3035 0 2 -12.501123237242671 16.133748575367637 6.773428471691971 0 0 0
5163 0 2 -11.442941890417872 22.042962103918715 2.7766329828967136 0 0 0
4990 0 2 -11.791729858648095 21.483643866760374 10.177668606633025 0 0 0
5234 0 2 -24.24337192711906 21.358708921463926 1.9649444082282512 0 0 0
1266 0 2 -11.740402476775039 15.367898427058835 14.13096642835119 0 0 0
5231 0 2 -23.853461927481483 22.644920021209952 14.813648838513982 0 0 0
4083 0 2 -10.52587842386877 20.32800285226163 16.229092299174372 0 0 -1
5141 0 2 -12.223497756547 28.662369454091767 10.427165468783354 0 0 0
5155 0 2 -19.430309065619657 19.544032394893996 9.593827099732167 0 0 0
5196 0 2 -15.693924373086423 17.805691241207615 2.8127333892987014 0 0 0
2041 0 2 5.968584285268444 -23.31967313176067 -1.4008083219788536 0 0 0
4270 0 2 -3.705794370875242 -18.997232355923494 -17.466244265945477 0 0 1
3401 0 2 4.634969104355299 -16.100063258553924 -11.320435741695624 0 0 0
2696 0 2 -2.0225427438562034 -16.821612970562445 -6.598323535039485 0 0 0
3285 0 2 9.130620307775956 -18.037206000328915 -6.179969767106577 0 0 0
2697 0 2 1.9190491535585086 -18.022024491977483 -1.415588525671676 0 0 0
3865 0 2 9.140277839097399 -18.306505743502903 -16.708132232352657 0 0 0
1466 0 2 9.052807993091294 -15.156685615688662 -1.6266464440892108 0 0 0
3016 0 2 9.283612485338598 -18.770481370528913 -11.391294876226263 0 0 0
4853 0 2 -7.860049010015155 -21.37726589309221 -7.805668418580026 0 0 0
2774 0 2 3.7418924823346416 -16.386533925069454 -5.86303045266005 0 0 0
1932 0 2 3.10261461142156 -18.468164064677595 -15.65264599545308 0 0 0
4576 0 2 -3.3407792279742563 -18.231820868906418 -0.8805606447433508 0 0 0
1871 0 2 -4.634450937028925 -15.700675664292657 -14.672894889291245 0 0 0
5246 0 2 6.2596641787826135 -29.065075750648685 -2.612891603048884 0 0 0
1386 0 2 -6.937968434587722 -15.17341873825317 -9.990848932317192 0 0 0
5167 0 2 -5.659684906996593 -24.195692851743427 -2.4984155993502473 0 0 0
5098 0 2 3.955210707896033 -22.279382991739105 -6.797051379398893 0 0 0
4723 0 2 -0.2573796299065673 -15.897416764285714 -13.040210862068276 0 0 0
5154 0 2 -4.6829020403411965 -25.84726184843947 -14.552747417502761 0 0 0
5254 0 2 0.6652658739535638 -25.56438770573295 -11.588918376299924 0 0 0
5260 0 2 8.110689038341416 -25.474353743125448 -15.61718638852957 0 0 0
1410 0 2 -7.582651983056248 -15.66165894148594 -17.92343422997633 0 0 1
4204 0 2 -6.584307182268701 -15.172838748621023 -4.826331028694137 0 0 0
4650 0 2 -7.293672992633093 -18.168611901812184 10.923306060158296 0 0 0
4749 0 2 2.3597491483360065 -18.605791884583873 15.030273076849761 0 0 0
2802 0 2 6.611975634310705 -16.903146295485158 15.829153372955812 0 0 0
3121 0 2 4.24142746832973 -16.516723416917756 3.866482664453088 0 0 0
2793 0 2 -8.151209160143399 -18.158473575676602 0.11946149166199886 0 0 0
2640 0 2 4.533497592487324 -15.485627721298354 8.258791195661233 0 0 0
5245 0 2 3.4812428961782067 -23.911984761407282 15.865585875187673 0 0 0
3762 0 2 0.6933141927182034 -16.104758527028395 10.977766624085904 0 0 0
1369 0 2 0.09995095270352743 -18.18342930819498 3.568504574959992 0 0 -1
2422 0 2 -5.390144639922606 -17.638029525076483 3.982310860507043 0 0 0
2747 0 2 -3.745639564344806 -15.013961760368822 15.131785064117963 0 0 0
5222 0 2 -2.2063202594218474 -20.42670805426358 10.951383724067423 0 0 0
3806 0 2 9.461592303631802 -17.731378082877953 2.2337563969018195 0 0 0
5109 0 2 -3.9316017394093006 -24.908436703576704 13.940092099491197 0 0 0
5144 0 2 -8.551725024482515 -25.34354668281373 2.2220407761572667 0 0 0
5152 0 2 3.4526870683317887 -21.403925908794395 7.146943472119626 0 0 0
5266 0 2 -7.50576617175471 -23.587445564557612 9.950854496786441 0 0 0
3355 0 2 8.523485504652747 -15.240628221922478 6.490276491846836 0 0 0
5281 0 2 8.119511905752896 -26.103473419068735 4.039341654833728 0 0 0
9 5 1 -5.3866249472897305 -9.136965689471207 -16.816642758339196 0 0 0
7 6 1 -6.675807318194752 -9.036036401763385 -16.936171921185416 0 0 0
6 7 1 -7.421775664456658 -8.779583423614714 -15.861230897646124 0 0 0
8 8 1 -6.839111314540429 -8.465455480012595 -14.65209824316963 0 0 0
13 9 1 -3.69897255071241 -9.11679736496976 -15.624399937868663 0 0 0
11 10 1 -4.952529840713568 -9.130272394977206 -15.611492747091523 0 0 0
10 11 1 -5.610118378247316 -8.793243765683764 -14.492934685173333 0 0 0
12 12 1 -4.959677366351533 -8.433280852327984 -13.285207750801002 0 0 0
15 14 1 -3.1135417890137256 -8.780421979756591 -14.512703460781285 0 0 0
14 15 1 -3.6112079337633936 -8.537025296590441 -13.287692162370613 0 0 0
58 45 1 -7.363738719740948 -7.540622171503692 -13.712212674683158 0 0 0
53 46 1 -8.456951561152579 -6.841995847552313 -14.180825702203112 0 0 0
54 47 1 -8.398362044562182 -5.431895074091902 -14.11845113568365 0 0 0
59 48 1 -7.3416705852551 -4.823784374178719 -13.439230766502996 0 0 0
71 49 1 -5.336865482984477 -7.481759104817494 -12.339457466907252 0 0 0
65 50 1 -6.5487615145497395 -6.94410088514454 -12.724138164230736 0 0 0
66 51 1 -6.564264587598623 -5.53153555208311 -12.501592406458148 0 0 0
67 52 1 -5.413108018158753 -4.847964950317936 -11.895035497882544 0 0 0
72 54 1 -4.317586746115998 -6.800775901934099 -11.439209545196684 0 0 0
74 55 1 -4.344983604759692 -5.420467282834459 -11.157627123948753 0 0 0
17 13 1 -2.105922110358262 -8.33060055490152 -14.962719748752942 0 0 0
16 16 1 -2.7349583647622766 -8.060566479544363 -12.3878296780642 0 0 0
20 17 1 -0.0646096122712604 -8.52495865052306 -14.522467913268894 0 0 0
19 18 1 -1.2123589881190566 -8.133710074826983 -14.126930100376976 0 0 0
18 19 1 -1.452802446208189 -7.9894822272662855 -12.827001526990678 0 0 0
21 20 1 -0.3816229859724628 -8.052006908124628 -11.97657766249042 0 0 0
25 21 1 1.6037626238022973 -9.415188956808356 -14.274260083812472 0 0 0
23 22 1 0.6725457363977098 -9.056850789048095 -13.67696144121741 0 0 0
22 23 1 0.7440509317822147 -8.581188447206817 -12.37805585483027 0 0 0
24 24 1 1.9799611366441758 -8.374111352540691 -11.759960951019377 0 0 0
27 26 1 2.6417247414571023 -9.549007534167433 -13.662846415945808 0 0 0
26 27 1 2.9567842916039857 -8.919626987260411 -12.504900994859963 0 0 0
78 53 1 -2.9573132148765047 -7.223172225196897 -11.31649973775758 0 0 0
76 56 1 -3.083580662500697 -4.668498530184557 -10.789982003677244 0 0 0
85 57 1 -0.39924021801154397 -7.122069379558313 -10.986526297381968 0 0 0
81 58 1 -1.7409355220449214 -6.587131922473397 -10.70724811000119 0 0 0
82 59 1 -1.7354989806810568 -5.176677510565802 -10.43901300145045 0 0 0
86 60 1 -0.38490566333849774 -4.330459926994249 -10.424810328588814 0 0 0
98 61 1 2.124520980417811 -7.213570156067348 -10.99018061307132 0 0 0
93 62 1 0.8979352426206633 -6.435431648587235 -10.754048734783238 0 0 0
92 63 1 0.9688923459982546 -4.9610915539737634 -10.579798080913871 0 0 0
97 64 1 2.2049475906612326 -4.294600069360574 -11.084633438341994 0 0 0
102 66 1 3.4423016825989845 -6.598906303509668 -11.087246112882367 0 0 0
101 67 1 3.3393823354478305 -5.143038751480131 -11.242744282790477 0 0 0
28 25 1 3.465115778011098 -9.894280608981056 -14.569658235079988 0 0 0
29 28 1 4.253119208751312 -8.666296612522714 -12.251747794198192 0 0 0
33 29 1 5.306896042477986 -9.698558310930714 -15.499489525615997 0 0 0
31 30 1 4.752373546488925 -9.796391070925454 -14.348436313929588 0 0 0
30 31 1 5.182238856491984 -9.156780143162315 -13.202931842003936 0 0 0
32 32 1 6.40194960827137 -8.670238368545133 -13.50113870343486 0 0 0
36 33 1 7.38445743002706 -10.776367903008527 -16.324301790411948 0 0 0
34 34 1 6.588871417726068 -10.153763713593428 -15.419048003271554 0 0 0
35 35 1 7.101646363848214 -9.219302884683362 -14.57848907646683 0 0 0
37 36 1 8.353824531690176 -8.756295013555198 -15.029092823183744 0 0 0
107 65 1 4.552915554208206 -7.394812142209747 -11.543548312429918 0 0 0
106 68 1 4.32221026528874 -4.675679639015604 -12.043986704718895 0 0 0
112 69 1 6.724092195694535 -7.500458473626775 -12.882434898293312 0 0 0
111 70 1 5.821141182984452 -6.820239545141157 -11.914388093503547 0 0 0
110 71 1 5.552303735234398 -5.446541141735575 -12.151660588844914 0 0 0
116 72 1 6.463882155593296 -5.079147745653513 -13.075205021110685 0 0 0
125 73 1 8.609078698196544 -7.464288987015254 -14.710578987759288 0 0 0
120 74 1 7.840864759514507 -6.9623345016582565 -13.592757401956813 0 0 0
117 75 1 7.664794672794221 -5.672580138323208 -13.483003753663004 0 0 0
124 76 1 8.324758692267013 -4.954970645442275 -14.408410290910458 0 0 0
60 85 1 -6.885130358658463 -3.630885695663036 -13.977281342760884 0 0 0
55 86 1 -7.609973146590065 -2.9178797650439385 -14.831388042567852 0 0 0
56 87 1 -7.526282263590686 -1.590260401710458 -14.903745557070899 0 0 0
61 88 1 -7.334809640357712 -1.0080627361943908 -13.734652834813481 0 0 0
68 89 1 -5.212748865350302 -3.5609406776268187 -12.352106498939344 0 0 0
63 90 1 -6.149238959100592 -2.9547397977974517 -13.149429487414102 0 0 0
64 91 1 -6.480319113707499 -1.6570199913331292 -12.80342855490016 0 0 0
69 92 1 -5.486116647854006 -0.9759067693642128 -12.051951785783306 0 0 0
73 94 1 -4.0498868617893535 -2.8948762308848344 -12.050053095419898 0 0 0
75 95 1 -4.151575042693896 -1.5773689135936197 -12.109254093728348 0 0 0
57 0 2 -3.6071851722538337 -2.817489507486682 -15.266005683723703 0 0 0
50 84 1 -8.08793306177389 -0.9282059539320102 -15.971511965976728 0 0 0
77 93 1 -2.911485728902754 -3.3475787847749228 -11.334546726496466 0 0 0
79 96 1 -2.8500416787975915 -1.0151847266667406 -12.45027952843175 0 0 0
87 97 1 -0.3405500149959733 -3.042429041403935 -11.090026417966673 0 0 0
83 98 1 -1.6575593884046993 -2.697366762254628 -11.588568852341522 0 0 0
84 99 1 -1.8036260480583808 -1.9188940179370833 -12.724940614361229 0 0 0
88 100 1 -0.8242465863526913 -1.5052036847497496 -13.633107146743043 0 0 0
96 101 1 1.9278798396205774 -3.226869513404961 -12.052160291489912 0 0 0
91 102 1 0.7012124952490416 -2.6278127234193915 -12.11825427813851 0 0 0
90 103 1 0.4021450727137081 -2.07100013035057 -13.494465874193043 0 0 0
95 104 1 1.3317119416492609 -1.8085326054990951 -14.556178399652516 0 0 0
100 106 1 2.7369128683027646 -3.165069727283259 -13.222905685958137 0 0 0
99 107 1 2.569765898796429 -2.3776663253164254 -14.346305174090274 0 0 0
252 0 2 1.6363710223057275 -5.965524083784261 -13.976677789569342 0 0 0
359 355 1 6.704443382475996 -0.7651700711426396 -4.521021470269233 0 0 0
360 354 1 6.817287490675488 -1.8774536273654976 -3.9051701737452578 0 0 0
105 105 1 3.9504095111098128 -3.7893816805583995 -13.049559460214187 0 0 0
104 108 1 3.7200067722601613 -1.7268458646916003 -14.863703650767718 0 0 0
115 109 1 6.213465078410234 -4.040067907330662 -13.851099820525024 0 0 0
109 110 1 4.972231839992155 -3.4684750842607825 -13.893563470149354 0 0 0
108 111 1 4.969709393311635 -2.249228733987915 -14.557722207730649 0 0 0
114 112 1 6.1274745440112355 -1.4929708549524816 -14.56441644826356 0 0 0
121 113 1 8.534096899239799 -3.870443615546488 -13.652145265784009 0 0 0
119 114 1 7.391577352231537 -3.286356699662268 -14.038982941520018 0 0 0
118 115 1 7.3273618835348575 -1.9663307547290774 -14.107722283668686 0 0 0
123 116 1 8.299448371084928 -1.371658590899836 -13.322592687104892 0 0 0
362 353 1 7.830224637455596 -2.5882314181286055 -4.583573068245448 0 0 0
349 351 1 4.449519854226994 -0.8981649507988714 -4.837684611482572 0 0 0
350 350 1 4.540173193226301 -1.8552212980399116 -3.769590396537285 0 0 0
259 245 1 -6.92088843846541 -9.001277570388435 -7.317690148997565 0 0 0
258 246 1 -8.080536141521504 -8.384106372571821 -6.7538069816617 0 0 0
257 247 1 -8.007889428047415 -8.300674711770673 -5.358538787494659 0 0 0
299 248 1 -6.863007804419301 -7.8714425344753005 -5.123767667748471 0 0 0
262 249 1 -4.187431454158274 -8.855747512258132 -7.279233776431189 0 0 0
261 250 1 -5.578601096056865 -8.583752234697569 -7.053466582681152 0 0 0
260 251 1 -5.714415124586848 -7.936183016319355 -5.9333007916880325 0 0 0
312 252 1 -4.621255547709745 -7.597767583275016 -5.15146448124463 0 0 0
264 254 1 -3.164602634200103 -8.564199479798901 -6.329329757193768 0 0 0
263 255 1 -3.447698568877256 -8.078204549301683 -5.1294295333477695 0 0 0
300 285 1 -6.942160121589214 -6.799824999002933 -4.4138584203634155 0 0 0
295 286 1 -7.709743208697721 -6.528316400764028 -3.4356992954802514 0 0 0
296 287 1 -7.658367666453144 -5.123884513129012 -3.0793039237187223 0 0 0
311 289 1 -4.699472476048345 -6.479235011739681 -4.5454943078880055 0 0 0
306 290 1 -5.836918398147802 -6.1311857167983375 -4.22350013138083 0 0 0
307 291 1 -5.915954370746046 -4.857028218020206 -4.210849857104072 0 0 0
313 294 1 -3.9735732895286393 -5.855560971035162 -3.684079599779668 0 0 0
315 295 1 -4.017054778497527 -4.477917887003024 -3.8396248947883453 0 0 0
265 253 1 -1.8033736031905758 -8.487899894073726 -6.533920885858021 0 0 0
317 256 1 -2.6168725125685497 -7.408291360368046 -4.207953702484478 0 0 0
268 257 1 0.23582088988238914 -8.62980920269741 -5.24397464308564 0 0 0
267 258 1 -0.9372126872635153 -8.178282339822305 -5.463404172577204 0 0 0
266 259 1 -1.43086850653019 -7.763382514082227 -4.233333562520774 0 0 0
326 260 1 -0.7574772166288772 -7.460669663894042 -3.0452452974554713 0 0 0
271 261 1 1.597075751542592 -9.714982055085976 -3.6930065071351423 0 0 0
270 262 1 0.6250930069173998 -8.90980297612931 -3.9628504549257415 0 0 0
269 263 1 0.3721364778989863 -8.084025103295483 -2.940921298412665 0 0 0
339 264 1 1.2903396951481518 -7.696303757306226 -1.9163448999436663 0 0 0
273 266 1 2.4379729262594 -9.69725047188 -2.6596459016000384 0 0 0
272 267 1 2.5105051184335174 -8.430510270837761 -2.0050523433091376 0 0 0
321 293 1 -3.0378662734264616 -6.542530671349737 -3.162497909697961 0 0 0
327 297 1 -1.0349377567388325 -6.286092731694529 -2.1530280154640318 0 0 0
322 298 1 -2.3237287305447887 -5.770858322724772 -2.2641916329762313 0 0 0
323 299 1 -2.3769199619657244 -4.2128082176318316 -2.243295028162213 0 0 0
338 301 1 1.2882120808523274 -6.331127568641308 -1.4307146079353688 0 0 0
334 302 1 0.05645665353002547 -5.493495742615657 -1.54933535058298 0 0 0
333 303 1 0.026518604693460384 -3.993017269926782 -1.6645371085238783 0 0 0
343 306 1 2.530223615169525 -5.523508711634658 -1.4763675496231659 0 0 0
342 307 1 2.448720490037453 -4.0925552107842 -1.7940256451158778 0 0 0
274 265 1 3.5978396048852166 -10.253158373539149 -2.9968043484730034 0 0 0
348 268 1 3.7392265018566797 -7.7245380893886955 -1.995373313800448 0 0 0
277 269 1 5.821933182365002 -10.17917713683205 -3.800972519188546 0 0 0
276 270 1 4.8347518096466535 -9.754623314031717 -2.9509466123789405 0 0 0
275 271 1 4.806615499497296 -8.466741421114435 -2.6429320194044403 0 0 0
354 272 1 5.656579020077961 -7.660077814584197 -3.346648591841893 0 0 0
280 273 1 6.573717542461848 -10.071082140404968 -5.712407245497086 0 0 0
278 274 1 6.3457749012529945 -9.471003537235633 -4.623360500837902 0 0 0
279 275 1 6.099159642385508 -8.168058288011585 -4.563864561570034 0 0 0
366 276 1 6.377222602938392 -7.420286544464229 -5.583222605428082 0 0 0
347 305 1 3.724268044069289 -6.231760101099452 -1.9871818539157382 0 0 0