LAMMPS data file via write_data, version 29 Aug 2024, timestep = 150000, units = real

698 atoms
2 atom types
676 bonds
1 bond types
1268 angles
1 angle types
2394 dihedrals
1 dihedral types
396 impropers
1 improper types

-30 30 xlo xhi
-30 30 ylo yhi
-15 15 zlo zhi

Masses

1 12.0107
2 2.016

Bond Coeffs # harmonic

1 469 1.4

Angle Coeffs # harmonic

1 63 120

Dihedral Coeffs # opls

1 0 7.25 0 0

Improper Coeffs # harmonic

1 5 180

Atoms # molecular

6 1 1 -10.339217076922905 -12.656175511138727 -7.487871565092044 0 0 0
3 2 1 -11.58638073963342 -11.993822090913412 -7.685294513263677 0 0 0
1 3 1 -11.51075786882902 -10.596099490547621 -7.68107191787041 0 0 0
12 5 1 -7.990977178547615 -12.64440085146488 -7.37690328012149 0 0 0
9 6 1 -9.155954260545633 -11.942649375783555 -7.227625165953183 0 0 0
7 7 1 -9.14636245759146 -10.608438535887876 -7.560875954064454 0 0 0
18 9 1 -5.493215317696882 -12.593300379897915 -7.500848468138967 0 0 0
15 10 1 -6.756392099428119 -11.92414538181803 -7.613514053754918 0 0 0
14 11 1 -6.721926739335762 -10.525461174227475 -7.6948563472711875 0 0 0
21 14 1 -4.286322370229856 -11.955204403158511 -7.709993466531471 0 0 0
20 15 1 -4.313241367896152 -10.568976150259346 -7.395064817560774 0 0 0
24 13 1 -3.039070257174877 -12.594459960874346 -7.589263317132931 0 0 0
28 17 1 -0.6285793764998703 -12.51703527679541 -7.586318445941368 0 0 0
27 18 1 -1.8567599222010358 -11.879181927484442 -7.363839953654387 0 0 0
26 19 1 -1.908775389707171 -10.496602550495409 -7.631360134883266 0 0 0
278 241 1 -10.21885216696964 -11.236743626013478 7.680007165965506 0 0 0
276 242 1 -11.48570161968343 -10.615716143463414 7.542949812131856 0 0 0
282 245 1 -7.86328223162321 -11.120028126055946 7.631591138508682 0 0 0
280 246 1 -9.061819200027173 -10.480561525485088 7.753546957491958 0 0 0
286 249 1 -5.460392938930721 -11.196374297845088 7.563735969743331 0 0 0
284 250 1 -6.65572150289266 -10.452305726268293 7.374906716774874 0 0 0
288 254 1 -4.227169251451471 -10.46281516181726 7.6799300272607365 0 0 0
290 253 1 -3.015028079467759 -11.169656145009597 7.512137474788496 0 0 0
293 257 1 -0.6157089524574962 -11.189512024126072 7.475454869371725 0 0 0
292 258 1 -1.8133211302654693 -10.466631119685248 7.412168315220684 0 0 0
9578 0 2 -18.883712012291323 -15.119448726052152 -3.975812607451051 0 0 0
9406 0 2 -15.047808072973329 -11.82016969164941 -7.251714954933168 0 0 0
9556 0 2 -19.791633771766907 -18.933664423112717 13.294772776932982 0 0 0
9427 0 2 -19.380224785486057 -13.894704544522325 2.3419612814269954 0 0 0
1761 0 2 -0.12427748775014637 -11.071616334369322 -4.3275010716982525 0 0 0
9509 0 2 -25.49001139751863 -28.845727024403516 5.689465794633405 0 0 0
9533 0 2 -26.57850014780425 -18.201007917207633 -7.486329577387891 0 0 0
2376 0 2 -7.72089638764055 -15.70984549607063 -5.838357796956628 0 0 0
9412 0 2 -28.721036404164707 -29.083950059060655 -1.6394470061700654 0 0 0
9572 0 2 -23.669707893865787 -24.491451737769264 -8.869482948850331 0 0 0
7945 0 2 -8.10650234099073 -13.412507279963858 5.01338938690047 0 0 0
9552 0 2 -27.913338700091046 -22.351886995365714 -13.13320592895763 0 0 0
7241 0 2 -8.381028678387127 -12.421703397010102 10.712113532587601 0 0 0
9564 0 2 -17.795628798323285 -26.60357766591964 -2.0189224241581534 0 0 0
9322 0 2 -27.273172601595242 -14.570764816195021 10.10709602924223 0 0 0
9608 0 2 -17.29418156020935 -27.173975823287744 -8.933678375259309 0 0 0
9072 0 2 -2.0446727549370523 -13.808651254808993 6.0137988436920535 0 0 0
9520 0 2 -24.651189620395478 -22.369810963205815 1.285284469521759 0 0 0
8717 0 2 -14.140068201132381 -17.337345271916572 -0.5174979664955588 0 0 0
9537 0 2 -21.360264899289323 -16.94243012332437 8.046452532553449 0 0 0
9505 0 2 -8.171384936959734 -20.676654922506742 -12.862501117054057 0 0 0
9593 0 2 -1.905221716518476 -21.620223248235643 13.590584777497043 0 0 0
9536 0 2 -1.7427782802972154 -13.445112955144026 -13.343726366744809 0 0 0
9602 0 2 -7.189224452859552 -23.634153373510348 8.22148347053686 0 0 0
9409 0 2 -5.5200755706021445 -28.737595633727317 -2.7746297602923495 0 0 0
9524 0 2 -8.058820732436613 -27.901748141226754 3.6420400471796714 0 0 0
9486 0 2 -6.069012271651233 -23.568853856876338 0.0705917336019462 0 0 0
9491 0 2 -16.188100740499525 -19.10118272382634 -9.981398208225869 0 0 0
9545 0 2 -6.8858942330406805 -17.820827826521285 -0.27807085328838194 0 0 0
9550 0 2 -16.237281572123297 -24.461211534785537 5.619157349863824 0 0 0
9598 0 2 -4.249833510642842 -11.164727444516389 3.606036951311833 0 0 0
9624 0 2 -8.123324357208586 -12.247659730254382 -13.645716460996606 0 0 0
9627 0 2 -12.510066419335008 -26.377031534156856 -12.643822448301243 0 0 0
9642 0 2 -12.840179883564948 -21.782250675801322 8.062015593238401 0 0 0
9479 0 2 -11.283431915345767 -10.034288405725995 -0.09167518944712641 0 0 0
4 4 1 -10.359948946139985 -9.902276755056395 -7.3333053473248 0 0 0
10 8 1 -7.924726307040267 -9.839660101907308 -7.488116417066283 0 0 0
17 12 1 -5.512194801336927 -9.907784009193117 -7.423598875763575 0 0 0
5 41 1 -10.354058765011333 -8.47749146079333 -7.572809138236472 0 0 0
2 42 1 -11.548096349281971 -7.682780122161205 -7.496752622913026 0 0 0
64 43 1 -11.596820426026884 -6.26183153602239 -7.578065054509177 0 0 0
69 44 1 -10.36458519606175 -5.628751659899038 -7.515954701763556 0 0 0
11 45 1 -7.948812598996354 -8.427121430389507 -7.541193960143627 0 0 0
8 46 1 -9.146128256185685 -7.743741889932139 -7.3658390353425185 0 0 0
74 47 1 -9.177096102982233 -6.378585383960269 -7.643093773440764 0 0 0
79 48 1 -7.981531631308206 -5.63545837110972 -7.471490210275314 0 0 0
16 49 1 -5.512875553227096 -8.495125487339834 -7.557731374650483 0 0 0
13 50 1 -6.725423253408424 -7.736575953111831 -7.403185312775 0 0 0
88 51 1 -6.721898252095801 -6.311504380917713 -7.596447252107747 0 0 0
89 52 1 -5.479936503305959 -5.602302441570717 -7.529991861642003 0 0 0
19 54 1 -4.316683790047172 -7.709260593096213 -7.46181306181916 0 0 0
96 55 1 -4.284956892146716 -6.330505560604302 -7.761153649718473 0 0 0
22 16 1 -3.1006895508900927 -9.790800713312374 -7.412633768920701 0 0 0
29 20 1 -0.6525131092549353 -9.781183670645927 -7.625642005840498 0 0 0
23 53 1 -3.100069486132592 -8.35641853910389 -7.612456613409115 0 0 0
99 56 1 -3.085427185639871 -5.589607780033963 -7.545000517603619 0 0 0
30 57 1 -0.6623246685549219 -8.351176238289291 -7.549671642040164 0 0 0
25 58 1 -1.904421587949315 -7.684246270632434 -7.512083180130738 0 0 0
104 59 1 -1.880166883285794 -6.309077051288593 -7.707414315630355 0 0 0
109 60 1 -0.6321572002918925 -5.60143584705001 -7.509807268448172 0 0 0
73 81 1 -10.367724727283125 -4.20326754929707 -7.695310886557451 0 0 0
66 82 1 -11.572085546878464 -3.4511250099370647 -7.585663956141248 0 0 0
68 83 1 -11.540431497006592 -2.0549680382938127 -7.603864291120781 0 0 0
71 84 1 -10.28380600138427 -1.3921819494965804 -7.500714063752224 0 0 0
80 85 1 -7.913152518947358 -4.213077607730634 -7.662866101261657 0 0 0
76 86 1 -9.104876578764195 -3.513025950953458 -7.568374604481869 0 0 0
77 87 1 -9.101757357478647 -2.08904091982399 -7.745478486397141 0 0 0
83 88 1 -7.9218231202110125 -1.4286508705679313 -7.459924193795 0 0 0
90 89 1 -5.4748536979332325 -4.227794909560463 -7.670095244450373 0 0 0
85 90 1 -6.673655281061823 -3.5554562689368683 -7.470056509930645 0 0 0
86 91 1 -6.698230778111798 -2.1626157306776754 -7.5562637597725875 0 0 0
93 92 1 -5.4919482896637435 -1.4662853923751415 -7.55176594664086 0 0 0
95 94 1 -4.2656429590296225 -3.5788430691097077 -7.40297490965157 0 0 0
97 95 1 -4.267724348884173 -2.14503276790912 -7.394928609344128 0 0 0
70 121 1 -10.3182883657933 0.011098221568179458 -7.652185035489774 0 0 0
67 122 1 -11.519889019730364 0.6595678097179813 -7.36227614746723 0 0 0
65 123 1 -11.527504685893463 2.0494638626495387 -7.344576568903962 0 0 0
72 124 1 -10.337862854587538 2.7443941036324797 -7.560366590415876 0 0 0
82 125 1 -7.90267535868447 -0.05754537628753585 -7.453172695693092 0 0 0
78 126 1 -9.055192652997473 0.6440500973895469 -7.744084075626787 0 0 0
75 127 1 -9.092628726560953 2.0339321570717344 -7.464300060387397 0 0 0
81 128 1 -7.891144907829169 2.768471911457941 -7.554332618530604 0 0 0
92 129 1 -5.492177494033941 -0.0687312050972587 -7.374821852398022 0 0 0
87 130 1 -6.663711270826315 0.6207605457655728 -7.575230053349931 0 0 0
84 131 1 -6.665621724726673 2.0314085670268285 -7.36392846115559 0 0 0
91 132 1 -5.4733354381568144 2.803946448206561 -7.482416046412589 0 0 0
98 134 1 -4.271446223762117 0.6639367328166755 -7.535155949738172 0 0 0
94 135 1 -4.274286590286481 2.076485629141671 -7.334876713950425 0 0 0
175 161 1 -10.3247887196575 4.163114102648935 -7.27591981608949 0 0 0
183 165 1 -7.933046452951607 4.139215946966763 -7.293857964343485 0 0 0
189 169 1 -5.4917137908302385 4.224234450514542 -7.32412208201987 0 0 0
100 93 1 -3.047785927040306 -4.204940765983979 -7.65268426822528 0 0 0
103 96 1 -3.0718653170946197 -1.4189130557857559 -7.600200321252105 0 0 0
110 97 1 -0.6059495644962051 -4.165232457462215 -7.6491423173092725 0 0 0
106 98 1 -1.8658322856518244 -3.4718367398838312 -7.418497487018261 0 0 0
107 99 1 -1.8741731159065966 -2.086207680885483 -7.454584633686786 0 0 0
112 100 1 -0.6346992424937635 -1.398757026560777 -7.534450868114697 0 0 0
102 133 1 -3.0603865155000913 -0.028386823662933203 -7.465580948668476 0 0 0
101 136 1 -3.032015863913664 2.7760964015627305 -7.519548608847642 0 0 0
113 137 1 -0.6115000503694155 0.020871688563109468 -7.324961514796823 0 0 0
108 138 1 -1.8485743091546023 0.6684670945072345 -7.51316345993278 0 0 0
105 139 1 -1.7740822800183245 2.0900545681687865 -7.369824799680748 0 0 0
111 140 1 -0.6391135477181293 2.8495014876802833 -7.635142743294779 0 0 0
198 173 1 -3.006520612133291 4.214553860376241 -7.432787118196344 0 0 0
208 177 1 -0.5989089552019723 4.235837747801434 -7.479630323043353 0 0 0
171 162 1 -11.551355138290461 4.888238425685344 -7.4378742435814065 0 0 0
170 163 1 -11.51582130525873 6.292467075321404 -7.53750727126739 0 0 0
174 164 1 -10.35235857586727 6.986929720797359 -7.5932397709372985 0 0 0
179 166 1 -9.108225066649128 4.8742327273521715 -7.466567418885776 0 0 0
178 167 1 -9.156862624502228 6.294836421396335 -7.365237072349618 0 0 0
182 168 1 -7.933761119476207 6.966135293113532 -7.4662504939345355 0 0 0
186 170 1 -6.726577241923985 4.870431805583669 -7.429117191454766 0 0 0
185 171 1 -6.730383524158614 6.270444697684358 -7.317467458508856 0 0 0
190 172 1 -5.489325585168371 6.960451293652659 -7.55444251622764 0 0 0
194 174 1 -4.264240589857153 4.880252033671931 -7.627398537341793 0 0 0
193 175 1 -4.2431226236429085 6.2684782527298335 -7.419664722338055 0 0 0
173 201 1 -10.359934860643117 8.37503360723932 -7.316468298775628 0 0 0
169 202 1 -11.547511428903917 9.12722083337199 -7.481485884842132 0 0 0
181 205 1 -7.909328100958281 8.354997221890475 -7.362930425115043 0 0 0
177 206 1 -9.084642286936454 9.06988020346706 -7.499367140581686 0 0 0
191 209 1 -5.448682827847567 8.374783715595125 -7.415225896549458 0 0 0
187 210 1 -6.657171609968142 9.050894367961526 -7.520645651256295 0 0 0
195 214 1 -4.247217470076237 9.072014438387253 -7.615504320944576 0 0 0
199 176 1 -3.0458831876585384 7.02737617219911 -7.63310157526123 0 0 0
203 178 1 -1.818648000508183 4.916151461356952 -7.616393397180465 0 0 0
201 179 1 -1.8547793978049063 6.317422223669035 -7.455607200707172 0 0 0
207 180 1 -0.6154435628544296 7.01456382264741 -7.723463259587914 0 0 0
197 213 1 -3.053751873231871 8.424877348228426 -7.430136907447364 0 0 0
206 217 1 -0.649707045427936 8.448924666517058 -7.776188818883969 0 0 0
202 218 1 -1.8329908746933985 9.105957140501495 -7.468965804206837 0 0 0
275 243 1 -11.491945355617053 -9.21963013066147 7.33913019652959 0 0 0
277 244 1 -10.30810610252863 -8.415361379354879 7.405718006936845 0 0 0
279 247 1 -9.108221929309371 -9.12573880555428 7.349097930519081 0 0 0
281 248 1 -7.88419246121215 -8.424281095498353 7.573563160632549 0 0 0
283 251 1 -6.685632023439993 -9.04019028087141 7.347107500720301 0 0 0
285 252 1 -5.437072972778577 -8.359914778099679 7.475303440242474 0 0 0
287 255 1 -4.211000299095409 -9.088790341482127 7.254790325833965 0 0 0
321 281 1 -10.296734367174865 -7.010075659954801 7.155254123637342 0 0 0
315 282 1 -11.490929038107181 -6.270088826852829 7.216242827046439 0 0 0
316 283 1 -11.53574560910695 -4.8423387112872645 7.277432024202647 0 0 0
332 285 1 -7.936553713049996 -7.016338886301031 7.2847397483774206 0 0 0
326 286 1 -9.14568475169699 -6.322581476382237 7.425518282603307 0 0 0
327 287 1 -9.144393906831606 -4.913938274312439 7.308884552757042 0 0 0
347 289 1 -5.465150841435982 -7.010838089691763 7.310001364123737 0 0 0
341 290 1 -6.680324566844734 -6.3218537274650135 7.481954734214321 0 0 0
342 291 1 -6.712050124930455 -4.925143279413336 7.48509230039371 0 0 0
348 294 1 -4.256925956218816 -6.311948077695379 7.512508537224333 0 0 0
351 295 1 -4.24897891760615 -4.882129652857316 7.594056833657871 0 0 0
289 256 1 -2.9628840233184324 -8.359054849301824 7.356658981655759 0 0 0
291 259 1 -1.749691947579494 -9.059752603860465 7.666548321055017 0 0 0
294 260 1 -0.5439958449032591 -8.355453746003286 7.766571600207193 0 0 0
358 293 1 -3.017875740987621 -6.961392103492449 7.381180600442784 0 0 0
365 297 1 -0.5775596708698809 -6.974644139831117 7.545505675251748 0 0 0
359 298 1 -1.8228730486457898 -6.316175349544698 7.7549912861227766 0 0 0
360 299 1 -1.8214268220212795 -4.914357593812819 7.5611179818154755 0 0 0
322 284 1 -10.332086942445812 -4.148569952666024 7.218364447463298 0 0 0
333 288 1 -7.935129032560633 -4.20847705922974 7.666438377605373 0 0 0
343 292 1 -5.500799041581588 -4.204972589987564 7.766360056125129 0 0 0
325 321 1 -10.280063373617036 -2.7927466514798147 7.6158601183317565 0 0 0
318 322 1 -11.504030673031968 -2.083096176271297 7.6279002278602865 0 0 0
320 323 1 -11.464046272657697 -0.7161990349959402 7.657701939460626 0 0 0
323 324 1 -10.26800468292288 0.009891493723485818 7.474499304306901 0 0 0
334 325 1 -7.866250444274984 -2.7856739309905785 7.572076052552915 0 0 0
329 326 1 -9.047870713634266 -2.082707457786615 7.41632867710462 0 0 0
331 327 1 -9.010668859166135 -0.6963069112079151 7.566895269093222 0 0 0
335 328 1 -7.840578122308187 0.04743307872558253 7.456606486329631 0 0 0
344 329 1 -5.432749113184262 -2.7785108358546675 7.755407116089218 0 0 0
337 330 1 -6.611776434279263 -2.118711433400123 7.380020640713423 0 0 0
340 331 1 -6.632922471590209 -0.7069569891334233 7.562151350088496 0 0 0
345 332 1 -5.439198634323948 0.001096928126946227 7.496988662424379 0 0 0
349 334 1 -4.204601142130358 -2.0909974827302804 7.5661394554944 0 0 0
353 335 1 -4.221946128660203 -0.6695207802238965 7.681981737168915 0 0 0
324 361 1 -10.293758964374513 1.388616966765275 7.7628323452675 0 0 0
319 362 1 -11.494930838504176 2.1054760699364192 7.688558898733312 0 0 0
317 363 1 -11.445753485561395 3.4677812763420284 7.5850784358127905 0 0 0
434 364 1 -10.33581342904062 4.222717414883524 7.3347909699714675 0 0 0
336 365 1 -7.851061582253211 1.4275441774638495 7.726471720495969 0 0 0
330 366 1 -9.077534514830562 2.0951331538933244 7.55535709017617 0 0 0
328 367 1 -9.120925815194973 3.509435244017447 7.533827182459322 0 0 0
443 368 1 -7.888039505806211 4.161083905671928 7.462382948766382 0 0 0
346 369 1 -5.42100294350808 1.3964059541320801 7.622746068459486 0 0 0
339 370 1 -6.626876502153697 2.107957769696034 7.508865996360975 0 0 0
338 371 1 -6.670220848056354 3.478998313600931 7.438416123452384 0 0 0
450 372 1 -5.480949253591085 4.187204207723936 7.615546395381495 0 0 0
352 374 1 -4.201180995583653 2.085033592216908 7.511977829643787 0 0 0
350 375 1 -4.258459836500881 3.501195526147854 7.708270651895999 0 0 0
354 296 1 -3.007467664043685 -4.215294590098751 7.8315763058862995 0 0 0
366 300 1 -0.6286728368494838 -4.211933517443975 7.8888640574589255 0 0 0
355 333 1 -3.001677446095824 -2.8159116528980244 7.8420049528460956 0 0 0
356 336 1 -2.9720722337920034 -0.027355704082946943 7.357560955726979 0 0 0
367 337 1 -0.5680768594744124 -2.8441846313434636 7.879422185588404 0 0 0
362 338 1 -1.7637974606050617 -2.1615139210116556 7.639300332896204 0 0 0
364 339 1 -1.7650261019553748 -0.7386463376033061 7.642338450747769 0 0 0
369 340 1 -0.5719438896119007 -0.023491180595213122 7.472037720363687 0 0 0
357 373 1 -2.993268634283655 1.357532908523374 7.56500719044739 0 0 0
460 376 1 -3.0515989876617593 4.165651021134332 7.542767709725667 0 0 0
368 377 1 -0.6039137949904079 1.3911860522780877 7.519988953305768 0 0 0
363 378 1 -1.823063885898833 2.0808519810448347 7.378704485270845 0 0 0
361 379 1 -1.8421776489571569 3.4817863895743737 7.599319094422671 0 0 0
471 380 1 -0.6244989990066439 4.224413047724224 7.410816812260421 0 0 0
433 401 1 -10.323970823052955 5.623565513511047 7.536295980197548 0 0 0
429 402 1 -11.533003549271116 6.337548370585055 7.408684686098993 0 0 0
428 403 1 -11.549358221942438 7.740465531736906 7.430265820279184 0 0 0
432 404 1 -10.295487960055498 8.397155189821826 7.484859430123245 0 0 0
442 405 1 -7.838107798097651 5.58301094438723 7.346183154899332 0 0 0
438 406 1 -9.028385409117382 6.287087849197067 7.547288457887945 0 0 0
437 407 1 -9.035272135865553 7.680021320065676 7.368950334632154 0 0 0
441 408 1 -7.835561702433239 8.376319592476642 7.434569160996075 0 0 0
449 409 1 -5.378479112008479 5.588046101453305 7.438285922797351 0 0 0
446 410 1 -6.5938046367358485 6.282759448940634 7.512031765534871 0 0 0
445 411 1 -6.645093946696967 7.676543986313415 7.674703714016377 0 0 0
451 412 1 -5.428410444127428 8.383021349198083 7.727358674844591 0 0 0
455 414 1 -4.229436788325506 6.295351419717006 7.703332606789529 0 0 0
454 415 1 -4.252648041044727 7.6961294348728195 7.525267091440329 0 0 0
431 441 1 -10.272244779678195 9.796839094301529 7.309563185485581 0 0 0
440 445 1 -7.885981612679457 9.767034509020382 7.6648248454370345 0 0 0
452 449 1 -5.418573760495734 9.760265812448033 7.472438053554341 0 0 0
459 413 1 -3.0370872704276475 5.5843695028204285 7.704355134351271 0 0 0
461 416 1 -3.02214865507145 8.376208852720941 7.759816387917454 0 0 0
470 417 1 -0.6285507335711398 5.618298244013347 7.526753969902184 0 0 0
465 418 1 -1.8701571055298252 6.2782007156305 7.462752652637484 0 0 0
463 419 1 -1.8041172801195144 7.667324019385409 7.716855615285374 0 0 0
469 420 1 -0.6326022560921654 8.425416235932982 7.579559364361213 0 0 0
458 453 1 -2.9679898620746368 9.765827100920989 7.490258205093827 0 0 0
468 457 1 -0.6195631301352758 9.832082271874638 7.833427719812165 0 0 0
9496 0 2 -22.1369126648876 4.841042970083301 6.218306825201737 0 0 0
266 0 2 -8.314425897054097 0.43107549292355135 -10.988237738582963 0 0 0
672 0 2 -3.3334160797699037 9.985111801515599 -10.915347735901637 0 0 0
9548 0 2 -19.44877606520729 0.32598041353866414 1.4994114960674014 0 0 0
9622 0 2 -2.7835563683609874 -7.638925052043977 -14.965779741996936 0 0 1
9638 0 2 -13.309868817219215 -7.7318746177177 -3.8515615061841197 0 0 0
767 0 2 -1.8846107870908908 0.02206725903495974 -2.0240489577050034 0 0 0
5911 0 2 -5.188775087645331 -1.9935499258679685 -4.158318399337589 0 0 0
8659 0 2 -14.764303650237403 5.06380145992063 -3.495147551968206 0 0 0
8995 0 2 -0.3098051691568346 9.561483608692708 -4.365473838342545 0 0 0
9373 0 2 -21.725347851060434 -5.968848578524284 -4.71929589156847 0 0 0
4348 0 2 -2.5954869203321587 1.7969047415520716 -10.748663474392481 0 0 0
8606 0 2 -8.05450442816012 -5.698993190200943 -11.312439639004008 0 0 0
9566 0 2 -22.556973354236426 9.759425524348732 -11.687499741782364 0 0 0
2878 0 2 -10.278643969245108 2.4406600716622577 4.071299209091897 0 0 0
1760 0 2 -7.359791397071139 -4.382698820438094 4.126450854555221 0 0 0
7721 0 2 -4.9431348698255615 -5.614774829375684 10.995143627968957 0 0 0
9464 0 2 -15.47465227830381 -3.638886791823616 5.313814736707258 0 0 0
9074 0 2 -13.909270597953517 -5.767919822636785 -9.557825582108379 0 0 0
167 0 2 -4.508376256287126 -9.371652815795743 -10.574045842018693 0 0 0
754 0 2 -7.288941280154721 3.1217518884267164 -4.416262771456809 0 0 0
8514 0 2 -2.7194365032141112 0.13560441681217944 10.318515966403213 0 0 0
3356 0 2 -2.4638686276597492 -3.000776306057645 4.667454962667866 0 0 0
9183 0 2 -14.2230156824279 -0.17067577361938235 -8.020527301254361 0 0 0
7648 0 2 -0.4281571146298004 -8.938660712633911 4.353918887227156 0 0 0
9535 0 2 -22.22259772098795 -3.6924291630292787 -13.130743124262318 0 0 0
2188 0 2 -2.245859033436555 -6.644325012275071 -3.975509453102052 0 0 0
8447 0 2 -14.371428947789267 0.04991592312144343 9.010985355656 0 0 0
4553 0 2 -6.312143837662402 6.734865926078809 10.931487747073163 0 0 0
557 0 2 -7.527189965571986 -9.238595192055541 -4.384413768381108 0 0 0
6021 0 2 -8.596316955617919 0.7840805830266582 11.119702560238506 0 0 0
9643 0 2 -19.642317828459337 -0.41758982131412503 9.96462840485495 0 0 0
3786 0 2 -3.3915675515769164 -3.394291850788544 -10.718159489007292 0 0 0
9124 0 2 -10.933581206581772 -0.8591851017251606 -4.28486071508583 0 0 0
9462 0 2 -16.62448335269795 8.265164769182501 0.39128793243775173 0 0 0
1285 0 2 -4.253797041596308 4.377464666324289 4.417996503335942 0 0 0
6652 0 2 -1.243526537918485 6.943934097681409 10.791329033054712 0 0 0
9435 0 2 -25.027074244289423 2.246796883466602 9.697959116793463 0 0 0
9432 0 2 -28.35528410878905 5.656562156107475 4.391744263046753 0 0 0
9422 0 2 -28.35589058968469 -9.729249731989793 -4.942678303163915 0 0 0
9614 0 2 -29.020335576084054 -9.635458848970394 -13.351631844535442 0 0 0
172 203 1 -11.440564530934177 10.504448092519059 -7.759765560317055 0 0 0
176 204 1 -10.228952286116424 11.251417981453555 -7.674438667568347 0 0 0
180 207 1 -9.098599194485688 10.512254420256712 -7.304172216934167 0 0 0
184 208 1 -7.835350411091596 11.136845482762833 -7.601793542693449 0 0 0
188 211 1 -6.636960874484229 10.433418682691993 -7.757174332973545 0 0 0
192 212 1 -5.443008348113856 11.10216956380407 -7.521407421852717 0 0 0
196 215 1 -4.216944822702667 10.418821924312647 -7.363586861306082 0 0 0
200 216 1 -3.0223407433256146 11.156206303652713 -7.542163365160466 0 0 0
204 219 1 -1.8200815035075673 10.446197510286064 -7.808440260890327 0 0 0
205 220 1 -0.6191117707707092 11.187360841709877 -7.633771640313734 0 0 0
427 442 1 -11.44135579884242 10.532620586561903 7.389844822344892 0 0 0
430 443 1 -11.448490535136989 11.945286430059573 7.381392721226308 0 0 0
435 444 1 -10.242891691574282 12.619240790723994 7.444705906876078 0 0 0
436 446 1 -9.018710398724119 10.460325920149572 7.350753810514204 0 0 0
439 447 1 -9.012916123265954 11.886426864634712 7.613962163231152 0 0 0
444 448 1 -7.7750356664363505 12.575864095692074 7.509481028217215 0 0 0
447 450 1 -6.653502630479482 10.445505647566229 7.751076553810971 0 0 0
448 451 1 -6.588427196205583 11.883949168348364 7.693810262998177 0 0 0
453 452 1 -5.400852923526636 12.581241154557995 7.534566346960804 0 0 0
456 454 1 -4.18943760427508 10.466207787195343 7.556287495370971 0 0 0
457 455 1 -4.247777610791341 11.862904172963207 7.26132746344526 0 0 0
462 456 1 -3.0629661853825123 12.621468682574967 7.4240799303575065 0 0 0
464 458 1 -1.8464863865179535 10.519902442958637 7.808279421727358 0 0 0
466 459 1 -1.8904394534504256 11.957657449009183 7.729866664651274 0 0 0
467 460 1 -0.6574021325438987 12.676967841163668 7.392853286238032 0 0 0
9369 0 2 -14.720361672303442 10.108041992481226 -7.881462422637655 0 0 0
9347 0 2 -13.753424635925382 19.467378036553264 1.4023258807878418 0 0 0
9244 0 2 -25.268242062451307 10.785052388015899 -4.488542494692916 0 0 0
9561 0 2 -14.834831728333752 20.279684936763687 9.209726885048301 0 0 0
9276 0 2 -6.224810173398866 24.768417169356372 -2.274347494889422 0 0 0
9508 0 2 -19.95744132479451 18.322550995215522 -2.5327149848966743 0 0 0
9531 0 2 -1.855578983753475 24.134867136776233 9.99300956773443 0 0 0
9579 0 2 -19.437402015400973 11.409844114076554 5.5711746470763615 0 0 0
9619 0 2 -11.302161492411273 27.64970701173135 -3.67191779454231 0 0 0
9270 0 2 -10.298870796154485 22.499770602074204 11.128496687986168 0 0 0
6263 0 2 -8.162571617120289 14.89749092234648 9.8849637525141 0 0 0
9460 0 2 -24.840449608224542 26.261794376571576 9.502757729217793 0 0 0
9158 0 2 -1.2575117795446071 26.139478618936614 0.5733781618844648 0 0 0
9542 0 2 -20.777494142819275 15.111393660900644 14.166351718836042 0 0 0
9626 0 2 -12.829018155510814 24.634130501329253 -11.212952795612042 0 0 0
9600 0 2 -4.372253199981987 18.208604794293134 8.320521923129276 0 0 0
6841 0 2 -1.304139625084999 10.178129893404108 4.5049143199788775 0 0 0
9538 0 2 -27.610180935115913 26.02530512085309 -6.941078850438897 0 0 0
8456 0 2 -7.255891187094548 11.080603913710286 4.2016103941968135 0 0 0
9543 0 2 -14.432134240771704 10.591675510591038 -14.83927093345374 0 0 0
7267 0 2 -6.029159661681039 10.51354458204051 -4.730772983450787 0 0 0
9585 0 2 -29.26583606711426 23.523055126431625 -12.386607784895258 0 0 0
9522 0 2 -15.3269323985706 20.82523840368881 -10.209931014503429 0 0 0
9513 0 2 -23.840247270661802 21.09157560551099 2.1326617471937395 0 0 0
9591 0 2 -18.970280205948868 21.232524742085133 14.450629286893543 0 0 0
9613 0 2 -6.34655133264085 22.750684294392123 2.5503584373648573 0 0 0
9628 0 2 -6.522341346894857 12.917408811734827 -13.616155226989802 0 0 0
9644 0 2 -28.03947280978974 18.6486070818854 4.74651432077485 0 0 0
36 21 1 1.8096664516143937 -12.596938581335348 -7.460914059469372 0 0 0
33 22 1 0.6199841353850745 -11.88183727145403 -7.771446168786483 0 0 0
32 23 1 0.5801437615225976 -10.52883666810508 -7.493515201537479 0 0 0
39 26 1 3.0009222700421256 -11.871343420347994 -7.373962655866678 0 0 0
38 27 1 3.0069429099877105 -10.469495010296935 -7.643681723786146 0 0 0
40 25 1 4.169683601525036 -12.601688906466201 -7.555372987579152 0 0 0
48 29 1 6.6659439096877895 -12.598660721494774 -7.660961048335182 0 0 0
45 30 1 5.395878416164078 -11.916814781074208 -7.631942890463077 0 0 0
43 31 1 5.403183185962065 -10.530955993833132 -7.374179129193555 0 0 0
52 33 1 9.107274260225196 -12.58722149772099 -7.576963886419686 0 0 0
49 34 1 7.843645976854209 -11.884460160609917 -7.705995330732024 0 0 0
51 35 1 7.845830480984544 -10.52665613892735 -7.402643607913271 0 0 0
58 37 1 11.550410886650399 -12.653014710706657 -7.7725198681374446 0 0 0
55 38 1 10.353466378073351 -11.943129745323102 -7.373105294380278 0 0 0
57 39 1 10.337048916369362 -10.539341798058109 -7.721212353324302 0 0 0
298 261 1 1.7973834458309987 -11.208663942734988 7.527505985885576 0 0 0
296 262 1 0.5853212078503272 -10.499915776965318 7.697463047764773 0 0 0
300 266 1 3.034346862951284 -10.56171155275424 7.723954081254867 0 0 0
301 265 1 4.280256574904977 -11.125000815386594 7.616252959539589 0 0 0
306 269 1 6.692476070109062 -11.159762036985606 7.724715513953533 0 0 0
304 270 1 5.485179256203773 -10.464143197935302 7.784683079359394 0 0 0
309 273 1 9.053102191160484 -11.17211167211881 7.538265704650362 0 0 0
307 274 1 7.873620463693251 -10.457857181676797 7.440601676203711 0 0 0
313 277 1 11.425522972726903 -11.164027236927055 7.752252312656393 0 0 0
311 278 1 10.245319193293952 -10.477603120048858 7.455721123732084 0 0 0
9488 0 2 17.663625188666536 -24.815459945990042 -3.7445784931920696 0 0 0
9490 0 2 7.2301813179081105 -21.28826150968554 -5.596442985518818 0 0 0
5920 0 2 5.493259086736072 -10.764936599568475 -3.661712793588305 0 0 0
9532 0 2 6.324946722022313 -28.812524766981735 9.581360960028821 0 0 0
8416 0 2 15.033953472266486 -14.312631671659595 -7.38190924380642 0 0 0
8385 0 2 11.739420105507048 -11.989048696935455 -4.641609488368499 0 0 0
9554 0 2 6.376622581208701 -28.602622934709377 -2.664482220134983 0 0 0
9529 0 2 17.955062579459895 -10.62833838588517 -2.2853425913255294 0 0 0
9580 0 2 10.271501559852574 -19.1686449100277 11.959705037244825 0 0 0
9612 0 2 28.689503141295283 -18.70598047617772 12.17191410826988 0 0 0
9583 0 2 4.546055735892694 -27.495356295261693 -11.210728791626044 0 0 0
9452 0 2 25.17931217099056 -29.173899759022913 1.388527171365254 0 0 0
9641 0 2 17.00896355977579 -21.170788054686362 -12.072598424818061 0 0 0
9501 0 2 23.269278318138188 -14.398436411978006 -11.174477077250046 0 0 0
9342 0 2 5.276111155923465 -14.069632655381168 -9.915065364803032 0 0 0
9457 0 2 20.195097259783196 -26.470350347162377 5.459585354073462 0 0 0
9370 0 2 22.87734095583941 -21.748006470409383 0.7276263092504114 0 0 0
9166 0 2 3.2868718908798695 -11.397563717261772 11.235840413214602 0 0 0
9456 0 2 12.143184569929055 -11.036705879997228 12.76015962943759 0 0 0
9588 0 2 20.164583865669307 -19.026979195091833 9.014393748828434 0 0 0
9425 0 2 18.945620209709016 -16.316428867150425 14.001761664805016 0 0 -1
9597 0 2 26.652392464283878 -16.407015932285322 -3.504163170257487 0 0 0
9590 0 2 21.540347220634086 -26.424249442103115 -8.928272851594336 0 0 0
9549 0 2 4.284019224504369 -23.806696206335786 13.88771687874497 0 0 0
9618 0 2 8.062655642907137 -11.177332513403359 10.51362287748092 0 0 0
9617 0 2 28.109326632473913 -26.227736980723876 11.968664750474233 0 0 0
9616 0 2 2.891523002605535 -16.390384134531033 14.614412474445432 0 0 0
9615 0 2 13.093465906232709 -16.865098265780926 -0.9287969382167988 0 0 0
9596 0 2 28.044804936106356 -26.887691271534795 -5.387923185256859 0 0 0
9605 0 2 2.0424416374771988 -15.586630378526296 -4.0885319507131115 0 0 0
9611 0 2 1.9206174858694358 -29.354884277311594 14.085043815652266 0 0 0
9631 0 2 2.483155056425397 -21.246914466555072 0.01892071210362299 0 0 0
9634 0 2 14.335841449817275 -23.20646146379511 11.079036907644195 0 0 0
9639 0 2 16.732279503823534 -20.199094795486584 -6.234436327662431 0 0 0
9640 0 2 8.10465771555555 -26.13843718276216 3.212442400347193 0 0 0
35 24 1 1.7815469458408657 -9.77534131095121 -7.513650167326202 0 0 0
34 61 1 1.7855925518715487 -8.367149606692774 -7.624385319689023 0 0 0
31 62 1 0.5920191630955554 -7.688364130146966 -7.398521140977809 0 0 0
118 63 1 0.5801469561337183 -6.293251091796928 -7.619500460346143 0 0 0
123 64 1 1.7920135842473568 -5.593622475202568 -7.451220755331935 0 0 0