LAMMPS data file via write_data, version 27 Jun 2024, timestep = 150000, units = real

921 atoms
2 atom types
676 bonds
1 bond types
1268 angles
1 angle types
2394 dihedrals
1 dihedral types
396 impropers
1 improper types

-30 30 xlo xhi
-30 30 ylo yhi
-15 15 zlo zhi

Masses

1 12.0107
2 2.016

Bond Coeffs # harmonic

1 469 1.4

Angle Coeffs # harmonic

1 63 120

Dihedral Coeffs # opls

1 0 7.25 0 0

Improper Coeffs # harmonic

1 5 180

Atoms # molecular

893 0 2 -9.180609104731538 -15.177379502275386 -6.518368593457112 0 0 0
6590 0 2 -17.200909675776952 -27.088787841517338 -9.279523889586605 0 0 0
6396 0 2 -4.956693691136409 -26.385499809452426 -13.486399599366852 0 0 0
6456 0 2 -22.627699341568608 -27.622583944503255 -14.074477801045624 0 0 0
6349 0 2 -1.588371687640234 -21.81962001429077 -7.576076954771423 0 0 0
866 0 2 -1.7876217493768602 -15.317998857930899 -8.24534818862643 0 0 0
5883 0 2 -2.811200088803876 -16.77200044404296 -13.146375658934831 0 0 0
6539 0 2 -26.969976824521122 -18.904293261013848 -6.56358179613585 0 0 0
6560 0 2 -17.666277892207184 -26.95848235430526 -2.535219983618707 0 0 0
6515 0 2 -16.12282459632375 -19.696966028861183 -10.19606099513881 0 0 0
6524 0 2 -7.164252709886764 -20.511052677701386 -12.419032032541235 0 0 0
6606 0 2 -12.560422339666449 -26.490047055495065 -12.645975160057372 0 0 0
6612 0 2 -25.19649648092625 -19.310405377066523 -14.733928499750398 0 0 0
6567 0 2 -0.08468206201679493 -25.93157437780957 -9.824860603772494 0 0 0
6269 0 2 -18.704353941338848 -15.02027098980465 -13.380791220857176 0 0 0
6525 0 2 -0.5663654410831398 -24.257229844145336 8.149449246782435 0 0 0
6370 0 2 -5.780533998935549 -26.323077225452277 8.99284628703219 0 0 0
6529 0 2 -24.73068461217684 -21.89182832317555 1.722484339476948 0 0 0
6462 0 2 -11.736955408690061 -23.34796845667205 5.329956967313216 0 0 0
6542 0 2 -21.997071787202124 -16.67986261266386 8.47635733940577 0 0 0
6234 0 2 -11.279639763507511 -17.149872033498546 0.06685148199559318 0 0 0
5502 0 2 -5.310770319408962 -15.28968598209687 0.33485618980385995 0 0 0
6481 0 2 -21.873565710932322 -25.983639853558692 1.1517955767544783 0 0 0
6365 0 2 -7.8666849601934485 -23.91936796662664 12.76103907666263 0 0 0
6573 0 2 -20.52666814598684 -23.59105219515935 9.439404141913984 0 0 0
6384 0 2 -5.6603470544589 -21.175256214836846 7.489866974572241 0 0 0
6581 0 2 -16.00453015230141 -25.704470463523705 3.441968363054331 0 0 0
6580 0 2 -17.636855708670886 -20.04901826741505 10.97321353021488 0 0 0
6511 0 2 -6.396055638483747 -22.35440341716361 0.30091256293583085 0 0 0
9 1 1 -9.494660335626318 -11.953012926206641 -6.185633968376416 0 0 0
6 2 1 -10.765056350010376 -11.351889901355992 -5.963803021718493 0 0 0
4 3 1 -11.139964759662897 -10.298670209920786 -6.806028070322331 0 0 0
7 4 1 -10.237640307137177 -9.790343203398761 -7.739715864373286 0 0 0
15 5 1 -7.565552532272366 -12.4297858050946 -7.436715067594904 0 0 0
12 6 1 -8.781633958571259 -11.724164777129431 -7.35751030893834 0 0 0
10 7 1 -8.9845662120161 -10.421122220670062 -7.883084170614245 0 0 0
13 8 1 -7.762823233493138 -9.765821510945019 -8.133470388676763 0 0 0
21 9 1 -5.278127078873081 -12.389834567483494 -7.49609154624036 0 0 0
18 10 1 -6.455179384302239 -11.833417548706963 -7.992909055220872 0 0 0
17 11 1 -6.520310507208578 -10.42880411012148 -8.264535112165158 0 0 0
20 12 1 -5.309112959587064 -9.676916507167538 -7.992938919630627 0 0 0
24 14 1 -4.121886108684369 -11.701005153812027 -7.149696152836957 0 0 0
23 15 1 -4.187774555336748 -10.301844610169976 -7.351185046229056 0 0 0
8 41 1 -10.267449713869622 -8.380233358245352 -7.822064851422105 0 0 0
5 42 1 -11.360271139735502 -7.673130259296831 -7.250012662101846 0 0 0
66 43 1 -11.23581278808212 -6.334959385571418 -6.890558851332145 0 0 0
71 44 1 -10.166989489754904 -5.611832720554416 -7.410386320857988 0 0 0
14 45 1 -7.809729309779991 -8.426643127764594 -7.73276369210788 0 0 0
11 46 1 -9.010241061367244 -7.684872480750259 -7.864017079713219 0 0 0
76 47 1 -8.957246963244003 -6.331666410657511 -7.495574117690126 0 0 0
81 48 1 -7.823804916306446 -5.653169049101075 -7.846196047730966 0 0 0
19 49 1 -5.365502042202873 -8.342389559518518 -7.554224919296 0 0 0
16 50 1 -6.619798054017564 -7.7293810886641765 -7.411209739872386 0 0 0
90 51 1 -6.62866106974816 -6.292399301063931 -7.545903054212903 0 0 0
91 52 1 -5.457151733390709 -5.589703647076552 -7.808597685244657 0 0 0
22 54 1 -4.175533834885701 -7.5869984945580216 -7.608054953758899 0 0 0
98 55 1 -4.237332684038319 -6.198787586353044 -7.486447611069016 0 0 0
27 13 1 -2.898451840480502 -12.410105604433028 -7.090335541625031 0 0 0
25 16 1 -2.987257501085726 -9.627218308579824 -7.434947545945594 0 0 0
31 17 1 -0.5496685112153954 -12.329822527638909 -7.293489359912132 0 0 0
30 18 1 -1.7979716346255379 -11.765493744413526 -7.6514884963813 0 0 0
29 19 1 -1.8259334526212443 -10.338830578880172 -7.7831652368895226 0 0 0
32 20 1 -0.5698531422149883 -9.64382614175136 -7.706523182172512 0 0 0
26 53 1 -2.9660075800620267 -8.245349069846332 -7.47151428569256 0 0 0
101 56 1 -3.007936487057353 -5.530653270321539 -7.515544652537635 0 0 0
33 57 1 -0.6138268143237051 -8.245986760094633 -7.494248539457332 0 0 0
28 58 1 -1.7916318096240893 -7.561115937867976 -7.807361180663185 0 0 0
106 59 1 -1.803575167848245 -6.191971162596021 -7.956638075684557 0 0 0
111 60 1 -0.5871732324076709 -5.514383166381477 -7.846518047892506 0 0 0
75 81 1 -10.244084321002854 -4.176266633376399 -7.545846286055291 0 0 0
68 82 1 -11.260988773914166 -3.4348521723513996 -6.9361456433368165 0 0 0
70 83 1 -11.287730217313632 -2.0560231926627894 -6.897095432258427 0 0 0
73 84 1 -10.149975671416794 -1.3652827658813802 -7.331196896943297 0 0 0
82 85 1 -7.845881908193854 -4.251341220408718 -7.906599671702263 0 0 0
78 86 1 -9.007291523402301 -3.507852946051633 -7.769936423730245 0 0 0
79 87 1 -8.99463425104273 -2.10178003033769 -7.437502300646384 0 0 0
85 88 1 -7.817733003417894 -1.3850407883876537 -7.739690895769087 0 0 0
92 89 1 -5.443846775192939 -4.182436611461708 -7.924165850678834 0 0 0
87 90 1 -6.6705760209573794 -3.5097141890733496 -7.622704007043008 0 0 0
88 91 1 -6.63638563903425 -2.0816867245638426 -7.669999457599117 0 0 0
95 92 1 -5.417877915759129 -1.387904873062553 -7.361508163848655 0 0 0
97 94 1 -4.214640709200533 -3.4657773359432293 -7.849973386369435 0 0 0
99 95 1 -4.196532312682382 -2.0753573125704 -7.54483026366785 0 0 0
114 100 1 -0.6078634170413121 -1.354341736210754 -7.859332905635926 0 0 0
2 0 2 -13.604508257502905 -5.066460373589278 -8.778600143673476 0 0 0
3 0 2 -6.498731297049319 -7.436508001349422 -10.610617675729547 0 0 0
102 93 1 -3.0232980137489585 -4.110678074049704 -7.448582171645009 0 0 0
105 96 1 -3.006780901112772 -1.3455293779103046 -7.816166464663927 0 0 0
112 97 1 -0.6399517568055275 -4.116872364450656 -7.523774861962476 0 0 0
108 98 1 -1.8449165968308698 -3.4149568873149816 -7.772841427494029 0 0 0
109 99 1 -1.822365470575015 -2.0418392627787707 -7.95476033415363 0 0 0
611 0 2 -10.329450235642666 -6.384568129960145 -10.669477726203787 0 0 0
990 0 2 -8.32873117729329 -11.34802449454071 -11.020061546396276 0 0 0
602 0 2 -1.6417465511028397 -10.394216630970822 -4.5023000451476864 0 0 0
526 0 2 -1.5151408359335738 -6.305437288759182 -4.746316990736714 0 0 0
1591 0 2 -7.340746176962087 -3.0674969228874884 -10.912226204181863 0 0 0
576 0 2 -13.223253878451493 -9.468394132271046 -9.529881235858385 0 0 0
524 0 2 -3.844996076916594 -11.880135402377265 -10.399163745745433 0 0 0
921 0 2 -1.6020808086447016 -1.9151098920562526 -4.685977411408692 0 0 0
2914 0 2 -4.823868642955072 -11.537832665191045 -14.652443313881195 0 0 0
553 0 2 -6.533848680962823 -10.538408790278618 -4.930284155991038 0 0 0
906 0 2 -8.713682807285679 -4.389876904865201 -4.6874667083800166 0 0 0
850 0 2 -3.1631596658834793 -4.577604654378347 -10.653367427530684 0 0 0
698 0 2 -2.967555958209607 -8.463670051347428 -10.721261451715437 0 0 0
5261 0 2 -16.160349497702967 -3.8540079566337515 -13.600242630826767 0 0 0
724 0 2 -11.308070834666282 -12.95207538467445 -9.00146185675676 0 0 0
5082 0 2 -11.651994342299476 -12.19902635956852 -14.43666650080586 0 0 0
825 0 2 -13.238173920991148 -13.222155539179552 -5.39329798600974 0 0 0
3306 0 2 -2.4832246551245256 -2.207757885231654 -14.314771329908302 0 0 0
897 0 2 -4.976307958425534 -3.747330983044204 -4.655013515125792 0 0 0
1913 0 2 -2.309562960913263 -4.03730772793316 -0.40065330866148235 0 0 0
531 0 2 -7.422943514191967 -0.5591153097073677 -4.5149905687305605 0 0 0
981 0 2 -11.33073451733049 -2.3410144690247963 -10.26576303973983 0 0 0
999 0 2 -9.422851525451986 -8.550193642945034 -4.64842817689522 0 0 0
966 0 2 -11.729722740342725 -0.6260278702964023 -3.9002933472147454 0 0 0
6272 0 2 -23.758991215142085 -10.813642104869734 -6.720427595296885 0 0 0
1179 0 2 -13.912397505852185 -9.07247572946099 -5.689482511775104 0 0 0
1248 0 2 -4.856539197894973 -7.277159765463319 -4.425364132077739 0 0 0
2360 0 2 -13.425918314803429 -4.863750497631405 -4.917980260011593 0 0 0
1041 0 2 -14.195033291060199 -0.6454497424097484 -7.549215431903929 0 0 0
5359 0 2 -18.15993648192955 -2.8764586379320334 -4.484398850127955 0 0 0
2397 0 2 -9.489151190389014 -13.245362449020343 -2.81609884405808 0 0 0
1088 0 2 -4.008065518936927 -10.202943484287166 -0.6431780761305803 0 0 0
5456 0 2 -13.085034294215525 -9.834942506783076 -0.7564823414353756 0 0 0
6428 0 2 -17.605322938197173 -8.637945977026419 -7.936618016250619 0 0 0
782 0 2 -4.617068595774036 -14.603225577937952 -5.218876048131157 0 0 0
821 0 2 -4.6502143428673826 -0.18288807269809562 -10.400254218490756 0 0 0
6283 0 2 -19.59866797893838 -1.1756534874365512 -11.456514891661476 0 0 0
6323 0 2 -29.553254792276906 -4.564042017460477 -3.592394545291349 0 0 0
1842 0 2 -6.104513474124086 -14.910596760598178 -9.171693558560358 0 0 0
115 137 1 -0.5740226474626834 -0.01869281241644498 -7.409083061474477 0 0 0
269 241 1 -10.029377358637475 -10.922899850249733 6.867737079149933 0 0 0
266 242 1 -11.212781852558749 -10.227139275855826 6.642506036000736 0 0 0
265 243 1 -11.329399672876919 -8.940894735069982 7.257317680868484 0 0 0
267 244 1 -10.176395172447009 -8.322221297697153 7.721482742143871 0 0 0
274 245 1 -7.744921182914129 -11.072474163459711 7.513207136115924 0 0 0
271 246 1 -9.007779025789553 -10.447246654742521 7.638004171327282 0 0 0
270 247 1 -9.008434986387085 -9.064940417984808 7.990634947047462 0 0 0
272 248 1 -7.832170667961767 -8.2866715486463 7.945136701990228 0 0 0
279 249 1 -5.364800378947801 -10.986668317882915 7.587475452622036 0 0 0
276 250 1 -6.562185106385006 -10.350514547672692 7.760717452938826 0 0 0
275 251 1 -6.627023061657706 -8.90750652260013 7.5119747734058935 0 0 0
278 252 1 -5.40706853852415 -8.202149145018703 7.477772967377341 0 0 0
281 254 1 -4.147857244796031 -10.371601973238167 7.655554466926126 0 0 0
280 255 1 -4.227836795202846 -8.949989960943409 7.6977078084622725 0 0 0
268 281 1 -10.14039888437757 -6.951707299729572 7.365366979183399 0 0 0
317 282 1 -11.30319254643409 -6.239828659028262 7.216908268384741 0 0 0
318 283 1 -11.272223994182424 -4.898927540961834 7.591035177523818 0 0 0
273 285 1 -7.830229203046976 -6.9341002398481555 7.669383061811666 0 0 0
326 286 1 -8.99011752234976 -6.210232910787791 7.573893908574091 0 0 0
327 287 1 -8.982934280329602 -4.850456441617069 8.065601644922088 0 0 0
277 289 1 -5.383238725196664 -6.859880375868989 7.73809541813105 0 0 0
338 290 1 -6.645592249738665 -6.244144696056825 7.844935421866156 0 0 0
339 291 1 -6.703376690910332 -4.812845999139353 7.510512097863249 0 0 0
344 294 1 -4.179747715411302 -6.1098157758348295 7.60538646789684 0 0 0
346 295 1 -4.225518762433769 -4.741353222529834 7.351159997854373 0 0 0
284 253 1 -3.0104484266692544 -10.981759524416738 7.10521196260881 0 0 0
282 256 1 -3.0605917573441808 -8.215990947825201 7.266332795157386 0 0 0
287 257 1 -0.5191888477624965 -10.93617210612904 7.3204722457512865 0 0 0
286 258 1 -1.7421691711098568 -10.292538583060152 6.998815806296174 0 0 0
285 259 1 -1.8228889884529154 -8.920468504192058 7.386480399075525 0 0 0
288 260 1 -0.5936165528042715 -8.276429785763883 7.307304142839738 0 0 0
283 293 1 -3.0302973881267063 -6.783414506028461 7.144418187228646 0 0 0
289 297 1 -0.5504198564435323 -6.860807657480723 7.179220342465091 0 0 0
353 298 1 -1.7893511749014073 -6.126533712636525 7.063369348979823 0 0 0
354 299 1 -1.8479508116903027 -4.833308061486434 7.628710196636193 0 0 0
322 284 1 -10.216157894139219 -4.1735791179494885 8.17747168444942 0 0 0
331 288 1 -7.755687579011677 -4.1103518315220935 7.95944681234644 0 0 0
340 292 1 -5.473957663473635 -4.054254382060505 7.3260792023942525 0 0 0
325 321 1 -10.243302552143541 -2.7818706650501976 7.988561250135685 0 0 0
319 322 1 -11.267900806004807 -2.2056399809404654 7.253775780858587 0 0 0
321 323 1 -11.294599682564268 -0.8621909081314967 6.928081556305527 0 0 0
332 325 1 -7.788957334573955 -2.7444000370608994 7.620617792927171 0 0 0
328 326 1 -9.07202722861719 -2.1052684475417784 7.629157219278874 0 0 0
330 327 1 -9.039810383963857 -0.673441877649892 7.707769674573425 0 0 0
341 329 1 -5.415583897102897 -2.6959351891739596 7.710241132900544 0 0 0
335 330 1 -6.6073502902231445 -1.9734522888548296 7.784279615252284 0 0 0
337 331 1 -6.640133836751246 -0.6191882664622175 7.52833309887812 0 0 0
345 334 1 -4.169181635511783 -2.001772955967751 7.652272801035778 0 0 0
348 335 1 -4.229658023072001 -0.6164721986659631 7.612317664311774 0 0 0
349 296 1 -2.998653937153063 -4.076298660999054 7.531751461390959 0 0 0
358 300 1 -0.6099923614444187 -4.060193939658252 7.676590044082351 0 0 0
350 333 1 -3.0311046750141024 -2.6988987532833604 7.199719807601169 0 0 0
359 337 1 -0.5846450294027723 -2.6611770384517177 7.504557058810829 0 0 0
355 338 1 -1.8071557888448373 -2.034323727970319 7.228090649440631 0 0 0
357 339 1 -1.8206955617161895 -0.6613657290328407 7.476159096619222 0 0 0
264 0 2 -5.868482335319169 -6.035680923773853 4.644559526971175 0 0 0
601 0 2 -1.8197663072675587 -6.7697769882588705 10.268825927217268 0 0 0
604 0 2 -4.802033114516336 -9.709760850191975 4.497486795774721 0 0 0
608 0 2 -3.3234941084131027 -13.902652584859611 8.548215705583612 0 0 0
1276 0 2 -2.1294140246211883 -10.611406987320148 10.358818913178228 0 0 0
723 0 2 -9.591279039602595 -14.151469567765146 7.816252497007182 0 0 0
1605 0 2 -11.301696599937342 -0.27026720807737836 10.297985585216944 0 0 0
733 0 2 -6.023311777279425 -8.454413064874956 10.757802304042423 0 0 0
1144 0 2 -2.0762588739639734 -2.4499264858936685 10.45721324706272 0 0 0
677 0 2 -8.73147318245448 -8.678202263160973 4.757645348262093 0 0 0
1343 0 2 -6.725408773727522 -1.7357751877858014 0.05921533625793592 0 0 0
1607 0 2 -12.340809267700864 -7.576979773335561 4.298368286109629 0 0 0
849 0 2 -13.890258749248076 -3.5468748339457123 6.1905127198421 0 0 0
787 0 2 -4.889943396261311 -2.0862473791808767 4.482488594016934 0 0 0
679 0 2 -6.758301008543934 -5.89633864063497 14.543951875422657 0 0 0
1098 0 2 -9.197750121075037 -4.08798136801422 4.900914080739045 0 0 0
854 0 2 -7.011915203104805 -12.478645359810328 10.44144481735739 0 0 0
829 0 2 -5.14806236941059 -4.72194140086061 10.528801328610323 0 0 0
983 0 2 -14.014952309301044 -7.54908531516466 8.620628509411674 0 0 0
1182 0 2 -9.836144817708824 -6.802972576086945 10.684782209128038 0 0 0
960 0 2 -1.688586223662534 -4.114447095390556 4.367926086580768 0 0 0
876 0 2 -6.142761195446319 -13.478880742329133 5.616907178280085 0 0 0
1372 0 2 -13.009799217707407 -3.547778439553372 9.980444840533218 0 0 0
1229 0 2 -1.5878744212219207 -7.8799326444345414 4.087517264830191 0 0 0
1031 0 2 -8.3423322416758 -2.639838534625775 10.937173775791399 0 0 0
3287 0 2 -10.593263685710669 -12.613223593564848 3.8641133258022817 0 0 0
6559 0 2 -21.982820220764857 -13.422739304407415 11.714150393669811 0 0 0
2198 0 2 -7.588921220769599 -6.3785444993956 0.10999246592136469 0 0 0
5062 0 2 -12.813297882670447 -6.3867989719820795 14.744092118624092 0 0 -1
1716 0 2 -2.1618208386786795 -13.222857970374616 4.8165192596215425 0 0 0
748 0 2 -8.289747925003693 -0.6158040873120673 4.538966369672647 0 0 0
1746 0 2 -11.309925431017849 -10.672274316066156 10.167633280167486 0 0 0
3384 0 2 -13.900526576745584 -11.999265923123101 6.5844896591649675 0 0 0
6591 0 2 -23.806717970312 -5.157706279852879 10.03770596026907 0 0 0
5792 0 2 -12.612396856314222 -3.482048839367867 0.5297579369938278 0 0 0
642 0 2 -0.9850932672098994 -0.49333865838743896 4.210823885699546 0 0 0
6438 0 2 -19.405912439387333 -13.03849587068397 5.360866721179764 0 0 0
6397 0 2 -26.75122111205967 -4.174350500779709 1.6750503993724186 0 0 0
6253 0 2 -17.652689296801167 -7.304901868366022 4.500749772240104 0 0 0
5588 0 2 -11.180065923916066 -1.1808419849991234 14.570514689047808 0 0 -1
6441 0 2 -15.552603113170989 -13.979394422702834 10.656667072619253 0 0 0
6104 0 2 -16.760176391538973 -0.35365117072544483 4.049611384420331 0 0 0
6617 0 2 -19.60270983957859 -0.386391237337276 10.04694775810922 0 0 0
316 0 2 -5.378242404634978 -0.0011000056536703247 10.54470301964394 0 0 0
69 122 1 -11.303603829379862 0.7306816774264417 -7.182419965425084 0 0 0
67 123 1 -11.326244641755462 2.1023515682023812 -7.394112522979076 0 0 0
74 124 1 -10.18143047386896 2.799886682286439 -7.716020075247811 0 0 0
80 126 1 -8.876908237933332 0.7361385576429017 -7.314481813820316 0 0 0
77 127 1 -8.922866056788129 2.1560021576469284 -7.4980328200429165 0 0 0
83 128 1 -7.785354601372677 2.793042258217631 -8.10247988713921 0 0 0
89 130 1 -6.592290318374747 0.7350036325184311 -7.53910938566641 0 0 0
86 131 1 -6.546361602669043 2.0687117209426065 -8.053181690953108 0 0 0
93 132 1 -5.305572286049887 2.7404967670089424 -8.03049759672079 0 0 0
100 134 1 -4.22861860581662 0.7231832805659446 -7.275854780827655 0 0 0
96 135 1 -4.185730119871285 2.046188005105906 -7.732253148491471 0 0 0
175 161 1 -10.18269931359005 4.1948053941816426 -7.489111972842364 0 0 0
183 165 1 -7.827315367901934 4.222329842985477 -8.086551269355306 0 0 0
189 169 1 -5.2897945317011 4.142150262130863 -7.949631411146697 0 0 0
103 136 1 -2.9811606697500537 2.7222659553602533 -7.68566771223052 0 0 0
110 138 1 -1.7866055287517515 0.6654702475778336 -7.5973561056237635 0 0 0
107 139 1 -1.7881291503265433 2.054433022468413 -7.406223150190117 0 0 0
113 140 1 -0.6395145015479891 2.7590534204966706 -7.8381504350714035 0 0 0
198 173 1 -3.031574996496992 4.0406875721321525 -7.111136712599083 0 0 0
208 177 1 -0.6187547118686486 4.086219265915391 -7.362586834528349 0 0 0
171 162 1 -11.384818717268749 4.92359472233239 -7.688481383234121 0 0 0
170 163 1 -11.258531585764 6.266342024593844 -7.608110949865008 0 0 0
174 164 1 -10.152624727591299 7.007060173969408 -7.319711822469987 0 0 0
179 166 1 -8.962834070119193 4.902670468247427 -7.572043538092848 0 0 0
178 167 1 -8.9694494349907 6.2808626911210075 -7.636134405265159 0 0 0
182 168 1 -7.736455271074793 6.898140438451212 -7.574752326193329 0 0 0
186 170 1 -6.556502536424276 4.8808317623595565 -7.963471515770919 0 0 0
185 171 1 -6.5906993997503225 6.166281974016208 -7.3161138701917166 0 0 0
190 172 1 -5.409414867393473 6.848146435020827 -6.892020844624457 0 0 0
194 174 1 -4.225046847969006 4.806849790329398 -7.274092971298597 0 0 0
193 175 1 -4.209268237268019 6.224109893156214 -7.251856441019863 0 0 0
173 201 1 -10.187559676477456 8.405122346922077 -7.1574392968825 0 0 0
169 202 1 -11.262279468500394 9.112089981308397 -7.666534019157594 0 0 0
172 203 1 -11.209145780159947 10.348724664309804 -8.332686432814688 0 0 0
176 204 1 -9.92247112669247 10.961372336903787 -8.416039702363797 0 0 0
181 205 1 -7.743178214755557 8.296383419110562 -7.168393858563264 0 0 0
177 206 1 -8.929397608627959 9.074668633464725 -7.216377054014456 0 0 0
180 207 1 -8.830837622913517 10.355874853145767 -7.807128170174323 0 0 0
184 208 1 -7.60332149234623 10.692938294945616 -8.448194682637022 0 0 0
191 209 1 -5.380510795665606 8.28916092495256 -6.90871354083908 0 0 0
187 210 1 -6.547060376725112 8.996280808687791 -7.21667429022265 0 0 0
188 211 1 -6.472120456514635 10.001276190086367 -8.165461210321038 0 0 0
192 212 1 -5.336157115442582 10.832687645879908 -8.093214094378697 0 0 0
195 214 1 -4.166506059966447 8.897451324817188 -7.231773479576547 0 0 0
196 215 1 -4.196026037308662 10.291896160100116 -7.437252474143905 0 0 0
199 176 1 -2.9794035472084532 6.908999002368538 -7.204276612583774 0 0 0
203 178 1 -1.8080175683263664 4.777586259490731 -7.043698260796001 0 0 0
201 179 1 -1.786187191389042 6.203535242866832 -7.142967826955405 0 0 0
207 180 1 -0.6421996693007894 6.895887725703884 -7.480368598872977 0 0 0
197 213 1 -2.968814772258702 8.254910247727413 -6.885860398037052 0 0 0
200 216 1 -2.9717407363688015 10.914779835770242 -7.569717223291654 0 0 0
206 217 1 -0.6166848616862759 8.280115275053129 -7.150414208980468 0 0 0
202 218 1 -1.8022452115492005 9.014218458038044 -6.846981400430433 0 0 0
204 219 1 -1.795087119349237 10.372721696423868 -7.119734793885355 0 0 0
205 220 1 -0.6057321526337863 11.018137954755968 -7.446199128489356 0 0 0
168 0 2 -2.3937690523482495 4.940703491602433 -10.187581145841325 0 0 0
167 0 2 -5.348538948160576 7.487880584139756 -10.120001735391506 0 0 0
257 0 2 -6.57963722430318 3.5211157713855354 -5.080003167260722 0 0 0
528 0 2 -6.873705227707895 11.290083176879797 -5.03934115541188 0 0 0
828 0 2 -9.205018235499839 8.352046748564133 -10.412186672292796 0 0 0
1238 0 2 -14.191399176119873 11.334090726206478 -7.228120764080911 0 0 0
545 0 2 -13.033878584230338 7.749307686504225 -5.3582713328743115 0 0 0
791 0 2 -8.290332767068307 6.910741768393877 -4.374326380927106 0 0 0
1010 0 2 -10.03174456954003 3.084490061407653 -4.384044815466137 0 0 0
693 0 2 -1.9726066064802354 13.304499635249309 -5.454694127880219 0 0 0
696 0 2 -1.7125331039342002 8.834416797136056 -10.154387362050182 0 0 0
6423 0 2 -17.197953280953374 6.279444149821458 -5.03311931078691 0 0 0
84 125 1 -7.7685834437359755 0.010550918206100157 -7.714581992273268 0 0 0
695 0 2 -2.8671167724635773 5.940171254989927 -4.085099921347249 0 0 0
1406 0 2 -9.696540302968081 4.782563271336059 -10.734956742973699 0 0 0
839 0 2 -13.193189196833176 2.995151186599721 -9.961953581535125 0 0 0
72 121 1 -10.105295294584304 0.03434378229486208 -7.122629516143187 0 0 0
1263 0 2 -3.1252880788622206 1.89074023218572 -4.4519414185934485 0 0 0
1576 0 2 -13.945871113975361 3.6514309694854306 -6.283376348496818 0 0 0
894 0 2 -3.762718847461223 9.696716482168926 -3.99346595445635 0 0 0
1188 0 2 -10.73117692652323 11.186152123302058 -4.991784755733008 0 0 0
957 0 2 -8.193087255389482 13.706448996195599 -8.029269631751278 0 0 0
104 133 1 -2.987482891619033 0.004138654957321926 -7.396787318189161 0 0 0
1083 0 2 -4.1268396715802815 13.864854956702414 -8.580430249412661 0 0 0
1127 0 2 -6.041803091438813 3.3078455379693357 -11.260260997807949 0 0 0
2117 0 2 -6.6858774485775045 8.264984609882973 -0.19054869959459572 0 0 0
1241 0 2 -5.986686985946096 11.179816084275611 -11.476682617755426 0 0 0
3712 0 2 -4.547468863722819 7.1827287338022385 -14.434010396262718 0 0 1
1788 0 2 -13.54255420590254 7.557820569625033 -9.507474812817874 0 0 0
1630 0 2 -0.6346996412553652 0.5563020495310699 -10.677975086967333 0 0 0
678 0 2 -9.48737873708219 0.8586619558629724 -10.580685760646244 0 0 0
706 0 2 -7.1616776834631795 3.2775230526828167 -0.27768683475177114 0 0 0
6545 0 2 -13.940335704111082 10.85533672065431 -14.73597177883226 0 0 0
2340 0 2 -11.736728925622641 13.216750085878045 -10.296496217472807 0 0 0
1891 0 2 -2.424969132585551 0.7435058721942616 -0.1314068226448293 0 0 0
5051 0 2 -12.685029811667725 3.546426555844491 -0.32022511705014794 0 0 0
6280 0 2 -14.229659216195113 5.929442718498966 -14.56054755767337 0 0 1
4832 0 2 -11.316185697692053 9.723468397102613 -0.29195060544537244 0 0 0
6561 0 2 -22.69990435851791 9.990803275785883 -11.413364059833096 0 0 0
94 129 1 -5.438786666334749 0.05614749459100069 -7.256759449587305 0 0 0
1061 0 2 -6.678783715665825 0.35503939895029407 -14.986191774503657 0 0 0
5614 0 2 -4.341028691268665 13.927367950496519 -0.3781594825148775 0 0 0
6611 0 2 -28.75830603418174 1.1216804549995971 -11.45499761717161 0 0 0
315 0 2 -12.17404534376312 4.336367799546532 9.905719818013793 0 0 0
457 460 1 -0.6166548109313195 11.963986319983412 6.609439233436652 0 0 0
410 0 2 -8.582266046579692 3.3140273841089134 4.34411194490583 0 0 0
324 361 1 -10.31166169229774 1.4126350076528997 7.449753281622588 0 0 0
320 362 1 -11.42228811060363 2.2149542631919825 7.114843313853966 0 0 0
415 363 1 -11.241917808004382 3.5429434093352947 6.819936933227407 0 0 0
420 364 1 -10.161616069570785 4.315404712173768 7.305940437695728 0 0 0
334 365 1 -7.816395042307807 1.4332284188405933 7.428460921514873 0 0 0
329 366 1 -9.066822995602381 2.1215323000297994 7.392788894367877 0 0 0
425 367 1 -8.992930035936965 3.5405205536919535 7.603107238040314 0 0 0
430 368 1 -7.76313749859499 4.235342628822195 7.4619918179485705 0 0 0
343 369 1 -5.429571757366039 1.4207618032087126 7.552630418990892 0 0 0
336 370 1 -6.6016758738432 2.134649023367887 7.56702276487032 0 0 0
432 371 1 -6.613991586729879 3.5005383276635182 7.197985575301541 0 0 0
438 372 1 -5.412008854273916 4.234919983805592 7.0722957451427755 0 0 0
347 374 1 -4.24532602183176 2.14253543153054 7.601169518838182 0 0 0
443 375 1 -4.221172900615379 3.4970244629932346 7.2545524354802735 0 0 0
6585 0 2 -29.73686676113247 4.968736059759816 2.074197703518726 0 0 0
411 0 2 -2.3864368017441797 4.757696237329216 4.626527254611245 0 0 0
352 373 1 -3.0454757291489725 1.420468739067957 7.2933373250645275 0 0 0
449 376 1 -3.033553361176067 4.114956935746543 7.783122422093628 0 0 0
360 377 1 -0.5951903778285744 1.431169036470673 7.215917422585099 0 0 0
356 378 1 -1.8136716218824551 2.105065632700525 7.159005177499311 0 0 0
456 379 1 -1.8245227903493346 3.443856587351207 7.662645005896208 0 0 0
461 380 1 -0.636759474326404 4.168056885425755 7.481453483827402 0 0 0
419 401 1 -10.157672748556253 5.705715788913878 7.374547192454857 0 0 0
414 402 1 -11.326460317346704 6.416592002397453 7.375058330202468 0 0 0
413 403 1 -11.370624010350225 7.784267274379012 7.3109151213888435 0 0 0
418 404 1 -10.129890064069961 8.409313822699449 7.475181504466472 0 0 0
429 405 1 -7.742351433139374 5.591690047075628 7.079766592795165 0 0 0
424 406 1 -8.945838633574278 6.324545835913692 7.0889185343447645 0 0 0
423 407 1 -8.989224011249005 7.737548481696976 6.985447427576067 0 0 0
428 408 1 -7.786590440233019 8.404803203216133 7.048146502723375 0 0 0
437 409 1 -5.369724737284273 5.633039131953905 7.171119809857988 0 0 0
434 410 1 -6.561088893292053 6.29021662583487 7.307886308178323 0 0 0
433 411 1 -6.576722386178298 7.689677287678136 7.233252744713414 0 0 0
439 412 1 -5.446279311058553 8.28543006594641 7.888311342830808 0 0 0
444 414 1 -4.1559357444125276 6.250287726017169 7.389227675585564 0 0 0
442 415 1 -4.1874775359812775 7.639675733745475 7.711934815382683 0 0 0
417 441 1 -10.220961485836318 9.780251312454043 7.500864879274593 0 0 0
412 442 1 -11.397095084085807 10.502300281173621 7.721592961603712 0 0 0
416 443 1 -11.369725651575331 11.847554723397144 7.428621838622201 0 0 0
421 444 1 -10.152646992314716 12.480852709764864 7.2657408697555965 0 0 0
427 445 1 -7.774524139958387 9.774525786610464 7.525490010139959 0 0 0
422 446 1 -9.016464193170624 10.394139623771471 7.844791606559078 0 0 0
426 447 1 -9.02058473322969 11.784678853073755 7.648873237827226 0 0 0
431 448 1 -7.817979580780324 12.32424649166423 7.177902613832568 0 0 0
440 449 1 -5.454439980871911 9.650645831063905 8.141782775593445 0 0 0
435 450 1 -6.603469742943012 10.395200706329705 7.85119835365756 0 0 0
436 451 1 -6.568100265909049 11.66938730532626 7.318293316203351 0 0 0
441 452 1 -5.391246329832284 12.292207519273457 7.131884191608265 0 0 0
445 454 1 -4.226297318441999 10.381230368987335 8.136042116897187 0 0 0
446 455 1 -4.206228846491438 11.716935114800124 7.5852201957540455 0 0 0
448 413 1 -3.042418191356975 5.526692047969902 7.907026218760696 0 0 0
450 416 1 -3.01461796163518 8.302928519548074 8.194522946161293 0 0 0
460 417 1 -0.6385559298299643 5.5493257203811295 7.454786017878944 0 0 0
454 418 1 -1.8652709594263437 6.226174000145798 7.694992928420112 0 0 0
452 419 1 -1.8389416977177526 7.590451646661179 8.182114155025474 0 0 0
459 420 1 -0.6520661871778235 8.28476552158941 8.143289336108058 0 0 0
447 453 1 -3.0164134495344923 9.683966123241273 8.201493655250825 0 0 0
451 456 1 -3.077503929207011 12.063976624273565 6.77993524676425 0 0 0
458 457 1 -0.664655144992966 9.610200027270633 7.785598049897624 0 0 0
453 458 1 -1.8295238576946224 10.30888696149058 7.812572240051281 0 0 0
455 459 1 -1.8846214097030807 11.388297947067871 6.874878464508393 0 0 0
1646 0 2 -14.5050545859649 12.263038642951367 8.13320200735199 0 0 0
250 0 2 -5.185831341182881 4.431129609689628 10.268583427605074 0 0 -1
249 0 2 -8.400986237531663 7.292389643483835 10.198547890693689 0 0 -1
1709 0 2 -0.8756119151876233 10.17780783884857 0.3065053843941134 0 0 0
2578 0 2 -1.929030523025869 11.085905991495975 14.529363008874482 0 0 -1
512 0 2 -5.15870467444033 9.88132552914622 4.9087418608760895 0 0 0
3251 0 2 -11.820582050939754 14.346234756638715 5.134546787256861 0 0 0
920 0 2 -1.7486944756932967 1.4044185146749049 10.372064885031385 0 0 0
534 0 2 -13.185918583362088 8.612009733118843 9.880164286336383 0 0 0
851 0 2 -6.127155516173967 6.150944406466683 4.0732615809773565 0 0 0
614 0 2 -2.018471397037401 8.366544527676822 5.026052340339877 0 0 0
1100 0 2 -4.462978394073291 8.020952458134946 11.085102491159 0 0 0
887 0 2 -6.158919050277914 12.44334440802987 10.458538061667065 0 0 0
1026 0 2 -8.515309633351983 2.537049307030781 10.648561841661909 0 0 0
685 0 2 -9.160554135896074 10.42731423984597 4.486847835607836 0 0 0
806 0 2 -14.081878189646037 0.6621894904921393 7.977479283505393 0 0 0
1937 0 2 -1.914196444646222 2.7647682253989543 14.932349041243647 0 0 -1