LAMMPS data file via write_data, version 27 Jun 2024, timestep = 150000, units = real

110 atoms
2 atom types
80 bonds
1 bond types
132 angles
1 angle types
218 dihedrals
1 dihedral types
36 impropers
1 improper types

-15 15 xlo xhi
-15 15 ylo yhi
-15 15 zlo zhi

Masses

1 12.0107
2 2.016

Bond Coeffs # harmonic

1 469 1.4

Angle Coeffs # harmonic

1 63 120

Dihedral Coeffs # opls

1 0 7.25 0 0

Improper Coeffs # harmonic

1 5 180

Atoms # molecular

9 1 1 -3.2129237482930852 -4.06403298860282 -7.4170352166258064 0 0 0
16 5 1 -0.726263682695626 -4.138669471832518 -7.5229331939243425 0 0 0
21 9 1 1.829837887994158 -4.230639781431084 -7.509653441826777 0 0 0
28 13 1 4.2143378033272265 -4.318503716074147 -7.413309470704373 0 0 0
6 2 1 -4.410445983753701 -3.409875112036043 -7.558206474705487 0 0 0
4 3 1 -4.339153133521063 -2.0069597836232367 -7.302319186740718 0 0 0
7 4 1 -3.081559928341971 -1.3572309836641014 -7.245542023008364 0 0 0
12 6 1 -1.9608367484742835 -3.445278771050746 -7.207226973896548 0 0 0
11 7 1 -1.914852148658456 -2.1130769885211684 -7.474174908072446 0 0 0
14 8 1 -0.6573699611709928 -1.4176610752502392 -7.494180987863808 0 0 0
20 10 1 0.581238528546911 -3.507165866114713 -7.6609920644907845 0 0 0
17 11 1 0.5561777967479241 -2.1506480319900567 -7.276174394446915 0 0 0
23 12 1 1.7933944581084222 -1.4478367272554618 -7.389156993128968 0 0 0
25 14 1 3.0338348086388716 -3.533779606366512 -7.565844049918283 0 0 0
26 15 1 2.979437089281015 -2.173388205311203 -7.214616965303438 0 0 0
30 16 1 4.160071159479893 -1.4814054304841116 -7.550660143247347 0 0 0
10475 0 2 -8.521940540481344 -13.620157892832365 -9.572675956626703 0 0 0
29 29 1 4.17346894113433 -0.09394832276154111 -7.655449302956374 0 0 0
10445 0 2 0.3181404018430643 -7.471552693054113 -12.160194940367978 0 0 0
22 25 1 1.7685447141091724 -0.07871663343330398 -7.1897131812521815 0 0 0
10496 0 2 -14.872130034169412 -10.991776483706872 -14.081105983839736 0 0 0
10479 0 2 8.48669420002424 -14.017395908604907 -8.977513108939183 0 0 0
10515 0 2 8.411636218888482 -10.08811286592824 -6.3244219405434 0 0 0
10501 0 2 -14.23003814778391 -4.295885155388092 -12.832667014272738 0 0 0
10511 0 2 -1.2711563940486794 -1.502546827542157 -11.180705462871947 0 0 0
10514 0 2 -6.597105671154415 -3.8356243125214307 -3.7320628243828846 0 0 0
10516 0 2 4.1002783970108405 -13.073044543666919 3.432057452047246 0 0 0
10498 0 2 -10.212834950960877 -12.909600232341509 -3.6595381601594097 0 0 0
10485 0 2 -7.061923529038845 -0.37614284076793364 0.2722549338027018 0 0 0
10492 0 2 7.294682975308718 -0.6457890886439233 3.4073033294091353 0 0 0
10509 0 2 12.655032839749817 -13.227462672529082 -2.700528897174054 0 0 0
10507 0 2 1.2007139395079063 -10.582607596207504 0.13584618634278034 0 0 0
41 34 1 -4.223410246069687 -2.053698016353369 7.780243385538459 0 0 0
40 35 1 -4.196487658416116 -0.6949328098233118 7.574999673210628 0 0 0
44 33 1 -2.9896443953449285 -2.779936998046253 7.564881320253769 0 0 0
50 37 1 -0.5535790034139407 -2.7777749997308088 7.441316895333468 0 0 0
47 38 1 -1.7568760665865242 -2.111225519060008 7.313473798724298 0 0 0
46 39 1 -1.8328428265062617 -0.7085654849464352 7.496863145571683 0 0 0
54 41 1 1.834848322487691 -2.77691979323976 7.60996750151428 0 0 0
53 42 1 0.6158891838784399 -2.0572627699371107 7.679539994517474 0 0 0
52 43 1 0.6516592511102713 -0.7077820365228029 7.35164702859373 0 0 0
57 46 1 3.0827106781219853 -2.115953600370773 7.665943525676032 0 0 0
59 47 1 3.0486205871217957 -0.7718763308166547 7.267713641432555 0 0 0
60 45 1 4.332169619039743 -2.754944216181699 7.30975212853392 0 0 0
10518 0 2 -9.79930559999292 -0.14697404702014913 10.070239496873626 0 0 0
10517 0 2 -6.38322636212856 -10.920158952877747 8.006337305129886 0 0 0
62 48 1 4.2610422221748365 -0.045943202829964815 7.373818081146106 0 0 0
49 40 1 -0.593011065533609 -0.032006273794676486 7.277887803878299 0 0 0
10468 0 2 13.042013467233463 -0.782079497117528 7.60644813492404 0 0 0
10500 0 2 -1.2364372547632663 -3.326701918034683 10.707194456915863 0 0 0
10487 0 2 8.392630505236703 -8.402812532629174 8.624785834247485 0 0 0
10449 0 2 0.5206218433373934 -9.00382024618041 9.841243874014268 0 0 0
55 44 1 1.8542520827669415 -0.014068280797740003 7.378428465839437 0 0 0
3 18 1 -4.2628416003515985 0.7325302523985232 -7.377377111296126 0 0 0
5 19 1 -4.244819376514323 2.1498606569380416 -7.31869090218913 0 0 0
31 20 1 -3.0296632690141614 2.870029341521466 -7.487801712743994 0 0 0
10 22 1 -1.8658144882574348 0.6964738886980246 -7.45614919197479 0 0 0
13 23 1 -1.865357260698295 2.1063764438138497 -7.631744616223692 0 0 0
32 24 1 -0.6140374457947558 2.7864485202575433 -7.469094431671232 0 0 0
18 26 1 0.6117417046133761 0.6871675436020661 -7.523175508966518 0 0 0
19 27 1 0.5705049403489736 2.0442316672499015 -7.254580079940167 0 0 0
33 28 1 1.8090539136064558 2.71182503111739 -7.410914440558458 0 0 0
27 30 1 2.9916379500041734 0.6097749511790255 -7.346367919599886 0 0 0
24 31 1 3.007342070419802 2.0120127380788144 -7.282997609807196 0 0 0
35 32 1 4.055315891580722 2.586233768399803 -7.965606638511476 0 0 0
10359 0 2 -5.280049793125195 5.2594078883136675 -7.83153184538718 0 0 0
10506 0 2 2.4673979653792455 7.081211653770648 -11.053312626528472 0 0 0
8 17 1 -3.0421020469040885 0.005538366721888829 -7.596112824749807 0 0 0
10444 0 2 0.18657524412839904 6.563293697164357 -6.17036389212713 0 0 0
10453 0 2 -13.569727137298319 10.706855776461008 -10.032500083326184 0 0 0
10513 0 2 5.411046806131669 12.491209993371308 -10.237668643391846 0 0 0
15 21 1 -0.6602712433882528 0.018600471076217033 -7.4056745336496315 0 0 0
10504 0 2 -3.2177419480348957 6.505283449776959 -13.581348704390694 0 0 0
10510 0 2 -14.304019925973181 0.5877950208412802 -11.468356463035079 0 0 0
10508 0 2 11.149215251371025 10.05354797599283 -12.482317442300202 0 0 0
10520 0 2 8.550867635923462 4.022676835662867 -11.948837033990896 0 0 0
10415 0 2 -0.053605389117732 0.1225126796124874 3.91446693488387 0 0 0
10309 0 2 2.796972323597505 1.302768740565803 -4.698436107611943 0 0 0
10503 0 2 -3.4729169826943314 5.628861110921401 -0.8406967007877713 0 0 0
10512 0 2 11.275211538867614 7.9658663032771235 4.695209102706582 0 0 0
10441 0 2 13.275744028322364 1.6614221802899722 0.5695159546741654 0 0 0
10375 0 2 8.671732808400666 6.516835610082891 -0.5970412855672701 0 0 0
10447 0 2 4.369105284897143 5.405849108609639 3.747325577643568 0 0 0
10493 0 2 -14.526426290816433 13.3969420167078 0.843595760601464 0 0 0
10481 0 2 -11.00184467683537 8.513746629333365 -3.639730041256833 0 0 0
39 50 1 -4.192863773829291 2.2134366595196866 7.447466115939967 0 0 0
65 51 1 -4.273564712894387 3.621171059217856 7.466021736457256 0 0 0
68 56 1 -0.5986534692560422 4.134303093025867 7.648351446519475 0 0 0
73 64 1 4.165938377148229 4.278141374733245 7.490729129320962 0 0 0
70 60 1 1.813995752138229 4.16582745519493 7.493052774598586 0 0 0
43 49 1 -3.0171605628065468 1.46100135483562 7.590868475304468 0 0 0
48 53 1 -0.577830103207057 1.3575616905480017 7.474833487570695 0 0 0
45 54 1 -1.7772777119366872 2.100508452358542 7.401413448378579 0 0 0
67 55 1 -1.7971111610144352 3.4144416653533534 7.7769826575957435 0 0 0
56 57 1 1.834426051834846 1.3616315998080266 7.086820859052774 0 0 0
51 58 1 0.5857075415353294 2.1046796794376426 7.132871777409912 0 0 0
69 59 1 0.5942507893246265 3.448543714017522 7.51582804724983 0 0 0
58 62 1 3.0641240261638605 2.108502185439454 7.084667690867315 0 0 0
72 63 1 3.0149560358974576 3.518476765748654 7.2460391723998505 0 0 0
66 52 1 -2.998844344262925 4.187818788262389 7.6422865451757325 0 0 0
61 61 1 4.207840419160047 1.3721089755132871 7.297322859041309 0 0 0
10476 0 2 -10.985272120643835 2.791180048558076 5.546264506477395 0 0 0
10432 0 2 10.371569909479234 4.079055648098785 6.846525214503973 0 0 0
10362 0 2 -14.010913358391848 9.893742301783785 13.28195397200939 0 0 0
10452 0 2 14.792231541037816 3.5985706055107634 11.904409572463132 -1 0 0
10473 0 2 -4.732318968931772 11.527868420255562 14.893345235229868 0 0 0
10463 0 2 -1.8727775381944476 8.937750499052388 8.389352032001481 0 0 0
42 36 1 -3.0446584551445888 0.03918420415765432 7.2576786126493 0 0 0
10521 0 2 -14.102888527231615 14.204399009266329 9.089323158877718 0 0 0
10499 0 2 6.680938142067803 7.726133498006941 8.024513076472317 0 0 0

Velocities

9 -0.004025093214650135 -0.00547516229661677 -0.0076681648115844185
16 0.002536057096057664 -0.001391577552631965 0.005807834334952322
21 -0.004282484855163445 -0.0006608212740035853 0.0008404748355439832
28 -0.0025826616180045572 -0.006993814644081262 0.0015857248115088588
6 0.0009443477841808376 -0.0008289267807266059 0.0021755383697484925
4 -0.002986652853892803 0.007518920225685355 -0.006792528871847664
7 0.008386382513782313 -0.001359541751129274 0.005141245022071667
12 0.001743250459366136 0.006542404805728196 0.010186910776323919
11 0.007771174523765008 -0.004872678564221976 -0.007424927662464063
14 -0.004834643204246324 0.0008175077139101241 -0.0033680241585447505
20 -0.014140157368217256 0.00046225464052168576 -0.002156879872353977
17 0.003303084032377655 0.0011634365025954667 0.0005797504606431447
23 -0.0010879690376808975 0.009781450546305684 -0.004702986829970045
25 -0.005275004103177518 0.003304933280731801 0.0037781355659402952
26 -0.004060946008756895 0.0038257331726352936 5.436579905106977e-05
30 0.00018100433819047778 -0.005527448576597201 0.01261465309497099
10475 0.0070517080160808964 -0.0030811764122630203 -0.016452632068199358
29 0.0009108838116955931 0.0011125203329679122 -0.009464831469787566
10445 -0.004057032225307214 -0.0009782990978709234 -0.003024260316204787
22 -0.0003579451623155932 0.0035703833597107017 -0.004237480230630931
10496 -0.006017376901921092 -0.0008710168380362122 -0.015313198810401532
10479 -0.01824364411846712 0.0024989863261823076 -0.002101290841317339
10515 0.01552503510716936 0.007042102790281853 -0.026517055646763505
10501 -0.007225095154604798 -0.012012931260435174 0.012216913945715063
10511 -0.008396043533430484 0.004077010450389227 0.009158505853090297
10514 0.015383968402683138 0.0041700801101323725 0.006356850219023092
10516 0.00852460437466466 -0.0037091591446249583 0.020896277476636516
10498 0.0009777221791340222 0.0014569927347943862 -0.006022083191163966
10485 -0.006765336115130081 0.007620285681424999 -0.020694314320931082
10492 0.02884045953760138 0.020669393169423567 0.0025053736042219277
10509 -0.0121474975110942 -0.0077035010975257095 0.0017348984367520622
10507 -0.011337458777918785 0.013322113606484283 0.0070023964144396034
41 0.005314505879165674 0.002459457894876115 0.0006968727291850098
40 0.0038701091909648594 0.0053058622236779734 0.007041302897564027
44 -0.01195411680537213 -0.00022527885916639963 -0.0061451285832772136
50 0.00012775582153160404 0.0006371633584351691 0.0027605216353361064
47 -0.0007091288083634783 0.002502824970748738 -0.0003833949316955673
46 0.004186074319974167 -0.0039729252140310615 -0.0025682857356339292
54 -0.013623376627176642 -0.007644099503494177 0.00028910643196965684
53 -0.0031328524917747973 0.00044611339035411865 0.0018112323468933455
52 -0.0004817734493130068 -0.006775048589863721 -0.0038860449009243776
57 -0.0028641817037433053 -0.0008005970031828337 -0.001750538074409458
59 0.0022725827072744933 -0.002698953509184201 0.00487291996255976
60 0.0022512013032003064 -0.00235433455019545 0.005869021458129067
10518 0.0023212487390208737 0.008055911659126514 0.01180001476714858
10517 0.0073635548033869295 -0.0034600296512097735 -0.013785504177554439
62 -0.002250512261168932 0.005436335219943131 -0.008792801769526076
49 0.00042535676534139974 0.0073034334605623545 0.005078829859723059
10468 -0.002977073191654584 -0.015213305200640242 0.025963194466333352
10500 -0.002244509925248525 -0.011949021733043562 0.008471870740038493
10487 -0.0024490614512897545 -0.007840493563226584 -0.0032483261919309505
10449 0.008383300728719897 -0.003169140131513549 0.009295766867860034
55 0.004557855332773311 -0.004454132234010122 0.00907223998514359
3 0.007003690257566135 -0.002083619792186297 0.007437341583353567
5 -0.001476037771783243 -2.132455668030554e-05 0.0030371129649385533
31 0.0011755934038006808 -0.002362300922493153 -0.0041753651659470585
10 0.0034219566848778683 -0.0027806380542485065 -0.0015329382874395966
13 -0.0030226820641618647 -0.0033264364498704906 -0.0028863622129406455
32 -0.004600031319390509 0.00584474257083678 0.004460061982741613
18 0.0026823032010865992 -0.004038055876802882 -0.004096242272777794
19 -0.0003087032713596398 -4.179807303057113e-05 -0.000373974538511095
33 -0.005450108054559066 -0.009740812379680578 -0.0001885385219110166
27 0.0034382598669510933 0.001520843553757632 -0.002415588429294017
24 0.005088710166326804 0.003023839834601489 -0.0017085426635233371
35 -0.010415616549412981 0.004964508409744356 0.008192428979596536
10359 0.010026395245773501 -0.0007481243231085551 -0.007121470436069803
10506 -0.013971846573516238 -0.004398418164627762 0.0018350214642084684
8 -0.0029735303948498814 -0.004706407716665314 0.004575335990697773
10444 0.008724268891230225 -0.01456623803784701 0.004690206506794922
10453 -0.02156039911453277 -0.005495457123909822 -0.012419453419347477
10513 0.004093466928538957 -0.006947091301709651 0.009648057512284189
15 0.010769858604037747 -0.0013514412007322855 0.006405001247638754
10504 0.004293687295029599 0.00590604522886045 -0.0037043986387620227
10510 0.01611227118735879 0.00037893227994742425 0.01307749021651039
10508 -0.004311525337402115 -0.009997231095141963 -0.003570505962533107
10520 -0.009007054079130057 -0.007177678622230765 -0.010080480168433147
10415 -0.004975028735157713 0.0004062584594187095 -0.008994844801483262
10309 -0.0016716340141844552 -0.005346263327313749 -0.01808916635356763
10503 0.017968710083405313 0.014229981507278557 -0.00016031600021841313
10512 -0.004360921569685483 0.008793361698851775 0.004422218462212208
10441 -0.02567991859050798 0.003168153566332752 -0.004171974842551356
10375 -0.012688636213784237 0.002545585391546528 0.007888962217103293
10447 0.015934036572175358 0.021912959622458223 -0.01993524053773218
10493 0.017792762336386148 0.020818644259729433 0.004164560081950659
10481 0.005446178772419483 -0.005987974020678212 0.010584855425093343
39 0.0014273961810488138 -0.007008043010836762 0.0007864916510773056
65 0.0027291326286076278 0.00018467367111138082 0.0006411733416825412
68 -0.0069661933336781995 0.0010323361108328342 0.0084820214812211
73 -0.005378776928311972 -0.002003632336707838 0.0009294800898202879
70 0.0021605221542780263 -0.006745479718218318 -0.002767861086247316
43 0.004156215378163731 -0.0018285070067766169 0.00418666985920883
48 0.0003207449418020867 -0.0009726761191047652 -0.0029151605156261503
45 -0.0008566538382262646 -0.0006310101323320204 0.007339654499700237
67 -0.00673809396085256 -0.001095238128597854 -0.011115340577102019
56 5.6300178626641825e-05 0.004337586371247576 0.00034321320812858894
51 -0.0016850522384571417 0.003837554261965804 0.00229043106556274
69 -0.003671030282077557 0.0027479762155671805 -0.000327318896751481
58 -0.0008977089102716471 0.002368405746499162 -0.0007401666699397187
72 -0.0004581097283967747 0.007554020833239892 0.001877500751554412
66 0.002982274348578358 0.0029186149752380036 -0.003990781137642557
61 0.0111432195654352 0.005688556999564021 0.0006294506174448686
10476 0.007503130546198169 -0.0037399129251398113 -0.014938034477911194
10432 0.02691382506444779 -0.01771311541127003 -0.0047005594376199845
10362 -0.019911366745984326 0.008481703143110813 -0.006959056026050207
10452 -0.011577533716541669 0.01067504710835236 0.0020867808959680093
10473 -0.0043826263825346235 0.0010473478370257741 0.02673893523976771
10463 0.016591932643865936 -0.014763910885538158 0.007735748121165651
42 0.0031576325161749557 0.004479293561196675 -0.006584933478862919
10521 0.011272104277591967 0.010083443301269273 -0.005612576802655382
10499 0.010959170592137416 0.024116975810342008 0.000535127180644255

Bonds

1 1 9 6
2 1 9 12
3 1 16 12
4 1 16 20
5 1 21 25
6 1 21 20
7 1 28 25
8 1 6 4
9 1 4 7
10 1 7 11
11 1 7 8
12 1 12 11
13 1 11 14
14 1 14 17
15 1 14 15
16 1 20 17
17 1 17 23
18 1 23 26
19 1 23 22
20 1 25 26
21 1 26 30
22 1 30 29
23 1 29 27
24 1 22 27
25 1 22 18
26 1 41 40
27 1 40 42
28 1 44 41
29 1 44 47
30 1 50 47
31 1 50 53
32 1 47 46
33 1 46 49
34 1 54 57
35 1 54 53
36 1 53 52
37 1 52 55
38 1 57 59
39 1 59 62
40 1 60 57
41 1 62 61
42 1 49 48
43 1 49 52
44 1 55 56
45 1 55 59
46 1 3 5
47 1 5 31
48 1 31 13
49 1 10 13
50 1 13 32
51 1 32 19
52 1 18 19
53 1 19 33
54 1 33 24
55 1 27 24
56 1 24 35
57 1 8 3
58 1 8 10
59 1 15 10
60 1 15 18
61 1 39 65
62 1 65 66
63 1 68 69
64 1 70 72
65 1 43 39
66 1 43 45
67 1 48 45
68 1 48 51
69 1 45 67
70 1 67 68
71 1 56 58
72 1 56 51
73 1 51 69
74 1 69 70
75 1 58 72
76 1 72 73
77 1 66 67
78 1 61 58
79 1 42 43
80 1 42 46

Angles

1 1 6 9 12
2 1 12 16 20
3 1 20 21 25
4 1 9 6 4
5 1 6 4 7
6 1 4 7 11
7 1 4 7 8
8 1 11 7 8
9 1 9 12 16
10 1 9 12 11
11 1 16 12 11
12 1 7 11 12
13 1 7 11 14
14 1 12 11 14
15 1 11 14 17
16 1 11 14 15
17 1 17 14 15
18 1 16 20 21
19 1 16 20 17
20 1 21 20 17
21 1 14 17 20
22 1 14 17 23
23 1 20 17 23
24 1 17 23 26
25 1 17 23 22
26 1 26 23 22
27 1 21 25 28
28 1 21 25 26
29 1 28 25 26
30 1 23 26 25
31 1 23 26 30
32 1 25 26 30
33 1 26 30 29
34 1 30 29 27
35 1 23 22 27
36 1 23 22 18
37 1 18 22 27
38 1 44 41 40
39 1 41 40 42
40 1 41 44 47
41 1 47 50 53
42 1 44 47 50
43 1 44 47 46
44 1 50 47 46
45 1 42 46 47
46 1 42 46 49
47 1 47 46 49
48 1 53 54 57
49 1 50 53 54
50 1 50 53 52
51 1 54 53 52
52 1 49 52 53
53 1 49 52 55
54 1 53 52 55
55 1 54 57 60
56 1 54 57 59
57 1 60 57 59
58 1 55 59 57
59 1 55 59 62
60 1 57 59 62
61 1 59 62 61
62 1 46 49 48
63 1 46 49 52
64 1 52 49 48
65 1 52 55 56
66 1 52 55 59
67 1 59 55 56
68 1 8 3 5
69 1 3 5 31
70 1 5 31 13
71 1 8 10 15
72 1 8 10 13
73 1 15 10 13
74 1 31 13 10
75 1 31 13 32
76 1 10 13 32
77 1 13 32 19
78 1 15 18 22
79 1 15 18 19
80 1 22 18 19
81 1 32 19 18
82 1 32 19 33
83 1 18 19 33
84 1 19 33 24
85 1 22 27 29
86 1 22 27 24
87 1 29 27 24
88 1 33 24 27
89 1 33 24 35
90 1 27 24 35
91 1 7 8 3
92 1 7 8 10
93 1 3 8 10
94 1 14 15 10
95 1 14 15 18
96 1 10 15 18
97 1 43 39 65
98 1 39 65 66
99 1 67 68 69
100 1 69 70 72
101 1 42 43 39
102 1 42 43 45
103 1 39 43 45
104 1 49 48 45
105 1 49 48 51
106 1 45 48 51
107 1 43 45 48
108 1 43 45 67
109 1 48 45 67
110 1 66 67 45
111 1 66 67 68
112 1 45 67 68
113 1 55 56 58
114 1 55 56 51
115 1 51 56 58
116 1 48 51 56
117 1 48 51 69
118 1 56 51 69
119 1 68 69 51
120 1 68 69 70
121 1 51 69 70
122 1 56 58 61
123 1 56 58 72
124 1 61 58 72
125 1 70 72 58
126 1 70 72 73
127 1 58 72 73
128 1 65 66 67
129 1 62 61 58
130 1 40 42 43
131 1 40 42 46
132 1 46 42 43

Dihedrals

1 1 12 9 6 4
2 1 6 9 12 16
3 1 6 9 12 11
4 1 20 16 12 9
5 1 20 16 12 11
6 1 12 16 20 21
7 1 12 16 20 17
8 1 20 21 25 28
9 1 20 21 25 26
10 1 25 21 20 16
11 1 25 21 20 17
12 1 9 6 4 7
13 1 6 4 7 11
14 1 6 4 7 8
15 1 4 7 11 12
16 1 4 7 11 14
17 1 8 7 11 12
18 1 8 7 11 14
19 1 4 7 8 3
20 1 4 7 8 10
21 1 11 7 8 3
22 1 11 7 8 10
23 1 9 12 11 7
24 1 9 12 11 14
25 1 16 12 11 7
26 1 16 12 11 14
27 1 7 11 14 17
28 1 7 11 14 15
29 1 12 11 14 17
30 1 12 11 14 15
31 1 11 14 17 20
32 1 11 14 17 23
33 1 15 14 17 20
34 1 15 14 17 23
35 1 11 14 15 10
36 1 11 14 15 18
37 1 17 14 15 10
38 1 17 14 15 18
39 1 16 20 17 14
40 1 16 20 17 23
41 1 21 20 17 14
42 1 21 20 17 23
43 1 14 17 23 26
44 1 14 17 23 22
45 1 20 17 23 26
46 1 20 17 23 22
47 1 17 23 26 25
48 1 17 23 26 30
49 1 22 23 26 25
50 1 22 23 26 30
51 1 17 23 22 27
52 1 17 23 22 18
53 1 26 23 22 27
54 1 26 23 22 18
55 1 21 25 26 23
56 1 21 25 26 30
57 1 28 25 26 23
58 1 28 25 26 30
59 1 23 26 30 29
60 1 25 26 30 29
61 1 26 30 29 27
62 1 30 29 27 22
63 1 30 29 27 24
64 1 23 22 27 29
65 1 23 22 27 24
66 1 18 22 27 29
67 1 18 22 27 24
68 1 23 22 18 15
69 1 23 22 18 19
70 1 27 22 18 15
71 1 27 22 18 19
72 1 44 41 40 42
73 1 41 40 42 43
74 1 41 40 42 46
75 1 47 44 41 40
76 1 41 44 47 50
77 1 41 44 47 46
78 1 53 50 47 44
79 1 53 50 47 46
80 1 47 50 53 54
81 1 47 50 53 52
82 1 44 47 46 42
83 1 44 47 46 49
84 1 50 47 46 42
85 1 50 47 46 49
86 1 42 46 49 48
87 1 42 46 49 52
88 1 47 46 49 48
89 1 47 46 49 52
90 1 53 54 57 60
91 1 53 54 57 59
92 1 57 54 53 50
93 1 57 54 53 52
94 1 50 53 52 49
95 1 50 53 52 55
96 1 54 53 52 49
97 1 54 53 52 55
98 1 49 52 55 56
99 1 49 52 55 59
100 1 53 52 55 56
101 1 53 52 55 59
102 1 54 57 59 55
103 1 54 57 59 62
104 1 60 57 59 55
105 1 60 57 59 62
106 1 55 59 62 61
107 1 57 59 62 61
108 1 59 62 61 58
109 1 46 49 48 45
110 1 46 49 48 51
111 1 52 49 48 45
112 1 52 49 48 51
113 1 46 49 52 53
114 1 46 49 52 55
115 1 48 49 52 53
116 1 48 49 52 55
117 1 52 55 56 58
118 1 52 55 56 51
119 1 59 55 56 58
120 1 59 55 56 51
121 1 52 55 59 57
122 1 52 55 59 62
123 1 56 55 59 57
124 1 56 55 59 62
125 1 8 3 5 31
126 1 3 5 31 13
127 1 5 31 13 10
128 1 5 31 13 32
129 1 8 10 13 31
130 1 8 10 13 32
131 1 15 10 13 31
132 1 15 10 13 32
133 1 31 13 32 19
134 1 10 13 32 19
135 1 13 32 19 18
136 1 13 32 19 33
137 1 15 18 19 32
138 1 15 18 19 33
139 1 22 18 19 32
140 1 22 18 19 33
141 1 32 19 33 24
142 1 18 19 33 24
143 1 19 33 24 27
144 1 19 33 24 35
145 1 22 27 24 33
146 1 22 27 24 35
147 1 29 27 24 33
148 1 29 27 24 35
149 1 7 8 3 5
150 1 10 8 3 5
151 1 7 8 10 15
152 1 7 8 10 13
153 1 3 8 10 15
154 1 3 8 10 13
155 1 14 15 10 8
156 1 14 15 10 13
157 1 18 15 10 8
158 1 18 15 10 13
159 1 14 15 18 22
160 1 14 15 18 19
161 1 10 15 18 22
162 1 10 15 18 19
163 1 43 39 65 66
164 1 39 65 66 67
165 1 67 68 69 51
166 1 67 68 69 70
167 1 69 70 72 58
168 1 69 70 72 73
169 1 42 43 39 65
170 1 45 43 39 65
171 1 42 43 45 48
172 1 42 43 45 67
173 1 39 43 45 48
174 1 39 43 45 67
175 1 49 48 45 43
176 1 49 48 45 67
177 1 51 48 45 43
178 1 51 48 45 67
179 1 49 48 51 56
180 1 49 48 51 69
181 1 45 48 51 56
182 1 45 48 51 69
183 1 43 45 67 66
184 1 43 45 67 68
185 1 48 45 67 66
186 1 48 45 67 68
187 1 66 67 68 69
188 1 45 67 68 69
189 1 55 56 58 61
190 1 55 56 58 72
191 1 51 56 58 61
192 1 51 56 58 72
193 1 55 56 51 48
194 1 55 56 51 69
195 1 58 56 51 48
196 1 58 56 51 69
197 1 48 51 69 68
198 1 48 51 69 70
199 1 56 51 69 68
200 1 56 51 69 70
201 1 68 69 70 72
202 1 51 69 70 72
203 1 56 58 72 70
204 1 56 58 72 73
205 1 61 58 72 70
206 1 61 58 72 73
207 1 65 66 67 45
208 1 65 66 67 68
209 1 62 61 58 56
210 1 62 61 58 72
211 1 40 42 43 39
212 1 40 42 43 45
213 1 46 42 43 39
214 1 46 42 43 45
215 1 40 42 46 47
216 1 40 42 46 49
217 1 43 42 46 47
218 1 43 42 46 49

Impropers

1 1 12 9 16 11
2 1 20 16 21 17
3 1 25 21 28 26
4 1 7 4 11 8
5 1 11 7 12 14
6 1 8 7 3 10
7 1 14 11 17 15
8 1 17 14 20 23
9 1 15 14 10 18
10 1 23 17 26 22
11 1 26 23 25 30
12 1 22 23 27 18
13 1 27 22 29 24
14 1 42 40 43 46
15 1 47 44 50 46
16 1 53 50 54 52
17 1 49 46 48 52
18 1 57 54 60 59
19 1 55 52 56 59
20 1 52 49 53 55
21 1 48 49 45 51
22 1 59 55 57 62
23 1 56 55 58 51
24 1 13 31 10 32
25 1 19 32 18 33
26 1 24 33 27 35
27 1 10 8 15 13
28 1 18 15 22 19
29 1 69 68 51 70
30 1 72 70 58 73
31 1 45 43 48 67
32 1 51 48 56 69
33 1 58 56 61 72
34 1 67 66 45 68
35 1 46 42 47 49
36 1 43 42 39 45
