LAMMPS (27 Jun 2024)

# --- log file ---
variable name string input
log ./logs/log.${name}
log ./logs/log.input
