LAMMPS (27 Jun 2024)
OMP_NUM_THREADS environment is not set. Defaulting to 1 thread. (src/comm.cpp:98)
  using 1 OpenMP thread(s) per MPI task
Reading data file ...
  orthogonal box = (-30 -30 -30) to (30 30 30)
  2 by 2 by 4 MPI processor grid
  reading atoms ...
  480 atoms
  reading velocities ...
  480 velocities
  scanning bonds ...
  2 = max bonds/atom
  scanning angles ...
  3 = max angles/atom
  scanning dihedrals ...
  8 = max dihedrals/atom
  scanning impropers ...
  2 = max impropers/atom
  orthogonal box = (-30 -30 -30) to (30 30 30)
  2 by 2 by 4 MPI processor grid
  reading bonds ...
  676 bonds
  reading angles ...
  1268 angles
  reading dihedrals ...
  2394 dihedrals
  reading impropers ...
  396 impropers
Finding 1-2 1-3 1-4 neighbors ...
  special bond factors lj:    0        0        0       
  special bond factors coul:  0        0        0       
     3 = max # of 1-2 neighbors
     6 = max # of 1-3 neighbors
    18 = max # of 1-4 neighbors
    18 = max # of special neighbors
  special bonds CPU = 0.001 seconds
  read_data CPU = 0.044 seconds
Finding 1-2 1-3 1-4 neighbors ...
  special bond factors lj:    0        0        0.5     
  special bond factors coul:  0        0        0       
     3 = max # of 1-2 neighbors
     6 = max # of 1-3 neighbors
    18 = max # of 1-4 neighbors
    18 = max # of special neighbors
  special bonds CPU = 0.001 seconds
Created 1 atoms
  using lattice units in orthogonal box = (-30 -30 -30) to (30 30 30)
  create_atoms CPU = 0.000 seconds
480 atoms in group C
1 atoms in group H2

CITE-CITE-CITE-CITE-CITE-CITE-CITE-CITE-CITE-CITE-CITE-CITE-CITE

Your simulation uses code contributions which should be cited:
- Type Label Framework: https://doi.org/10.1021/acs.jpcb.3c08419
The log file lists these citations in BibTeX format.

CITE-CITE-CITE-CITE-CITE-CITE-CITE-CITE-CITE-CITE-CITE-CITE-CITE

Generated 0 of 1 mixed pair_coeff terms from geometric mixing rule
Neighbor list info ...
  update: every = 1 steps, delay = 3 steps, check = yes
  max neighbors/atom: 6000, page size: 100000
  master list distance cutoff = 31
  ghost atom cutoff = 31
  binsize = 15.5, bins = 4 4 4
  4 neighbor lists, perpetual/occasional/extra = 4 0 0
  (1) pair lj/cut, perpetual, skip trim from (4)
      attributes: half, newton on, cut 15
      pair build: skip/trim
      stencil: none
      bin: none
  (2) pair sg, perpetual, skip trim from (4)
      attributes: half, newton on, cut 16
      pair build: skip/trim
      stencil: none
      bin: none
  (3) pair cb, perpetual, skip from (4)
      attributes: half, newton on
      pair build: skip
      stencil: none
      bin: none
  (4) neighbor class addition, perpetual
      attributes: half, newton on
      pair build: half/bin/newton
      stencil: half/bin/3d
      bin: standard
Setting up Verlet run ...
  Unit style    : real
  Current step  : 0
  Time step     : 0.05
Per MPI rank memory allocation (min/avg/max) = 13.34 | 13.66 | 13.99 Mbytes
   Step          Temp          E_pair         E_mol          TotEng         Press          Volume    
         0   300            308.43814      19603.922      20341.597     -432.48369      216000       
     10000   308.72719      373.58236      18568.419      19383.724     -313.9945       172136.64    
     20000   322.02648      371.05675      18538.378      19370.187     -418.66256      126544.33    
Loop time of 6.52459 on 16 procs for 20000 steps with 481 atoms

Performance: 13.242 ns/day, 1.812 hours/ns, 3065.327 timesteps/s, 1.474 Matom-step/s
99.7% CPU use with 16 MPI tasks x 1 OpenMP threads

MPI task timing breakdown:
Section |  min time  |  avg time  |  max time  |%varavg| %total
---------------------------------------------------------------
Pair    | 0.63055    | 1.0239     | 2.0751     |  31.7 | 15.69
Bond    | 0.85015    | 1.1492     | 1.3376     |  12.9 | 17.61
Neigh   | 0.020299   | 0.021192   | 0.022114   |   0.4 |  0.32
Comm    | 2.5044     | 3.6555     | 4.075      |  20.3 | 56.03
Output  | 0.002613   | 0.0049156  | 0.0071641  |   2.2 |  0.08
Modify  | 0.44825    | 0.5082     | 0.61229    |   6.4 |  7.79
Other   |            | 0.1618     |            |       |  2.48

Nlocal:        30.0625 ave          37 max          19 min
Histogram: 1 0 0 1 0 4 3 6 0 1
Nghost:        2326.06 ave        2341 max        2307 min
Histogram: 1 0 1 3 1 2 2 2 3 1
Neighs:              0 ave           0 max           0 min
Histogram: 16 0 0 0 0 0 0 0 0 0

Total # of neighbors = 0
Ave neighs/atom = 0
Ave special neighs/atom = 15.567568
Neighbor list builds = 55
Dangerous builds = 0
Generated 0 of 1 mixed pair_coeff terms from geometric mixing rule
Setting up Verlet run ...
  Unit style    : real
  Current step  : 20000
  Time step     : 0.05
Per MPI rank memory allocation (min/avg/max) = 13.35 | 14.19 | 15 Mbytes
   Step          Temp          E_pair         E_mol          TotEng         Press     
     20000   322.02648      371.05675      18538.378      19370.187     -418.66256    
     30000   283.44819      338.82949      18628.735      19373.119     -1287.942     
Loop time of 2.88772 on 16 procs for 10000 steps with 481 atoms

Performance: 14.960 ns/day, 1.604 hours/ns, 3462.935 timesteps/s, 1.666 Matom-step/s
100.0% CPU use with 16 MPI tasks x 1 OpenMP threads

MPI task timing breakdown:
Section |  min time  |  avg time  |  max time  |%varavg| %total
---------------------------------------------------------------
Pair    | 0.075297   | 0.40007    | 0.66261    |  25.2 | 13.85
Bond    | 0.34089    | 0.50605    | 0.63582    |   9.5 | 17.52
Neigh   | 0.035333   | 0.036705   | 0.038091   |   0.4 |  1.27
Comm    | 1.4112     | 1.7674     | 2.1252     |  15.3 | 61.20
Output  | 0.00096403 | 0.0017876  | 0.0026035  |   1.2 |  0.06
Modify  | 0.084245   | 0.10145    | 0.13612    |   4.6 |  3.51
Other   |            | 0.07428    |            |       |  2.57

Nlocal:        30.0625 ave          38 max          20 min
Histogram: 1 1 0 2 3 1 2 4 1 1
Nghost:        2328.06 ave        2344 max        2312 min
Histogram: 2 3 0 2 0 2 2 0 3 2
Neighs:              0 ave           0 max           0 min
Histogram: 16 0 0 0 0 0 0 0 0 0

Total # of neighbors = 0
Ave neighs/atom = 0
Ave special neighs/atom = 15.567568
Neighbor list builds = 89
Dangerous builds = 0
Generated 0 of 1 mixed pair_coeff terms from geometric mixing rule
Setting up Verlet run ...
  Unit style    : real
  Current step  : 30000
  Time step     : 0.05
Per MPI rank memory allocation (min/avg/max) = 13.35 | 14.2 | 15 Mbytes
   Step          Temp          E_pair         E_mol          TotEng         Press     
     30000   283.44819      338.82949      18628.735      19373.119     -1287.942     
     40000   288.42353      401.77757      18537.671      19352.122      630.68739    
     50000   284.91611      381.79586      18561.862      19351.313      86.235215    
     60000   299.60779      374.3105       18565.191      19368.177     -166.87359    
     70000   310.02238      372.80661      18575.348      19391.731     -143.22147    
     80000   299.22489      381.0697       18550.741      19359.938      61.005238    
Loop time of 14.0047 on 16 procs for 50000 steps with 481 atoms

Performance: 15.423 ns/day, 1.556 hours/ns, 3570.230 timesteps/s, 1.717 Matom-step/s
100.0% CPU use with 16 MPI tasks x 1 OpenMP threads

MPI task timing breakdown:
Section |  min time  |  avg time  |  max time  |%varavg| %total
---------------------------------------------------------------
Pair    | 0.39431    | 1.882      | 3.2571     |  56.7 | 13.44
Bond    | 1.605      | 2.4042     | 2.9801     |  22.4 | 17.17
Neigh   | 0.0558     | 0.057452   | 0.059484   |   0.4 |  0.41
Comm    | 7.1745     | 8.786      | 10.442     |  34.5 | 62.74
Output  | 0.0060311  | 0.0090411  | 0.011824   |   1.9 |  0.06
Modify  | 0.38904    | 0.50966    | 0.63637    |  10.0 |  3.64
Other   |            | 0.3563     |            |       |  2.54

Nlocal:        30.0625 ave          40 max          22 min
Histogram: 2 1 4 1 1 1 2 2 0 2
Nghost:        2373.44 ave        2391 max        2358 min
Histogram: 1 2 3 2 2 1 0 2 2 1
Neighs:              0 ave           0 max           0 min
Histogram: 16 0 0 0 0 0 0 0 0 0

Total # of neighbors = 0
Ave neighs/atom = 0
Ave special neighs/atom = 15.567568
Neighbor list builds = 137
Dangerous builds = 0
Generated 0 of 1 mixed pair_coeff terms from geometric mixing rule
Setting up Verlet run ...
  Unit style    : real
  Current step  : 80000
  Time step     : 0.05
Per MPI rank memory allocation (min/avg/max) = 13.35 | 14.21 | 15 Mbytes
   Step          Temp          E_pair         E_mol          TotEng         Press     
     80000   299.22489      381.0697       18550.741      19359.938      61.005238    
     90000   291.0755       379.18105      18552.347      19347.996      28.94939     
Loop time of 2.8269 on 16 procs for 10000 steps with 481 atoms

Performance: 15.282 ns/day, 1.571 hours/ns, 3537.443 timesteps/s, 1.702 Matom-step/s
100.0% CPU use with 16 MPI tasks x 1 OpenMP threads

MPI task timing breakdown:
Section |  min time  |  avg time  |  max time  |%varavg| %total
---------------------------------------------------------------
Pair    | 0.086797   | 0.39346    | 0.76564    |  26.5 | 13.92
Bond    | 0.32443    | 0.50308    | 0.59572    |  10.6 | 17.80
Neigh   | 0.0064314  | 0.0066257  | 0.006892   |   0.2 |  0.23
Comm    | 1.2813     | 1.7515     | 2.1033     |  16.3 | 61.96
Output  | 0.00095849 | 0.0016179  | 0.0022004  |   1.0 |  0.06
Modify  | 0.073234   | 0.097163   | 0.1264     |   4.8 |  3.44
Other   |            | 0.07341    |            |       |  2.60

Nlocal:        30.0625 ave          36 max          20 min
Histogram: 2 1 0 1 0 2 3 1 2 4
Nghost:        2368.19 ave        2386 max        2349 min
Histogram: 2 0 4 0 1 2 1 3 1 2
Neighs:              0 ave           0 max           0 min
Histogram: 16 0 0 0 0 0 0 0 0 0

Total # of neighbors = 0
Ave neighs/atom = 0
Ave special neighs/atom = 15.567568
Neighbor list builds = 16
Dangerous builds = 0
Generated 0 of 1 mixed pair_coeff terms from geometric mixing rule
Setting up Verlet run ...
  Unit style    : real
  Current step  : 90000
  Time step     : 0.05
Per MPI rank memory allocation (min/avg/max) = 13.35 | 14.21 | 15 Mbytes
   Step          Temp          E_pair         E_mol          TotEng         Press     
     90000   291.0755       379.18105      18552.347      19347.996      28.94939     
    100000   284.28368      370.08382      18553.096      19329.93      -321.03131    
    110000   305.38303      375.10514      18540.632      19352.676     -3.4268184    
    120000   313.6856       377.11204      18571.015      19396.944      21.125181    
    130000   305.92172      375.24491      18573.949      19386.904      40.206022    
    140000   303.23199      370.04096      18537.595      19341.497     -160.20545    
Loop time of 14.1918 on 16 procs for 50000 steps with 481 atoms

Performance: 15.220 ns/day, 1.577 hours/ns, 3523.161 timesteps/s, 1.695 Matom-step/s
100.0% CPU use with 16 MPI tasks x 1 OpenMP threads

MPI task timing breakdown:
Section |  min time  |  avg time  |  max time  |%varavg| %total
---------------------------------------------------------------
Pair    | 0.45229    | 1.9744     | 3.6416     |  58.2 | 13.91
Bond    | 1.8857     | 2.5241     | 3.0024     |  19.0 | 17.79
Neigh   | 0.03827    | 0.039561   | 0.041072   |   0.4 |  0.28
Comm    | 6.7212     | 8.7764     | 10.256     |  34.2 | 61.84
Output  | 0.0061034  | 0.0090299  | 0.011422   |   1.8 |  0.06
Modify  | 0.39126    | 0.4995     | 0.62533    |   9.4 |  3.52
Other   |            | 0.3689     |            |       |  2.60

Nlocal:        30.0625 ave          38 max          25 min
Histogram: 3 1 2 4 1 2 1 1 0 1
Nghost:        2355.06 ave        2374 max        2342 min
Histogram: 2 3 1 2 1 2 3 1 0 1
Neighs:              0 ave           0 max           0 min
Histogram: 16 0 0 0 0 0 0 0 0 0

Total # of neighbors = 0
Ave neighs/atom = 0
Ave special neighs/atom = 15.567568
Neighbor list builds = 95
Dangerous builds = 0
Generated 0 of 1 mixed pair_coeff terms from geometric mixing rule
Setting up Verlet run ...
  Unit style    : real
  Current step  : 140000
  Time step     : 0.05
Per MPI rank memory allocation (min/avg/max) = 13.35 | 14.24 | 15 Mbytes
   Step          Temp          E_pair         E_mol          TotEng         Press     
    140000   303.23199      370.04096      18537.595      19341.497     -160.20545    
    150000   300.93117      379.22225      18537.624      19347.415     -2.7212536    
Loop time of 2.84635 on 16 procs for 10000 steps with 481 atoms

Performance: 15.177 ns/day, 1.581 hours/ns, 3513.269 timesteps/s, 1.690 Matom-step/s
100.0% CPU use with 16 MPI tasks x 1 OpenMP threads

MPI task timing breakdown:
Section |  min time  |  avg time  |  max time  |%varavg| %total
---------------------------------------------------------------
Pair    | 0.09498    | 0.3957     | 0.71109    |  25.6 | 13.90
Bond    | 0.39505    | 0.50599    | 0.61697    |   9.1 | 17.78
Neigh   | 0.0085246  | 0.0087921  | 0.0090805  |   0.2 |  0.31
Comm    | 1.3691     | 1.7604     | 2.0361     |  14.9 | 61.85
Output  | 0.00097363 | 0.0016117  | 0.0021724  |   0.9 |  0.06
Modify  | 0.07956    | 0.099856   | 0.12962    |   4.4 |  3.51
Other   |            | 0.07402    |            |       |  2.60

Nlocal:        30.0625 ave          42 max          22 min
Histogram: 2 3 1 2 2 2 0 2 1 1
Nghost:        2372.31 ave        2390 max        2355 min
Histogram: 1 3 0 1 4 2 1 0 1 3
Neighs:              0 ave           0 max           0 min
Histogram: 16 0 0 0 0 0 0 0 0 0

Total # of neighbors = 0
Ave neighs/atom = 0
Ave special neighs/atom = 15.567568
Neighbor list builds = 21
Dangerous builds = 0
Generated 0 of 1 mixed pair_coeff terms from geometric mixing rule
Setting up Verlet run ...
  Unit style    : real
  Current step  : 150000
  Time step     : 0.05
Per MPI rank memory allocation (min/avg/max) = 13.35 | 14.24 | 15 Mbytes
   Step          Temp          E_pair         E_mol          TotEng         Press     
    150000   300.93117      379.22225      18537.624      19347.415     -2.7212536    
    160000   301.03891      363.12732      18596.807      19390.657     -453.82408    
    170000   312.50698      372.68997      18558.442      19378.264     -282.91505    
    180000   309.72075      377.29224      18522.226      19342.663      62.31778     
    190000   304.93234      380.50398      18510.266      19327.064      102.34237    
    200000   294.44229      363.67875      18533.83       19318.793     -363.81086    
Loop time of 13.8842 on 16 procs for 50000 steps with 481 atoms

Performance: 15.557 ns/day, 1.543 hours/ns, 3601.207 timesteps/s, 1.732 Matom-step/s
100.0% CPU use with 16 MPI tasks x 1 OpenMP threads

MPI task timing breakdown:
Section |  min time  |  avg time  |  max time  |%varavg| %total
---------------------------------------------------------------
Pair    | 0.41428    | 1.8889     | 3.167      |  56.5 | 13.60
Bond    | 1.7373     | 2.4134     | 3.0739     |  21.1 | 17.38
Neigh   | 0.027633   | 0.028445   | 0.029458   |   0.3 |  0.20
Comm    | 6.9332     | 8.6843     | 10.179     |  33.7 | 62.55
Output  | 0.00589    | 0.0084149  | 0.010497   |   1.6 |  0.06
Modify  | 0.40077    | 0.50405    | 0.61749    |   8.7 |  3.63
Other   |            | 0.3568     |            |       |  2.57

Nlocal:        30.0625 ave          39 max          23 min
Histogram: 2 3 0 2 1 3 3 0 1 1
Nghost:        2369.69 ave        2391 max        2350 min
Histogram: 3 1 0 4 1 1 1 0 4 1
Neighs:              0 ave           0 max           0 min
Histogram: 16 0 0 0 0 0 0 0 0 0

Total # of neighbors = 0
Ave neighs/atom = 0
Ave special neighs/atom = 15.567568
Neighbor list builds = 70
Dangerous builds = 0
Generated 0 of 1 mixed pair_coeff terms from geometric mixing rule
Setting up Verlet run ...
  Unit style    : real
  Current step  : 200000
  Time step     : 0.05
Per MPI rank memory allocation (min/avg/max) = 13.35 | 14.26 | 15 Mbytes
   Step          Temp          E_pair         E_mol          TotEng         Press     
    200000   294.44229      363.67875      18533.83       19318.793     -363.81086    
    210000   306.35661      376.77206      18528.825      19343.928     -46.358362    
Loop time of 2.81497 on 16 procs for 10000 steps with 481 atoms

Performance: 15.347 ns/day, 1.564 hours/ns, 3552.437 timesteps/s, 1.709 Matom-step/s
100.0% CPU use with 16 MPI tasks x 1 OpenMP threads

MPI task timing breakdown:
Section |  min time  |  avg time  |  max time  |%varavg| %total
---------------------------------------------------------------
Pair    | 0.083395   | 0.39516    | 0.67936    |  25.6 | 14.04
Bond    | 0.36096    | 0.50458    | 0.62247    |   9.4 | 17.92
Neigh   | 0.0057438  | 0.0058806  | 0.0060635  |   0.1 |  0.21
Comm    | 1.4113     | 1.736      | 2.0479     |  15.2 | 61.67
Output  | 0.00096065 | 0.0015802  | 0.0020902  |   0.9 |  0.06
Modify  | 0.078472   | 0.098122   | 0.12049    |   3.8 |  3.49
Other   |            | 0.07367    |            |       |  2.62

Nlocal:        30.0625 ave          37 max          25 min
Histogram: 2 2 1 2 3 3 0 1 1 1
Nghost:        2361.06 ave        2381 max        2344 min
Histogram: 2 0 4 2 0 2 3 1 1 1
Neighs:              0 ave           0 max           0 min
Histogram: 16 0 0 0 0 0 0 0 0 0

Total # of neighbors = 0
Ave neighs/atom = 0
Ave special neighs/atom = 15.567568
Neighbor list builds = 14
Dangerous builds = 0
Generated 0 of 1 mixed pair_coeff terms from geometric mixing rule
Setting up Verlet run ...
  Unit style    : real
  Current step  : 210000
  Time step     : 0.05
Per MPI rank memory allocation (min/avg/max) = 13.35 | 14.26 | 15 Mbytes
   Step          Temp          E_pair         E_mol          TotEng         Press     
    210000   306.35661      376.77206      18528.825      19343.928     -46.358362    
    220000   299.08767      382.79384      18533.805      19344.53       156.1039     
    230000   298.6862       377.25304      18518.65       19323.26      -5.8064799    
    240000   293.66655      370.87501      18541.718      19332.768     -156.99049    
    250000   306.4674       378.1926       18528.597      19345.28       35.375904    
    260000   299.31442      379.80206      18532.885      19340.943      188.25866    
Loop time of 14.2065 on 16 procs for 50000 steps with 481 atoms

Performance: 15.204 ns/day, 1.579 hours/ns, 3519.504 timesteps/s, 1.693 Matom-step/s
100.0% CPU use with 16 MPI tasks x 1 OpenMP threads

MPI task timing breakdown:
Section |  min time  |  avg time  |  max time  |%varavg| %total
---------------------------------------------------------------
Pair    | 0.4097     | 1.977      | 3.3892     |  58.2 | 13.92
Bond    | 1.6987     | 2.5243     | 3.0725     |  21.8 | 17.77
Neigh   | 0.035607   | 0.036824   | 0.038132   |   0.4 |  0.26
Comm    | 7.2006     | 8.7825     | 10.491     |  35.2 | 61.82
Output  | 0.0060343  | 0.0087652  | 0.010925   |   1.6 |  0.06
Modify  | 0.404      | 0.5076     | 0.62827    |   8.9 |  3.57
Other   |            | 0.3695     |            |       |  2.60

Nlocal:        30.0625 ave          40 max          21 min
Histogram: 2 1 1 2 2 2 4 0 1 1
Nghost:        2376.44 ave        2394 max        2351 min
Histogram: 1 1 0 2 1 3 2 2 2 2
Neighs:              0 ave           0 max           0 min
Histogram: 16 0 0 0 0 0 0 0 0 0

Total # of neighbors = 0
Ave neighs/atom = 0
Ave special neighs/atom = 15.567568
Neighbor list builds = 88
Dangerous builds = 0
Generated 0 of 1 mixed pair_coeff terms from geometric mixing rule
Setting up Verlet run ...
  Unit style    : real
  Current step  : 260000
  Time step     : 0.05
Per MPI rank memory allocation (min/avg/max) = 13.35 | 14.26 | 15 Mbytes
   Step          Temp          E_pair         E_mol          TotEng         Press     
    260000   299.31442      379.80206      18532.885      19340.943      188.25866    
    270000   293.97523      364.06097      18540.306      19324.983     -442.38412    
Loop time of 2.86579 on 16 procs for 10000 steps with 481 atoms

Performance: 15.074 ns/day, 1.592 hours/ns, 3489.436 timesteps/s, 1.678 Matom-step/s
100.0% CPU use with 16 MPI tasks x 1 OpenMP threads

MPI task timing breakdown:
Section |  min time  |  avg time  |  max time  |%varavg| %total
---------------------------------------------------------------
Pair    | 0.093922   | 0.39567    | 0.70837    |  26.3 | 13.81
Bond    | 0.33232    | 0.50519    | 0.59444    |  10.6 | 17.63
Neigh   | 0.0076557  | 0.0079229  | 0.0082019  |   0.2 |  0.28
Comm    | 1.413      | 1.7784     | 2.1363     |  15.8 | 62.06
Output  | 0.00096185 | 0.0015579  | 0.0020491  |   0.9 |  0.05
Modify  | 0.080668   | 0.10236    | 0.13548    |   4.7 |  3.57
Other   |            | 0.07468    |            |       |  2.61

Nlocal:        30.0625 ave          36 max          20 min
Histogram: 1 1 1 0 0 3 3 1 3 3
Nghost:        2358.44 ave        2375 max        2342 min
Histogram: 1 3 1 1 1 0 5 3 0 1
Neighs:              0 ave           0 max           0 min
Histogram: 16 0 0 0 0 0 0 0 0 0

Total # of neighbors = 0
Ave neighs/atom = 0
Ave special neighs/atom = 15.567568
Neighbor list builds = 19
Dangerous builds = 0
Generated 0 of 1 mixed pair_coeff terms from geometric mixing rule
Setting up Verlet run ...
  Unit style    : real
  Current step  : 270000
  Time step     : 0.05
Per MPI rank memory allocation (min/avg/max) = 13.35 | 14.26 | 15 Mbytes
   Step          Temp          E_pair         E_mol          TotEng         Press     
    270000   293.97523      364.06097      18540.306      19324.983     -442.38412    
    280000   282.89147      365.87769      18517.644      19288.279     -233.67217    
    290000   291.26345      380.64743      18555.037      19352.421      78.663515    
    300000   313.28349      372.45274      18531.729      19352.424     -51.968945    
    310000   284.50428      360.47395      18530.841      19298.38      -438.02442    
    320000   290.28602      381.3803       18526.288      19323.006      85.600427    
Loop time of 13.6898 on 16 procs for 50000 steps with 481 atoms

Performance: 15.778 ns/day, 1.521 hours/ns, 3652.357 timesteps/s, 1.757 Matom-step/s
100.0% CPU use with 16 MPI tasks x 1 OpenMP threads

MPI task timing breakdown:
Section |  min time  |  avg time  |  max time  |%varavg| %total
---------------------------------------------------------------
Pair    | 0.42548    | 1.8749     | 3.0499     |  56.4 | 13.70
Bond    | 1.5702     | 2.3954     | 3.034      |  23.3 | 17.50
Neigh   | 0.031003   | 0.032036   | 0.033088   |   0.3 |  0.23
Comm    | 6.7585     | 8.5176     | 10.187     |  34.6 | 62.22
Output  | 0.0057841  | 0.0083175  | 0.010342   |   1.6 |  0.06
Modify  | 0.39474    | 0.50762    | 0.58721    |   9.2 |  3.71
Other   |            | 0.3539     |            |       |  2.58

Nlocal:        30.0625 ave          40 max          23 min
Histogram: 2 2 2 3 2 1 1 1 1 1
Nghost:        2370.06 ave        2386 max        2356 min
Histogram: 1 2 3 1 2 2 0 1 3 1
Neighs:              0 ave           0 max           0 min
Histogram: 16 0 0 0 0 0 0 0 0 0

Total # of neighbors = 0
Ave neighs/atom = 0
Ave special neighs/atom = 15.567568
Neighbor list builds = 80
Dangerous builds = 0
Generated 0 of 1 mixed pair_coeff terms from geometric mixing rule
Setting up Verlet run ...
  Unit style    : real
  Current step  : 320000
  Time step     : 0.05
Per MPI rank memory allocation (min/avg/max) = 13.35 | 14.26 | 15 Mbytes
   Step          Temp          E_pair         E_mol          TotEng         Press     
    320000   290.28602      381.3803       18526.288      19323.006      85.600427    
    330000   294.17199      388.80037      18524.277      19333.976      258.39223    
Loop time of 2.90469 on 16 procs for 10000 steps with 481 atoms

Performance: 14.873 ns/day, 1.614 hours/ns, 3442.709 timesteps/s, 1.656 Matom-step/s
100.0% CPU use with 16 MPI tasks x 1 OpenMP threads

MPI task timing breakdown:
Section |  min time  |  avg time  |  max time  |%varavg| %total
---------------------------------------------------------------
Pair    | 0.089194   | 0.39633    | 0.66941    |  26.0 | 13.64
Bond    | 0.34746    | 0.50508    | 0.63947    |   9.9 | 17.39
Neigh   | 0.0066147  | 0.0068012  | 0.0069956  |   0.1 |  0.23
Comm    | 1.491      | 1.8186     | 2.1521     |  15.6 | 62.61
Output  | 0.00092803 | 0.0015389  | 0.002033   |   0.9 |  0.05
Modify  | 0.078928   | 0.102      | 0.11964    |   4.3 |  3.51
Other   |            | 0.07431    |            |       |  2.56

Nlocal:        30.0625 ave          39 max          20 min
Histogram: 1 0 2 5 2 1 0 0 1 4
Nghost:        2377.94 ave        2396 max        2357 min
Histogram: 1 0 2 0 4 5 0 0 3 1
Neighs:              0 ave           0 max           0 min
Histogram: 16 0 0 0 0 0 0 0 0 0

Total # of neighbors = 0
Ave neighs/atom = 0
Ave special neighs/atom = 15.567568
Neighbor list builds = 16
Dangerous builds = 0
Generated 0 of 1 mixed pair_coeff terms from geometric mixing rule
Setting up Verlet run ...
  Unit style    : real
  Current step  : 330000
  Time step     : 0.05
Per MPI rank memory allocation (min/avg/max) = 13.35 | 14.26 | 15 Mbytes
   Step          Temp          E_pair         E_mol          TotEng         Press     
    330000   294.17199      388.80037      18524.277      19333.976      258.39223    
    340000   305.24568      364.41214      18547.449      19348.603     -444.31934    
    350000   311.67819      372.56608      18542.555      19361.066     -102.15751    
    360000   298.84804      372.40754      18556.141      19356.137     -217.05358    
    370000   311.25554      376.90372      18511.352      19333.596      17.013098    
    380000   288.63442      362.22658      18551.334      19326.536     -420.53781    
Loop time of 14.2188 on 16 procs for 50000 steps with 481 atoms

Performance: 15.191 ns/day, 1.580 hours/ns, 3516.466 timesteps/s, 1.691 Matom-step/s
100.0% CPU use with 16 MPI tasks x 1 OpenMP threads

MPI task timing breakdown:
Section |  min time  |  avg time  |  max time  |%varavg| %total
---------------------------------------------------------------
Pair    | 0.4327     | 1.9716     | 3.2296     |  58.6 | 13.87
Bond    | 1.6418     | 2.5209     | 3.1481     |  22.6 | 17.73
Neigh   | 0.030812   | 0.03176    | 0.032852   |   0.3 |  0.22
Comm    | 6.9417     | 8.8098     | 10.605     |  35.8 | 61.96
Output  | 0.0060512  | 0.0088254  | 0.01097    |   1.6 |  0.06
Modify  | 0.3991     | 0.50848    | 0.62435    |   9.4 |  3.58
Other   |            | 0.3675     |            |       |  2.58

Nlocal:        30.0625 ave          37 max          21 min
Histogram: 2 0 1 2 1 3 2 0 1 4
Nghost:        2362.94 ave        2387 max        2339 min
Histogram: 1 2 0 4 2 0 2 3 1 1
Neighs:              0 ave           0 max           0 min
Histogram: 16 0 0 0 0 0 0 0 0 0

Total # of neighbors = 0
Ave neighs/atom = 0
Ave special neighs/atom = 15.567568
Neighbor list builds = 76
Dangerous builds = 0
Generated 0 of 1 mixed pair_coeff terms from geometric mixing rule
Setting up Verlet run ...
  Unit style    : real
  Current step  : 380000
  Time step     : 0.05
Per MPI rank memory allocation (min/avg/max) = 13.35 | 14.26 | 15 Mbytes
   Step          Temp          E_pair         E_mol          TotEng         Press     
    380000   288.63442      362.22658      18551.334      19326.536     -420.53781    
    390000   313.07252      383.46965      18509.565      19340.976      165.21589    
Loop time of 2.88585 on 16 procs for 10000 steps with 481 atoms

Performance: 14.970 ns/day, 1.603 hours/ns, 3465.186 timesteps/s, 1.667 Matom-step/s
100.0% CPU use with 16 MPI tasks x 1 OpenMP threads

MPI task timing breakdown:
Section |  min time  |  avg time  |  max time  |%varavg| %total
---------------------------------------------------------------
Pair    | 0.082756   | 0.39477    | 0.69538    |  25.6 | 13.68
Bond    | 0.32141    | 0.50496    | 0.60868    |   9.7 | 17.50
Neigh   | 0.0052779  | 0.0054827  | 0.0056921  |   0.2 |  0.19
Comm    | 1.4184     | 1.806      | 2.1729     |  15.2 | 62.58
Output  | 0.00093029 | 0.001557   | 0.0020551  |   0.9 |  0.05
Modify  | 0.075736   | 0.099263   | 0.1275     |   4.9 |  3.44
Other   |            | 0.07386    |            |       |  2.56

Nlocal:        30.0625 ave          37 max          23 min
Histogram: 1 0 3 0 3 4 0 4 0 1
Nghost:        2377.94 ave        2394 max        2361 min
Histogram: 1 2 2 1 3 1 1 1 2 2
Neighs:              0 ave           0 max           0 min
Histogram: 16 0 0 0 0 0 0 0 0 0

Total # of neighbors = 0
Ave neighs/atom = 0
Ave special neighs/atom = 15.567568
Neighbor list builds = 13
Dangerous builds = 0
Generated 0 of 1 mixed pair_coeff terms from geometric mixing rule
Setting up Verlet run ...
  Unit style    : real
  Current step  : 390000
  Time step     : 0.05
Per MPI rank memory allocation (min/avg/max) = 13.35 | 14.26 | 15 Mbytes
   Step          Temp          E_pair         E_mol          TotEng         Press     
    390000   313.07252      383.46965      18509.565      19340.976      165.21589    
    400000   301.64251      373.1395       18561.801      19366.527     -81.689158    
    410000   310.00359      356.33743      18558.513      19358.4       -523.87       
    420000   282.01191      374.82         18514.119      19292.438     -18.030228    
    430000   310.56818      379.96555      18510.316      19334.639      9.6111504    
    440000   309.74126      380.00286      18513.541      19336.718      132.56336    
Loop time of 13.292 on 16 procs for 50000 steps with 481 atoms

Performance: 16.250 ns/day, 1.477 hours/ns, 3761.668 timesteps/s, 1.809 Matom-step/s
100.0% CPU use with 16 MPI tasks x 1 OpenMP threads

MPI task timing breakdown:
Section |  min time  |  avg time  |  max time  |%varavg| %total
---------------------------------------------------------------
Pair    | 0.33125    | 1.7966     | 2.9439     |  53.1 | 13.52
Bond    | 1.4871     | 2.2947     | 2.7878     |  20.1 | 17.26
Neigh   | 0.026134   | 0.027041   | 0.028041   |   0.3 |  0.20
Comm    | 6.8113     | 8.3231     | 9.9234     |  31.6 | 62.62
Output  | 0.0052674  | 0.0075865  | 0.0094595  |   1.5 |  0.06
Modify  | 0.3836     | 0.50235    | 0.59812    |   9.4 |  3.78
Other   |            | 0.3407     |            |       |  2.56

Nlocal:        30.0625 ave          34 max          25 min
Histogram: 2 0 1 1 2 2 2 3 2 1
Nghost:        2370.44 ave        2390 max        2353 min
Histogram: 2 1 3 0 2 4 0 1 1 2
Neighs:              0 ave           0 max           0 min
Histogram: 16 0 0 0 0 0 0 0 0 0

Total # of neighbors = 0
Ave neighs/atom = 0
Ave special neighs/atom = 15.567568
Neighbor list builds = 72
Dangerous builds = 0
Generated 0 of 1 mixed pair_coeff terms from geometric mixing rule
Setting up Verlet run ...
  Unit style    : real
  Current step  : 440000
  Time step     : 0.05
Per MPI rank memory allocation (min/avg/max) = 13.35 | 14.27 | 15 Mbytes
   Step          Temp          E_pair         E_mol          TotEng         Press     
    440000   309.74126      380.00286      18513.541      19336.718      132.56336    
    450000   305.01616      371.538        18528.245      19336.197     -230.85051    
Loop time of 2.84432 on 16 procs for 10000 steps with 481 atoms

Performance: 15.188 ns/day, 1.580 hours/ns, 3515.775 timesteps/s, 1.691 Matom-step/s
100.0% CPU use with 16 MPI tasks x 1 OpenMP threads

MPI task timing breakdown:
Section |  min time  |  avg time  |  max time  |%varavg| %total
---------------------------------------------------------------
Pair    | 0.075546   | 0.39665    | 0.66865    |  26.4 | 13.95
Bond    | 0.26741    | 0.50596    | 0.62456    |  11.7 | 17.79
Neigh   | 0.0088844  | 0.0091898  | 0.0094735  |   0.2 |  0.32
Comm    | 1.4163     | 1.7576     | 2.1947     |  16.9 | 61.79
Output  | 0.00095684 | 0.0015895  | 0.0021071  |   0.9 |  0.06
Modify  | 0.080092   | 0.10007    | 0.12833    |   4.4 |  3.52
Other   |            | 0.07326    |            |       |  2.58

Nlocal:        30.0625 ave          36 max          26 min
Histogram: 2 2 1 4 0 1 3 0 2 1
Nghost:        2349.44 ave        2369 max        2332 min
Histogram: 2 1 4 1 1 1 1 2 2 1
Neighs:              0 ave           0 max           0 min
Histogram: 16 0 0 0 0 0 0 0 0 0

Total # of neighbors = 0
Ave neighs/atom = 0
Ave special neighs/atom = 15.567568
Neighbor list builds = 22
Dangerous builds = 0
Generated 0 of 1 mixed pair_coeff terms from geometric mixing rule
Setting up Verlet run ...
  Unit style    : real
  Current step  : 450000
  Time step     : 0.05
Per MPI rank memory allocation (min/avg/max) = 13.35 | 14.27 | 15 Mbytes
   Step          Temp          E_pair         E_mol          TotEng         Press     
    450000   305.01616      371.538        18528.245      19336.197     -230.85051    
    460000   299.67443      373.21873      18513.984      19315.973     -63.237307    
    470000   300.00903      376.11852      18512.936      19318.304     -18.409427    
    480000   297.9589       382.59874      18517.225      19326.14       6.0429028    
    490000   295.34043      368.82824      18546.26       19337.658     -226.23189    
    500000   322.47231      378.222        18530.992      19370.604      16.095597    
Loop time of 14.2401 on 16 procs for 50000 steps with 481 atoms

Performance: 15.168 ns/day, 1.582 hours/ns, 3511.200 timesteps/s, 1.689 Matom-step/s
100.0% CPU use with 16 MPI tasks x 1 OpenMP threads

MPI task timing breakdown:
Section |  min time  |  avg time  |  max time  |%varavg| %total
---------------------------------------------------------------
Pair    | 0.36435    | 1.9773     | 3.2637     |  57.1 | 13.89
Bond    | 1.5573     | 2.5248     | 3.111      |  21.4 | 17.73
Neigh   | 0.046838   | 0.048504   | 0.050206   |   0.4 |  0.34
Comm    | 7.0297     | 8.8019     | 10.699     |  34.9 | 61.81
Output  | 0.0060196  | 0.0087105  | 0.010817   |   1.6 |  0.06
Modify  | 0.40393    | 0.51064    | 0.62747    |   9.3 |  3.59
Other   |            | 0.3683     |            |       |  2.59

Nlocal:        30.0625 ave          43 max          22 min
Histogram: 3 3 2 4 0 0 1 0 0 3
Nghost:        2357.31 ave        2375 max        2344 min
Histogram: 1 4 3 3 0 0 0 2 0 3
Neighs:              0 ave           0 max           0 min
Histogram: 16 0 0 0 0 0 0 0 0 0

Total # of neighbors = 0
Ave neighs/atom = 0
Ave special neighs/atom = 15.567568
Neighbor list builds = 117
Dangerous builds = 0
Generated 0 of 1 mixed pair_coeff terms from geometric mixing rule
Setting up Verlet run ...
  Unit style    : real
  Current step  : 500000
  Time step     : 0.05
Per MPI rank memory allocation (min/avg/max) = 13.35 | 14.29 | 15 Mbytes
   Step          Temp          E_pair         E_mol          TotEng         Press     
    500000   322.47231      378.222        18530.992      19370.604      16.095597    
    510000   285.75008      388.99615      18531.718      19329.562      343.03719    
Loop time of 2.81548 on 16 procs for 10000 steps with 481 atoms

Performance: 15.344 ns/day, 1.564 hours/ns, 3551.790 timesteps/s, 1.708 Matom-step/s
100.0% CPU use with 16 MPI tasks x 1 OpenMP threads

MPI task timing breakdown:
Section |  min time  |  avg time  |  max time  |%varavg| %total
---------------------------------------------------------------
Pair    | 0.074016   | 0.39635    | 0.65265    |  26.3 | 14.08
Bond    | 0.34831    | 0.50576    | 0.6201     |   8.7 | 17.96
Neigh   | 0.011106   | 0.01148    | 0.011916   |   0.2 |  0.41
Comm    | 1.3832     | 1.7293     | 2.0704     |  16.0 | 61.42
Output  | 0.00092194 | 0.0015033  | 0.0019764  |   0.8 |  0.05
Modify  | 0.078227   | 0.097602   | 0.1278     |   4.4 |  3.47
Other   |            | 0.07352    |            |       |  2.61

Nlocal:        30.0625 ave          36 max          25 min
Histogram: 1 3 1 5 1 1 0 0 0 4
Nghost:        2368.94 ave        2390 max        2347 min
Histogram: 2 1 1 2 1 2 3 0 3 1
Neighs:              0 ave           0 max           0 min
Histogram: 16 0 0 0 0 0 0 0 0 0

Total # of neighbors = 0
Ave neighs/atom = 0
Ave special neighs/atom = 15.567568
Neighbor list builds = 28
Dangerous builds = 0
Generated 0 of 1 mixed pair_coeff terms from geometric mixing rule
Setting up Verlet run ...
  Unit style    : real
  Current step  : 510000
  Time step     : 0.05
Per MPI rank memory allocation (min/avg/max) = 13.35 | 14.29 | 15 Mbytes
   Step          Temp          E_pair         E_mol          TotEng         Press     
    510000   285.75008      388.99615      18531.718      19329.562      343.03719    
    520000   282.13033      378.61468      18545.424      19327.707     -123.42849    
    530000   312.44826      377.24767      18507.453      19331.749      64.727856    
    540000   301.40876      371.6142       18517.044      19319.91      -106.71018    
    550000   302.43625      377.89442      18525.573      19336.19      -24.307283    
    560000   290.73919      378.56394      18529.961      19324.511     -57.402753    
Loop time of 13.8415 on 16 procs for 50000 steps with 481 atoms

Performance: 15.605 ns/day, 1.538 hours/ns, 3612.331 timesteps/s, 1.738 Matom-step/s
100.0% CPU use with 16 MPI tasks x 1 OpenMP threads

MPI task timing breakdown:
Section |  min time  |  avg time  |  max time  |%varavg| %total
---------------------------------------------------------------
Pair    | 0.40068    | 1.9049     | 3.0702     |  55.7 | 13.76
Bond    | 1.7437     | 2.4311     | 2.9739     |  20.0 | 17.56
Neigh   | 0.041251   | 0.042614   | 0.044173   |   0.4 |  0.31
Comm    | 6.9117     | 8.5967     | 10.124     |  32.9 | 62.11
Output  | 0.005806   | 0.0084739  | 0.010561   |   1.6 |  0.06
Modify  | 0.3789     | 0.5        | 0.60507    |   9.8 |  3.61
Other   |            | 0.3577     |            |       |  2.58

Nlocal:        30.0625 ave          40 max          20 min
Histogram: 1 0 3 1 3 1 2 3 1 1
Nghost:        2366.31 ave        2390 max        2339 min
Histogram: 1 1 0 3 3 1 2 2 2 1
Neighs:              0 ave           0 max           0 min
Histogram: 16 0 0 0 0 0 0 0 0 0

Total # of neighbors = 0
Ave neighs/atom = 0
Ave special neighs/atom = 15.567568
Neighbor list builds = 108
Dangerous builds = 0
Generated 0 of 1 mixed pair_coeff terms from geometric mixing rule
Setting up Verlet run ...
  Unit style    : real
  Current step  : 560000
  Time step     : 0.05
Per MPI rank memory allocation (min/avg/max) = 13.35 | 14.29 | 15 Mbytes
   Step          Temp          E_pair         E_mol          TotEng         Press     
    560000   290.73919      378.56394      18529.961      19324.511     -57.402753    
    570000   287.11688      370.35331      18513.022      19294.179     -175.1546     
Loop time of 2.81825 on 16 procs for 10000 steps with 481 atoms

Performance: 15.329 ns/day, 1.566 hours/ns, 3548.298 timesteps/s, 1.707 Matom-step/s
100.0% CPU use with 16 MPI tasks x 1 OpenMP threads

MPI task timing breakdown:
Section |  min time  |  avg time  |  max time  |%varavg| %total
---------------------------------------------------------------
Pair    | 0.083764   | 0.39712    | 0.65932    |  25.8 | 14.09
Bond    | 0.33755    | 0.50642    | 0.61819    |   9.5 | 17.97
Neigh   | 0.0071536  | 0.0073682  | 0.0076214  |   0.2 |  0.26
Comm    | 1.4076     | 1.7341     | 2.0868     |  15.7 | 61.53
Output  | 0.00091067 | 0.0015285  | 0.002028   |   0.9 |  0.05
Modify  | 0.073395   | 0.098199   | 0.12208    |   4.6 |  3.48
Other   |            | 0.07354    |            |       |  2.61

Nlocal:        30.0625 ave          40 max          20 min
Histogram: 1 2 3 1 1 0 2 3 1 2
Nghost:        2369.69 ave        2388 max        2346 min
Histogram: 1 1 0 1 4 2 2 2 1 2
Neighs:              0 ave           0 max           0 min
Histogram: 16 0 0 0 0 0 0 0 0 0

Total # of neighbors = 0
Ave neighs/atom = 0
Ave special neighs/atom = 15.567568
Neighbor list builds = 18
Dangerous builds = 0
Generated 0 of 1 mixed pair_coeff terms from geometric mixing rule
Setting up Verlet run ...
  Unit style    : real
  Current step  : 570000
  Time step     : 0.05
Per MPI rank memory allocation (min/avg/max) = 13.35 | 14.29 | 15 Mbytes
   Step          Temp          E_pair         E_mol          TotEng         Press     
    570000   287.11688      370.35331      18513.022      19294.179     -175.1546     
    580000   285.27941      379.59465      18516.055      19303.824      45.034338    
    590000   277.61803      380.00228      18533.629      19310.844      123.99594    
    600000   306.4236       364.76491      18546.456      19349.648     -387.23717    
    610000   314.51712      379.90699      18530.848      19360.763      132.17594    
    620000   293.09896      382.43128      18527.331      19329.125      113.75759    
Loop time of 14.2294 on 16 procs for 50000 steps with 481 atoms

Performance: 15.180 ns/day, 1.581 hours/ns, 3513.844 timesteps/s, 1.690 Matom-step/s
100.0% CPU use with 16 MPI tasks x 1 OpenMP threads

MPI task timing breakdown:
Section |  min time  |  avg time  |  max time  |%varavg| %total
---------------------------------------------------------------
Pair    | 0.44429    | 1.9822     | 3.2874     |  58.3 | 13.93
Bond    | 1.5821     | 2.528      | 3.1913     |  24.6 | 17.77
Neigh   | 0.03533    | 0.036538   | 0.037895   |   0.4 |  0.26
Comm    | 6.8614     | 8.7988     | 10.693     |  36.1 | 61.84
Output  | 0.0060677  | 0.0087543  | 0.010862   |   1.6 |  0.06
Modify  | 0.40115    | 0.50643    | 0.65884    |  10.3 |  3.56
Other   |            | 0.3687     |            |       |  2.59

Nlocal:        30.0625 ave          37 max          21 min
Histogram: 1 0 1 3 2 3 1 0 3 2
Nghost:        2376.06 ave        2394 max        2360 min
Histogram: 1 3 2 1 1 1 3 2 1 1
Neighs:              0 ave           0 max           0 min
Histogram: 16 0 0 0 0 0 0 0 0 0

Total # of neighbors = 0
Ave neighs/atom = 0
Ave special neighs/atom = 15.567568
Neighbor list builds = 88
Dangerous builds = 0
Generated 0 of 1 mixed pair_coeff terms from geometric mixing rule
Setting up Verlet run ...
  Unit style    : real
  Current step  : 620000
  Time step     : 0.05
Per MPI rank memory allocation (min/avg/max) = 13.35 | 14.29 | 15 Mbytes
   Step          Temp          E_pair         E_mol          TotEng         Press     
    620000   293.09896      382.43128      18527.331      19329.125      113.75759    
    630000   286.95752      370.79386      18538.984      19320.353     -131.75469    
Loop time of 2.8568 on 16 procs for 10000 steps with 481 atoms

Performance: 15.122 ns/day, 1.587 hours/ns, 3500.419 timesteps/s, 1.684 Matom-step/s
100.0% CPU use with 16 MPI tasks x 1 OpenMP threads

MPI task timing breakdown:
Section |  min time  |  avg time  |  max time  |%varavg| %total
---------------------------------------------------------------
Pair    | 0.095361   | 0.39738    | 0.67047    |  26.5 | 13.91
Bond    | 0.29422    | 0.50674    | 0.6625     |  12.9 | 17.74
Neigh   | 0.0048944  | 0.0050466  | 0.0052097  |   0.1 |  0.18
Comm    | 1.3499     | 1.7719     | 2.1825     |  17.0 | 62.02
Output  | 0.00095065 | 0.0015532  | 0.0020475  |   0.9 |  0.05
Modify  | 0.077652   | 0.10001    | 0.13226    |   4.9 |  3.50
Other   |            | 0.07415    |            |       |  2.60

Nlocal:        30.0625 ave          35 max          24 min
Histogram: 2 0 1 2 2 3 0 1 2 3
Nghost:        2363.69 ave        2393 max        2332 min
Histogram: 1 2 1 3 1 1 2 1 1 3
Neighs:              0 ave           0 max           0 min
Histogram: 16 0 0 0 0 0 0 0 0 0

Total # of neighbors = 0
Ave neighs/atom = 0
Ave special neighs/atom = 15.567568
Neighbor list builds = 12
Dangerous builds = 0
Generated 0 of 1 mixed pair_coeff terms from geometric mixing rule
Setting up Verlet run ...
  Unit style    : real
  Current step  : 630000
  Time step     : 0.05
Per MPI rank memory allocation (min/avg/max) = 13.35 | 14.29 | 15 Mbytes
   Step          Temp          E_pair         E_mol          TotEng         Press     
    630000   286.95752      370.79386      18538.984      19320.353     -131.75469    
    640000   288.16182      378.4026       18516.723      19307.425      22.805002    
    650000   286.75278      375.99388      18515.395      19301.672     -114.01719    
    660000   297.6306       377.60795      18528.479      19331.934      89.776821    
    670000   299.65831      357.71233      18547.804      19334.264     -526.25758    
    680000   302.71151      380.72427      18520.677      19334.517      155.72183    
Loop time of 13.4531 on 16 procs for 50000 steps with 481 atoms

Performance: 16.056 ns/day, 1.495 hours/ns, 3716.609 timesteps/s, 1.788 Matom-step/s
100.0% CPU use with 16 MPI tasks x 1 OpenMP threads

MPI task timing breakdown:
Section |  min time  |  avg time  |  max time  |%varavg| %total
---------------------------------------------------------------
Pair    | 0.40325    | 1.843      | 2.9866     |  55.3 | 13.70
Bond    | 1.487      | 2.3502     | 2.9824     |  23.6 | 17.47
Neigh   | 0.023032   | 0.023771   | 0.024592   |   0.3 |  0.18
Comm    | 6.638      | 8.3714     | 10.085     |  34.1 | 62.23
Output  | 0.0054114  | 0.0078108  | 0.0097671  |   1.5 |  0.06
Modify  | 0.3928     | 0.50866    | 0.61704    |   9.6 |  3.78
Other   |            | 0.3483     |            |       |  2.59

Nlocal:        30.0625 ave          40 max          22 min
Histogram: 1 3 1 3 0 3 2 1 1 1
Nghost:        2364.06 ave        2385 max        2345 min
Histogram: 1 3 0 1 3 3 2 1 1 1
Neighs:              0 ave           0 max           0 min
Histogram: 16 0 0 0 0 0 0 0 0 0

Total # of neighbors = 0
Ave neighs/atom = 0
Ave special neighs/atom = 15.567568
Neighbor list builds = 61
Dangerous builds = 0
Generated 0 of 1 mixed pair_coeff terms from geometric mixing rule
Setting up Verlet run ...
  Unit style    : real
  Current step  : 680000
  Time step     : 0.05
Per MPI rank memory allocation (min/avg/max) = 13.35 | 14.29 | 15 Mbytes
   Step          Temp          E_pair         E_mol          TotEng         Press     
    680000   302.71151      380.72427      18520.677      19334.517      155.72183    
    690000   300.0486       372.95362      18527.103      19329.363     -107.3426     
Loop time of 2.81669 on 16 procs for 10000 steps with 481 atoms

Performance: 15.337 ns/day, 1.565 hours/ns, 3550.260 timesteps/s, 1.708 Matom-step/s
100.0% CPU use with 16 MPI tasks x 1 OpenMP threads

MPI task timing breakdown:
Section |  min time  |  avg time  |  max time  |%varavg| %total
---------------------------------------------------------------
Pair    | 0.092951   | 0.39562    | 0.66477    |  26.3 | 14.05
Bond    | 0.31541    | 0.50447    | 0.66162    |  12.3 | 17.91
Neigh   | 0.0047676  | 0.0049383  | 0.0050868  |   0.1 |  0.18
Comm    | 1.3191     | 1.738      | 2.1144     |  16.7 | 61.70
Output  | 0.00090318 | 0.0015177  | 0.0020187  |   0.9 |  0.05
Modify  | 0.078134   | 0.099135   | 0.12604    |   4.7 |  3.52
Other   |            | 0.07304    |            |       |  2.59

Nlocal:        30.0625 ave          37 max          20 min
Histogram: 1 0 3 0 3 0 2 2 3 2
Nghost:        2369.31 ave        2389 max        2352 min
Histogram: 2 2 1 3 1 1 2 1 2 1
Neighs:              0 ave           0 max           0 min
Histogram: 16 0 0 0 0 0 0 0 0 0

Total # of neighbors = 0
Ave neighs/atom = 0
Ave special neighs/atom = 15.567568
Neighbor list builds = 12
Dangerous builds = 0
Generated 0 of 1 mixed pair_coeff terms from geometric mixing rule
Setting up Verlet run ...
  Unit style    : real
  Current step  : 690000
  Time step     : 0.05
Per MPI rank memory allocation (min/avg/max) = 13.35 | 14.29 | 15 Mbytes
   Step          Temp          E_pair         E_mol          TotEng         Press     
    690000   300.0486       372.95362      18527.103      19329.363     -107.3426     
    700000   297.10017      370.13234      18525.854      19321.074     -161.71493    
    710000   280.07886      373.83336      18548.683      19323.25      -83.976499    
    720000   304.06997      362.34566      18550.85       19348.256     -453.89732    
    730000   298.00756      368.27956      18532.939      19327.604     -199.77327    
    740000   279.80863      370.54087      18531.922      19302.81      -162.67103    
Loop time of 14.4201 on 16 procs for 50000 steps with 481 atoms

Performance: 14.979 ns/day, 1.602 hours/ns, 3467.374 timesteps/s, 1.668 Matom-step/s
100.0% CPU use with 16 MPI tasks x 1 OpenMP threads

MPI task timing breakdown:
Section |  min time  |  avg time  |  max time  |%varavg| %total
---------------------------------------------------------------
Pair    | 0.43127    | 1.9819     | 3.3738     |  58.6 | 13.74
Bond    | 1.5648     | 2.5288     | 3.3293     |  25.6 | 17.54
Neigh   | 0.041154   | 0.042488   | 0.044008   |   0.4 |  0.29
Comm    | 6.8042     | 8.9843     | 10.875     |  36.9 | 62.30
Output  | 0.0060488  | 0.00875    | 0.010859   |   1.6 |  0.06
Modify  | 0.39235    | 0.50559    | 0.62941    |  10.0 |  3.51
Other   |            | 0.3684     |            |       |  2.55

Nlocal:        30.0625 ave          40 max          21 min
Histogram: 1 1 3 1 3 2 2 1 0 2
Nghost:        2364.81 ave        2379 max        2347 min
Histogram: 1 1 2 2 1 3 0 0 3 3
Neighs:              0 ave           0 max           0 min
Histogram: 16 0 0 0 0 0 0 0 0 0

Total # of neighbors = 0
Ave neighs/atom = 0
Ave special neighs/atom = 15.567568
Neighbor list builds = 100
Dangerous builds = 0
Generated 0 of 1 mixed pair_coeff terms from geometric mixing rule
Setting up Verlet run ...
  Unit style    : real
  Current step  : 740000
  Time step     : 0.05
Per MPI rank memory allocation (min/avg/max) = 13.35 | 14.29 | 15 Mbytes
   Step          Temp          E_pair         E_mol          TotEng         Press     
    740000   279.80863      370.54087      18531.922      19302.81      -162.67103    
    750000   287.1088       377.23739      18522.675      19310.704      65.40329     
Loop time of 2.90424 on 16 procs for 10000 steps with 481 atoms

Performance: 14.875 ns/day, 1.613 hours/ns, 3443.247 timesteps/s, 1.656 Matom-step/s
100.0% CPU use with 16 MPI tasks x 1 OpenMP threads

MPI task timing breakdown:
Section |  min time  |  avg time  |  max time  |%varavg| %total
---------------------------------------------------------------
Pair    | 0.081393   | 0.39733    | 0.68183    |  26.2 | 13.68
Bond    | 0.29994    | 0.50668    | 0.67129    |  12.1 | 17.45
Neigh   | 0.0080811  | 0.008379   | 0.0086544  |   0.2 |  0.29
Comm    | 1.375      | 1.8169     | 2.2166     |  16.8 | 62.56
Output  | 0.00093037 | 0.0015244  | 0.0020254  |   0.9 |  0.05
Modify  | 0.077538   | 0.09982    | 0.12868    |   4.8 |  3.44
Other   |            | 0.07358    |            |       |  2.53

Nlocal:        30.0625 ave          42 max          22 min
Histogram: 1 2 2 2 4 2 1 1 0 1
Nghost:        2368.19 ave        2386 max        2354 min
Histogram: 1 3 2 3 1 2 1 1 0 2
Neighs:              0 ave           0 max           0 min
Histogram: 16 0 0 0 0 0 0 0 0 0

Total # of neighbors = 0
Ave neighs/atom = 0
Ave special neighs/atom = 15.567568
Neighbor list builds = 20
Dangerous builds = 0
Generated 0 of 1 mixed pair_coeff terms from geometric mixing rule
Setting up Verlet run ...
  Unit style    : real
  Current step  : 750000
  Time step     : 0.05
Per MPI rank memory allocation (min/avg/max) = 13.35 | 14.29 | 15 Mbytes
   Step          Temp          E_pair         E_mol          TotEng         Press     
    750000   287.1088       377.23739      18522.675      19310.704      65.40329     
    760000   300.67117      363.43963      18531.386      19325.022     -288.35722    
    770000   292.52457      380.75985      18545.727      19345.027      208.02476    
    780000   310.36938      382.35187      18520.481      19346.906      240.20521    
    790000   285.11627      374.74782      18536.071      19318.76      -92.546966    
    800000   313.39242      371.84437      18509.604      19329.846     -82.899381    
Loop time of 13.8711 on 16 procs for 50000 steps with 481 atoms

Performance: 15.572 ns/day, 1.541 hours/ns, 3604.612 timesteps/s, 1.734 Matom-step/s
100.0% CPU use with 16 MPI tasks x 1 OpenMP threads

MPI task timing breakdown:
Section |  min time  |  avg time  |  max time  |%varavg| %total
---------------------------------------------------------------
Pair    | 0.37526    | 1.8661     | 3.0108     |  54.9 | 13.45
Bond    | 1.4248     | 2.3822     | 2.9747     |  22.6 | 17.17
Neigh   | 0.026816   | 0.027679   | 0.028654   |   0.3 |  0.20
Comm    | 7.0127     | 8.7327     | 10.575     |  33.4 | 62.96
Output  | 0.0056776  | 0.0082403  | 0.01025    |   1.6 |  0.06
Modify  | 0.3841     | 0.50209    | 0.63609    |  10.0 |  3.62
Other   |            | 0.3521     |            |       |  2.54

Nlocal:        30.0625 ave          36 max          23 min
Histogram: 3 0 1 0 2 1 4 3 1 1
Nghost:        2368.56 ave        2384 max        2351 min
Histogram: 2 0 2 2 1 2 3 0 1 3
Neighs:              0 ave           0 max           0 min
Histogram: 16 0 0 0 0 0 0 0 0 0

Total # of neighbors = 0
Ave neighs/atom = 0
Ave special neighs/atom = 15.567568
Neighbor list builds = 69
Dangerous builds = 0
Generated 0 of 1 mixed pair_coeff terms from geometric mixing rule
Setting up Verlet run ...
  Unit style    : real
  Current step  : 800000
  Time step     : 0.05
Per MPI rank memory allocation (min/avg/max) = 13.35 | 14.29 | 15 Mbytes
   Step          Temp          E_pair         E_mol          TotEng         Press     
    800000   313.39242      371.84437      18509.604      19329.846     -82.899381    
    810000   313.0943       373.0064       18534.307      19355.285     -114.16892    
Loop time of 2.82341 on 16 procs for 10000 steps with 481 atoms

Performance: 15.301 ns/day, 1.569 hours/ns, 3541.814 timesteps/s, 1.704 Matom-step/s
100.0% CPU use with 16 MPI tasks x 1 OpenMP threads

MPI task timing breakdown:
Section |  min time  |  avg time  |  max time  |%varavg| %total
---------------------------------------------------------------
Pair    | 0.081732   | 0.39625    | 0.65027    |  25.6 | 14.03
Bond    | 0.30691    | 0.50581    | 0.63491    |  10.9 | 17.91
Neigh   | 0.0074129  | 0.0076453  | 0.0079217  |   0.2 |  0.27
Comm    | 1.3795     | 1.7415     | 2.1253     |  16.0 | 61.68
Output  | 0.00093907 | 0.0015737  | 0.002083   |   0.9 |  0.06
Modify  | 0.074765   | 0.097229   | 0.12092    |   4.4 |  3.44
Other   |            | 0.07339    |            |       |  2.60

Nlocal:        30.0625 ave          35 max          22 min
Histogram: 1 1 1 0 1 1 4 1 4 2
Nghost:        2370.44 ave        2382 max        2353 min
Histogram: 1 1 0 2 1 3 1 2 1 4
Neighs:              0 ave           0 max           0 min
Histogram: 16 0 0 0 0 0 0 0 0 0

Total # of neighbors = 0
Ave neighs/atom = 0
Ave special neighs/atom = 15.567568
Neighbor list builds = 18
Dangerous builds = 0
Generated 0 of 1 mixed pair_coeff terms from geometric mixing rule
Setting up Verlet run ...
  Unit style    : real
  Current step  : 810000
  Time step     : 0.05
Per MPI rank memory allocation (min/avg/max) = 13.35 | 14.31 | 15 Mbytes
   Step          Temp          E_pair         E_mol          TotEng         Press     
    810000   313.0943       373.0064       18534.307      19355.285     -114.16892    
    820000   294.92352      373.51151      18531.876      19327.361     -75.698038    
    830000   309.70241      378.10427      18518.775      19339.998      117.90669    
    840000   297.11517      377.054        18542.929      19345.093      43.091695    
    850000   309.47636      381.75384      18539.384      19363.933      94.889823    
    860000   327.30705      382.09419      18524.668      19375.069      50.854205    
Loop time of 14.4458 on 16 procs for 50000 steps with 481 atoms

Performance: 14.952 ns/day, 1.605 hours/ns, 3461.212 timesteps/s, 1.665 Matom-step/s
100.0% CPU use with 16 MPI tasks x 1 OpenMP threads

MPI task timing breakdown:
Section |  min time  |  avg time  |  max time  |%varavg| %total
---------------------------------------------------------------
Pair    | 0.38813    | 1.9881     | 3.3322     |  59.1 | 13.76
Bond    | 1.4502     | 2.5363     | 3.264      |  24.1 | 17.56
Neigh   | 0.033743   | 0.0348     | 0.036043   |   0.3 |  0.24
Comm    | 6.9555     | 9.0033     | 11.073     |  37.0 | 62.32
Output  | 0.0060031  | 0.0086086  | 0.010689   |   1.6 |  0.06
Modify  | 0.38891    | 0.50534    | 0.65213    |  10.7 |  3.50
Other   |            | 0.3694     |            |       |  2.56

Nlocal:        30.0625 ave          41 max          18 min
Histogram: 1 1 1 2 2 2 2 2 1 2
Nghost:        2360.31 ave        2383 max        2337 min
Histogram: 1 1 0 3 3 2 3 2 0 1
Neighs:              0 ave           0 max           0 min
Histogram: 16 0 0 0 0 0 0 0 0 0

Total # of neighbors = 0
Ave neighs/atom = 0
Ave special neighs/atom = 15.567568
Neighbor list builds = 82
Dangerous builds = 0
Generated 0 of 1 mixed pair_coeff terms from geometric mixing rule
Setting up Verlet run ...
  Unit style    : real
  Current step  : 860000
  Time step     : 0.05
Per MPI rank memory allocation (min/avg/max) = 13.35 | 14.31 | 15 Mbytes
   Step          Temp          E_pair         E_mol          TotEng         Press     
    860000   327.30705      382.09419      18524.668      19375.069      50.854205    
    870000   298.05006      379.39801      18529.787      19335.632     -5.7629159    
Loop time of 2.86154 on 16 procs for 10000 steps with 481 atoms

Performance: 15.097 ns/day, 1.590 hours/ns, 3494.627 timesteps/s, 1.681 Matom-step/s
100.0% CPU use with 16 MPI tasks x 1 OpenMP threads

MPI task timing breakdown:
Section |  min time  |  avg time  |  max time  |%varavg| %total
---------------------------------------------------------------
Pair    | 0.07426    | 0.39935    | 0.65747    |  26.0 | 13.96
Bond    | 0.30722    | 0.50757    | 0.65132    |  10.5 | 17.74
Neigh   | 0.0069964  | 0.0072178  | 0.0075364  |   0.2 |  0.25
Comm    | 1.3741     | 1.7717     | 2.1606     |  16.4 | 61.92
Output  | 0.00091268 | 0.0015413  | 0.002072   |   0.9 |  0.05
Modify  | 0.076667   | 0.099632   | 0.12505    |   4.6 |  3.48
Other   |            | 0.0745     |            |       |  2.60

Nlocal:        30.0625 ave          38 max          19 min
Histogram: 1 0 0 2 3 3 2 2 1 2
Nghost:        2363.69 ave        2383 max        2347 min
Histogram: 2 1 2 3 0 1 3 3 0 1
Neighs:              0 ave           0 max           0 min
Histogram: 16 0 0 0 0 0 0 0 0 0

Total # of neighbors = 0
Ave neighs/atom = 0
Ave special neighs/atom = 15.567568
Neighbor list builds = 17
Dangerous builds = 0
Generated 0 of 1 mixed pair_coeff terms from geometric mixing rule
Setting up Verlet run ...
  Unit style    : real
  Current step  : 870000
  Time step     : 0.05
Per MPI rank memory allocation (min/avg/max) = 13.35 | 14.32 | 15 Mbytes
   Step          Temp          E_pair         E_mol          TotEng         Press     
    870000   298.05006      379.39801      18529.787      19335.632     -5.7629159    
    880000   295.89571      370.12605      18508.105      19301.595     -257.98225    
    890000   300.36974      377.37842      18524.644      19331.788     -83.667526    
    900000   300.3467       377.55668      18547.804      19355.094     -74.093862    
    910000   285.86153      376.28291      18552.341      19337.631     -112.79127    
    920000   294.38593      376.57307      18520.806      19318.583     -83.581548    
Loop time of 13.6817 on 16 procs for 50000 steps with 481 atoms

Performance: 15.788 ns/day, 1.520 hours/ns, 3654.520 timesteps/s, 1.758 Matom-step/s
100.0% CPU use with 16 MPI tasks x 1 OpenMP threads

MPI task timing breakdown:
Section |  min time  |  avg time  |  max time  |%varavg| %total
---------------------------------------------------------------
Pair    | 0.34141    | 1.8759     | 3.035      |  56.1 | 13.71
Bond    | 1.3683     | 2.3869     | 3.0207     |  23.4 | 17.45
Neigh   | 0.032766   | 0.033857   | 0.035071   |   0.3 |  0.25
Comm    | 6.9336     | 8.5233     | 10.449     |  35.1 | 62.30
Output  | 0.0055546  | 0.0078556  | 0.009818   |   1.5 |  0.06
Modify  | 0.39944    | 0.50089    | 0.60734    |   9.3 |  3.66
Other   |            | 0.3529     |            |       |  2.58

Nlocal:        30.0625 ave          40 max          22 min
Histogram: 1 3 1 3 0 3 2 1 1 1
Nghost:        2364.81 ave        2385 max        2348 min
Histogram: 2 0 2 2 4 1 3 1 0 1
Neighs:              0 ave           0 max           0 min
Histogram: 16 0 0 0 0 0 0 0 0 0

Total # of neighbors = 0
Ave neighs/atom = 0
Ave special neighs/atom = 15.567568
Neighbor list builds = 85
Dangerous builds = 0
Generated 0 of 1 mixed pair_coeff terms from geometric mixing rule
Setting up Verlet run ...
  Unit style    : real
  Current step  : 920000
  Time step     : 0.05
Per MPI rank memory allocation (min/avg/max) = 13.35 | 14.32 | 15 Mbytes
   Step          Temp          E_pair         E_mol          TotEng         Press     
    920000   294.38593      376.57307      18520.806      19318.583     -83.581548    
    930000   290.72186      374.64767      18517.374      19307.983     -102.41394    
Loop time of 2.58695 on 16 procs for 10000 steps with 481 atoms

Performance: 16.699 ns/day, 1.437 hours/ns, 3865.551 timesteps/s, 1.859 Matom-step/s
100.0% CPU use with 16 MPI tasks x 1 OpenMP threads

MPI task timing breakdown:
Section |  min time  |  avg time  |  max time  |%varavg| %total
---------------------------------------------------------------
Pair    | 0.060265   | 0.35091    | 0.57038    |  24.1 | 13.56
Bond    | 0.24751    | 0.44648    | 0.53776    |  10.0 | 17.26
Neigh   | 0.0042511  | 0.0043961  | 0.0045753  |   0.1 |  0.17
Comm    | 1.3412     | 1.6214     | 2.0003     |  15.1 | 62.68
Output  | 0.00079985 | 0.0013196  | 0.0017539  |   0.8 |  0.05
Modify  | 0.06858    | 0.095716   | 0.1236     |   5.1 |  3.70
Other   |            | 0.06674    |            |       |  2.58

Nlocal:        30.0625 ave          37 max          22 min
Histogram: 2 1 1 0 4 0 2 0 5 1
Nghost:        2356.19 ave        2370 max        2339 min
Histogram: 2 0 3 1 2 1 0 0 4 3
Neighs:              0 ave           0 max           0 min
Histogram: 16 0 0 0 0 0 0 0 0 0

Total # of neighbors = 0
Ave neighs/atom = 0
Ave special neighs/atom = 15.567568
Neighbor list builds = 12
Dangerous builds = 0
Generated 0 of 1 mixed pair_coeff terms from geometric mixing rule
Setting up Verlet run ...
  Unit style    : real
  Current step  : 930000
  Time step     : 0.05
Per MPI rank memory allocation (min/avg/max) = 13.35 | 14.32 | 15 Mbytes
   Step          Temp          E_pair         E_mol          TotEng         Press     
    930000   290.72186      374.64767      18517.374      19307.983     -102.41394    
    940000   305.59257      383.11196      18526.681      19347.032      110.59603    
    950000   316.06119      379.09398      18527.674      19358.984     -130.31286    
    960000   291.11977      378.30043      18539.134      19333.965     -54.262096    
    970000   309.78115      365.12267      18542.058      19350.412     -378.40335    
    980000   315.7835       389.58007      18527.934      19369.333      244.45107    
Loop time of 14.2113 on 16 procs for 50000 steps with 481 atoms

Performance: 15.199 ns/day, 1.579 hours/ns, 3518.318 timesteps/s, 1.692 Matom-step/s
100.0% CPU use with 16 MPI tasks x 1 OpenMP threads

MPI task timing breakdown:
Section |  min time  |  avg time  |  max time  |%varavg| %total
---------------------------------------------------------------
Pair    | 0.37009    | 1.9859     | 3.3328     |  58.1 | 13.97
Bond    | 1.4781     | 2.5252     | 3.188      |  24.4 | 17.77
Neigh   | 0.033997   | 0.035156   | 0.036437   |   0.4 |  0.25
Comm    | 7.0361     | 8.7827     | 10.786     |  37.0 | 61.80
Output  | 0.005967   | 0.008657   | 0.010731   |   1.6 |  0.06
Modify  | 0.38717    | 0.50549    | 0.60966    |  10.0 |  3.56
Other   |            | 0.3683     |            |       |  2.59

Nlocal:        30.0625 ave          37 max          21 min
Histogram: 1 0 2 2 0 4 2 1 3 1
Nghost:        2374.19 ave        2394 max        2351 min
Histogram: 1 0 0 3 2 5 2 0 1 2
Neighs:              0 ave           0 max           0 min
Histogram: 16 0 0 0 0 0 0 0 0 0

Total # of neighbors = 0
Ave neighs/atom = 0
Ave special neighs/atom = 15.567568
Neighbor list builds = 84
Dangerous builds = 0
Generated 0 of 1 mixed pair_coeff terms from geometric mixing rule
Setting up Verlet run ...
  Unit style    : real
  Current step  : 980000
  Time step     : 0.05
Per MPI rank memory allocation (min/avg/max) = 13.35 | 14.32 | 15 Mbytes
   Step          Temp          E_pair         E_mol          TotEng         Press     
    980000   315.7835       389.58007      18527.934      19369.333      244.45107    
    990000   312.02022      376.34458      18542.579      19365.359     -120.46868    
Loop time of 2.84924 on 16 procs for 10000 steps with 481 atoms

Performance: 15.162 ns/day, 1.583 hours/ns, 3509.709 timesteps/s, 1.688 Matom-step/s
100.0% CPU use with 16 MPI tasks x 1 OpenMP threads

MPI task timing breakdown:
Section |  min time  |  avg time  |  max time  |%varavg| %total
---------------------------------------------------------------
Pair    | 0.081752   | 0.39807    | 0.68044    |  26.3 | 13.97
Bond    | 0.29013    | 0.5052     | 0.66558    |  11.9 | 17.73
Neigh   | 0.0063658  | 0.006607   | 0.006833   |   0.2 |  0.23
Comm    | 1.4114     | 1.765      | 2.1795     |  16.9 | 61.95
Output  | 0.00093082 | 0.0015364  | 0.0020272  |   0.9 |  0.05
Modify  | 0.074221   | 0.098941   | 0.12302    |   4.7 |  3.47
Other   |            | 0.07389    |            |       |  2.59

Nlocal:        30.0625 ave          34 max          24 min
Histogram: 1 1 1 1 0 1 1 5 1 4
Nghost:        2376.06 ave        2387 max        2365 min
Histogram: 3 2 0 3 0 1 1 0 2 4
Neighs:              0 ave           0 max           0 min
Histogram: 16 0 0 0 0 0 0 0 0 0

Total # of neighbors = 0
Ave neighs/atom = 0
Ave special neighs/atom = 15.567568
Neighbor list builds = 16
Dangerous builds = 0
Generated 0 of 1 mixed pair_coeff terms from geometric mixing rule
Setting up Verlet run ...
  Unit style    : real
  Current step  : 990000
  Time step     : 0.05
Per MPI rank memory allocation (min/avg/max) = 13.35 | 14.32 | 15 Mbytes
   Step          Temp          E_pair         E_mol          TotEng         Press     
    990000   312.02022      376.34458      18542.579      19365.359     -120.46868    
   1000000   299.96581      372.16955      18546.823      19348.18      -596.74257    
   1010000   291.3968       400.78327      18529.621      19347.331      114.50298    
   1020000   301.2245       392.48728      18529.386      19352.862     -196.65775    
   1030000   292.95764      389.49711      18532.565      19341.223     -166.41742    
   1040000   281.97008      389.92369      18521.652      19315.016     -119.63694    
Loop time of 14.1544 on 16 procs for 50000 steps with 481 atoms

Performance: 15.260 ns/day, 1.573 hours/ns, 3532.481 timesteps/s, 1.699 Matom-step/s
100.0% CPU use with 16 MPI tasks x 1 OpenMP threads

MPI task timing breakdown:
Section |  min time  |  avg time  |  max time  |%varavg| %total
---------------------------------------------------------------
Pair    | 0.3829     | 1.9531     | 3.1315     |  59.2 | 13.80
Bond    | 1.689      | 2.4525     | 3.2679     |  23.0 | 17.33
Neigh   | 0.090193   | 0.093029   | 0.096373   |   0.6 |  0.66
Comm    | 7.0212     | 8.7891     | 10.46      |  36.5 | 62.09
Output  | 0.0058577  | 0.0084487  | 0.010512   |   1.6 |  0.06
Modify  | 0.39462    | 0.49838    | 0.58473    |   8.5 |  3.52
Other   |            | 0.3598     |            |       |  2.54

Nlocal:        30.0625 ave          41 max          22 min
Histogram: 4 1 1 2 1 1 3 1 1 1
Nghost:        2372.69 ave        2390 max        2354 min
Histogram: 2 1 1 2 2 2 1 1 1 3
Neighs:              0 ave           0 max           0 min
Histogram: 16 0 0 0 0 0 0 0 0 0

Total # of neighbors = 0
Ave neighs/atom = 0
Ave special neighs/atom = 15.567568
Neighbor list builds = 226
Dangerous builds = 0
Generated 0 of 1 mixed pair_coeff terms from geometric mixing rule
Setting up Verlet run ...
  Unit style    : real
  Current step  : 1040000
  Time step     : 0.05
Per MPI rank memory allocation (min/avg/max) = 13.35 | 14.32 | 15 Mbytes
   Step          Temp          E_pair         E_mol          TotEng         Press     
   1040000   281.97008      389.92369      18521.652      19315.016     -119.63694    
   1050000   310.6211       402.44394      18516.79       19363.667      217.57907    
Loop time of 2.7022 on 16 procs for 10000 steps with 481 atoms

Performance: 15.987 ns/day, 1.501 hours/ns, 3700.693 timesteps/s, 1.780 Matom-step/s
100.0% CPU use with 16 MPI tasks x 1 OpenMP threads

MPI task timing breakdown:
Section |  min time  |  avg time  |  max time  |%varavg| %total
---------------------------------------------------------------
Pair    | 0.076206   | 0.36274    | 0.58841    |  25.5 | 13.42
Bond    | 0.33204    | 0.45595    | 0.60444    |  11.0 | 16.87
Neigh   | 0.016934   | 0.017479   | 0.018124   |   0.3 |  0.65
Comm    | 1.3395     | 1.6997     | 2.0013     |  15.7 | 62.90
Output  | 0.00085522 | 0.0013832  | 0.0018354  |   0.8 |  0.05
Modify  | 0.074432   | 0.097042   | 0.11192    |   4.5 |  3.59
Other   |            | 0.0679     |            |       |  2.51

Nlocal:        30.0625 ave          43 max          19 min
Histogram: 2 1 2 1 3 2 2 2 0 1
Nghost:        2380.56 ave        2405 max        2353 min
Histogram: 1 1 0 2 2 5 2 1 1 1
Neighs:              0 ave           0 max           0 min
Histogram: 16 0 0 0 0 0 0 0 0 0

Total # of neighbors = 0
Ave neighs/atom = 0
Ave special neighs/atom = 15.567568
Neighbor list builds = 45
Dangerous builds = 0
Generated 0 of 1 mixed pair_coeff terms from geometric mixing rule
Setting up Verlet run ...
  Unit style    : real
  Current step  : 1050000
  Time step     : 0.05
Per MPI rank memory allocation (min/avg/max) = 13.35 | 14.32 | 15 Mbytes
   Step          Temp          E_pair         E_mol          TotEng         Press     
   1050000   310.6211       402.44394      18516.79       19363.667      217.57907    
   1060000   317.12845      391.81298      18528.01       19373.567     -32.814932    
   1070000   304.08179      386.87324      18533.883      19355.833     -173.61887    
   1080000   299.26612      384.28078      18518.78       19331.247     -230.46266    
   1090000   334.59771      386.913        18530.905      19396.556     -286.2811     
   1100000   291.18289      394.17107      18546.963      19357.755      54.886886    
Loop time of 14.5048 on 16 procs for 50000 steps with 481 atoms

Performance: 14.892 ns/day, 1.612 hours/ns, 3447.127 timesteps/s, 1.658 Matom-step/s
100.0% CPU use with 16 MPI tasks x 1 OpenMP threads

MPI task timing breakdown:
Section |  min time  |  avg time  |  max time  |%varavg| %total
---------------------------------------------------------------
Pair    | 0.44684    | 2.0125     | 3.2974     |  60.5 | 13.87
Bond    | 1.8306     | 2.5265     | 3.2006     |  23.2 | 17.42
Neigh   | 0.10943    | 0.11277    | 0.11645    |   0.6 |  0.78
Comm    | 7.0129     | 8.9667     | 10.577     |  36.8 | 61.82
Output  | 0.0060816  | 0.0092187  | 0.011723   |   1.9 |  0.06
Modify  | 0.40629    | 0.5092     | 0.61391    |   8.8 |  3.51
Other   |            | 0.3679     |            |       |  2.54

Nlocal:        30.0625 ave          39 max          23 min
Histogram: 1 2 3 2 1 1 5 0 0 1
Nghost:        2369.94 ave        2385 max        2356 min
Histogram: 1 3 2 0 1 3 2 1 1 2
Neighs:              0 ave           0 max           0 min
Histogram: 16 0 0 0 0 0 0 0 0 0

Total # of neighbors = 0
Ave neighs/atom = 0
Ave special neighs/atom = 15.567568
Neighbor list builds = 261
Dangerous builds = 0
Generated 0 of 1 mixed pair_coeff terms from geometric mixing rule
Setting up Verlet run ...
  Unit style    : real
  Current step  : 1100000
  Time step     : 0.05
Per MPI rank memory allocation (min/avg/max) = 13.35 | 14.32 | 15 Mbytes
   Step          Temp          E_pair         E_mol          TotEng         Press     
   1100000   291.18289      394.17107      18546.963      19357.755      54.886886    
   1110000   304.64362      387.87168      18537.871      19361.623     -115.76811    
Loop time of 2.8716 on 16 procs for 10000 steps with 481 atoms

Performance: 15.044 ns/day, 1.595 hours/ns, 3482.380 timesteps/s, 1.675 Matom-step/s
100.0% CPU use with 16 MPI tasks x 1 OpenMP threads

MPI task timing breakdown:
Section |  min time  |  avg time  |  max time  |%varavg| %total
---------------------------------------------------------------
Pair    | 0.085313   | 0.40397    | 0.69204    |  27.4 | 14.07
Bond    | 0.35532    | 0.50555    | 0.65192    |   9.7 | 17.61
Neigh   | 0.020587   | 0.021207   | 0.021901   |   0.3 |  0.74
Comm    | 1.3392     | 1.7677     | 2.1104     |  16.5 | 61.56
Output  | 0.00090978 | 0.0015516  | 0.0020678  |   0.9 |  0.05
Modify  | 0.077317   | 0.098031   | 0.13226    |   4.9 |  3.41
Other   |            | 0.07362    |            |       |  2.56

Nlocal:        30.0625 ave          35 max          23 min
Histogram: 1 0 2 1 1 3 2 2 1 3
Nghost:        2367.81 ave        2382 max        2353 min
Histogram: 2 1 4 0 0 0 2 5 0 2
Neighs:              0 ave           0 max           0 min
Histogram: 16 0 0 0 0 0 0 0 0 0

Total # of neighbors = 0
Ave neighs/atom = 0
Ave special neighs/atom = 15.567568
Neighbor list builds = 50
Dangerous builds = 0
Generated 0 of 1 mixed pair_coeff terms from geometric mixing rule
Setting up Verlet run ...
  Unit style    : real
  Current step  : 1110000
  Time step     : 0.05
Per MPI rank memory allocation (min/avg/max) = 13.35 | 14.32 | 15 Mbytes
   Step          Temp          E_pair         E_mol          TotEng         Press     
   1110000   304.64362      387.87168      18537.871      19361.623     -115.76811    
   1120000   309.32585      389.15766      18529.645      19361.383     -85.184409    
   1130000   313.37987      399.0726       18495.233      19342.686      142.59507    
   1140000   307.08252      397.40369      18518.978      19355.752     -41.721982    
   1150000   313.97983      393.96222      18542.569      19385.77      -70.066645    
   1160000   309.62699      396.77052      18523.89       19363.672      147.57162    
Loop time of 14.258 on 16 procs for 50000 steps with 481 atoms

Performance: 15.149 ns/day, 1.584 hours/ns, 3506.804 timesteps/s, 1.687 Matom-step/s
100.0% CPU use with 16 MPI tasks x 1 OpenMP threads

MPI task timing breakdown:
Section |  min time  |  avg time  |  max time  |%varavg| %total
---------------------------------------------------------------
Pair    | 0.41732    | 1.9739     | 3.1974     |  59.4 | 13.84
Bond    | 1.6467     | 2.4718     | 3.083      |  22.0 | 17.34
Neigh   | 0.09651    | 0.099597   | 0.10297    |   0.6 |  0.70
Comm    | 6.9826     | 8.8318     | 10.569     |  36.1 | 61.94
Output  | 0.0058718  | 0.0085063  | 0.01059    |   1.6 |  0.06
Modify  | 0.39223    | 0.51149    | 0.62178    |   9.6 |  3.59
Other   |            | 0.361      |            |       |  2.53

Nlocal:        30.0625 ave          38 max          23 min
Histogram: 1 0 3 2 4 1 1 2 1 1
Nghost:        2348.69 ave        2367 max        2332 min
Histogram: 1 0 3 4 1 1 3 1 1 1
Neighs:              0 ave           0 max           0 min
Histogram: 16 0 0 0 0 0 0 0 0 0

Total # of neighbors = 0
Ave neighs/atom = 0
Ave special neighs/atom = 15.567568
Neighbor list builds = 241
Dangerous builds = 0
Generated 0 of 1 mixed pair_coeff terms from geometric mixing rule
Setting up Verlet run ...
  Unit style    : real
  Current step  : 1160000
  Time step     : 0.05
Per MPI rank memory allocation (min/avg/max) = 13.35 | 14.33 | 15 Mbytes
   Step          Temp          E_pair         E_mol          TotEng         Press     
   1160000   309.62699      396.77052      18523.89       19363.672      147.57162    
   1170000   306.07848      401.5822       18500.961      19340.477      232.31852    
Loop time of 2.41216 on 16 procs for 10000 steps with 481 atoms

Performance: 17.909 ns/day, 1.340 hours/ns, 4145.658 timesteps/s, 1.994 Matom-step/s
100.0% CPU use with 16 MPI tasks x 1 OpenMP threads

MPI task timing breakdown:
Section |  min time  |  avg time  |  max time  |%varavg| %total
---------------------------------------------------------------
Pair    | 0.06849    | 0.31718    | 0.49123    |  22.7 | 13.15
Bond    | 0.28013    | 0.39729    | 0.48732    |   8.7 | 16.47
Neigh   | 0.014111   | 0.014621   | 0.015136   |   0.3 |  0.61
Comm    | 1.2545     | 1.526      | 1.7915     |  13.6 | 63.26
Output  | 0.00066735 | 0.0011474  | 0.0015727  |   0.8 |  0.05
Modify  | 0.067415   | 0.094807   | 0.11256    |   5.3 |  3.93
Other   |            | 0.06111    |            |       |  2.53

Nlocal:        30.0625 ave          40 max          22 min
Histogram: 2 3 1 1 1 2 2 3 0 1
Nghost:        2357.69 ave        2379 max        2332 min
Histogram: 1 1 3 2 1 1 1 1 0 5
Neighs:              0 ave           0 max           0 min
Histogram: 16 0 0 0 0 0 0 0 0 0

Total # of neighbors = 0
Ave neighs/atom = 0
Ave special neighs/atom = 15.567568
Neighbor list builds = 46
Dangerous builds = 0
Generated 0 of 1 mixed pair_coeff terms from geometric mixing rule
Setting up Verlet run ...
  Unit style    : real
  Current step  : 1170000
  Time step     : 0.05
Per MPI rank memory allocation (min/avg/max) = 13.35 | 14.33 | 15 Mbytes
   Step          Temp          E_pair         E_mol          TotEng         Press     
   1170000   306.07848      401.5822       18500.961      19340.477      232.31852    
   1180000   290.64063      391.65174      18537.257      19344.754     -49.622301    
   1190000   305.60901      395.3306       18530.818      19363.411     -54.126998    
   1200000   300.18983      388.02354      18501.285      19318.817     -217.52751    
   1210000   290.62925      388.83114      18510.906      19315.566     -144.23517    
   1220000   291.81785      393.56493      18543.563      19354.657     -30.148724    
Loop time of 12.1501 on 16 procs for 50000 steps with 481 atoms

Performance: 17.778 ns/day, 1.350 hours/ns, 4115.183 timesteps/s, 1.979 Matom-step/s
100.0% CPU use with 16 MPI tasks x 1 OpenMP threads

MPI task timing breakdown:
Section |  min time  |  avg time  |  max time  |%varavg| %total
---------------------------------------------------------------
Pair    | 0.32436    | 1.5838     | 2.5857     |  50.4 | 13.04
Bond    | 1.3305     | 1.9826     | 2.54       |  20.8 | 16.32
Neigh   | 0.073672   | 0.076066   | 0.078638   |   0.5 |  0.63
Comm    | 6.0985     | 7.7153     | 9.104      |  30.7 | 63.50
Output  | 0.0043942  | 0.0063842  | 0.0080516  |   1.4 |  0.05
Modify  | 0.35885    | 0.4811     | 0.55771    |  10.5 |  3.96
Other   |            | 0.3049     |            |       |  2.51

Nlocal:        30.0625 ave          41 max          20 min
Histogram: 2 0 3 1 2 3 1 2 1 1
Nghost:        2358.81 ave        2381 max        2330 min
Histogram: 1 1 0 3 2 2 1 3 1 2
Neighs:              0 ave           0 max           0 min
Histogram: 16 0 0 0 0 0 0 0 0 0

Total # of neighbors = 0
Ave neighs/atom = 0
Ave special neighs/atom = 15.567568
Neighbor list builds = 228
Dangerous builds = 0
Generated 0 of 1 mixed pair_coeff terms from geometric mixing rule
Setting up Verlet run ...
  Unit style    : real
  Current step  : 1220000
  Time step     : 0.05
Per MPI rank memory allocation (min/avg/max) = 13.35 | 14.33 | 15 Mbytes
   Step          Temp          E_pair         E_mol          TotEng         Press     
   1220000   291.81785      393.56493      18543.563      19354.657     -30.148724    
   1230000   295.1104       395.94911      18549.416      19367.606      65.727165    
[...]
Loop time of 14.7743 on 16 procs for 50000 steps with 481 atoms

Performance: 14.620 ns/day, 1.642 hours/ns, 3384.255 timesteps/s, 1.628 Matom-step/s
100.0% CPU use with 16 MPI tasks x 1 OpenMP threads

MPI task timing breakdown:
Section |  min time  |  avg time  |  max time  |%varavg| %total
---------------------------------------------------------------
Pair    | 0.51895    | 1.9859     | 3.1106     |  59.9 | 13.44
Bond    | 1.7514     | 2.5262     | 3.2824     |  26.3 | 17.10
Neigh   | 0.044057   | 0.045341   | 0.046855   |   0.4 |  0.31
Comm    | 7.6694     | 9.3221     | 10.971     |  34.9 | 63.10
Output  | 0.0060374  | 0.0087526  | 0.010863   |   1.6 |  0.06
Modify  | 0.40456    | 0.51692    | 0.60021    |  10.5 |  3.50
Other   |            | 0.3691     |            |       |  2.50

Nlocal:        30.0625 ave          48 max          15 min
Histogram: 1 0 2 4 3 4 1 0 0 1
Nghost:        2370.44 ave        2389 max        2356 min
Histogram: 3 1 2 3 1 0 3 1 0 2
Neighs:              0 ave           0 max           0 min
Histogram: 16 0 0 0 0 0 0 0 0 0

Total # of neighbors = 0
Ave neighs/atom = 0
Ave special neighs/atom = 15.567568
Neighbor list builds = 104
Dangerous builds = 0
Generated 0 of 1 mixed pair_coeff terms from geometric mixing rule
Setting up Verlet run ...
  Unit style    : real
  Current step  : 2780000
  Time step     : 0.05
Per MPI rank memory allocation (min/avg/max) = 13.36 | 14.4 | 15 Mbytes
   Step          Temp          E_pair         E_mol          TotEng         Press     
   2780000   301.67167      372.28188      18503.643      19307.554      62.959801    
   2790000   286.38631      366.51831      18513.29       19289.567     -233.01326    
Loop time of 2.9061 on 16 procs for 10000 steps with 481 atoms

Performance: 14.865 ns/day, 1.615 hours/ns, 3441.036 timesteps/s, 1.655 Matom-step/s
100.0% CPU use with 16 MPI tasks x 1 OpenMP threads

MPI task timing breakdown:
Section |  min time  |  avg time  |  max time  |%varavg| %total
---------------------------------------------------------------
Pair    | 0.10738    | 0.39694    | 0.6252     |  27.3 | 13.66
Bond    | 0.37307    | 0.50509    | 0.67229    |  12.4 | 17.38
Neigh   | 0.0061761  | 0.0063661  | 0.0066046  |   0.1 |  0.22
Comm    | 1.4626     | 1.8185     | 2.1174     |  16.5 | 62.58
Output  | 0.00096321 | 0.0015893  | 0.0021035  |   0.9 |  0.05
Modify  | 0.088126   | 0.10366    | 0.12005    |   3.4 |  3.57
Other   |            | 0.07391    |            |       |  2.54

Nlocal:        30.0625 ave          45 max          20 min
Histogram: 2 0 3 4 2 2 1 1 0 1
Nghost:        2362.56 ave        2399 max        2335 min
Histogram: 2 2 2 2 2 2 2 0 0 2
Neighs:              0 ave           0 max           0 min
Histogram: 16 0 0 0 0 0 0 0 0 0

Total # of neighbors = 0
Ave neighs/atom = 0
Ave special neighs/atom = 15.567568
Neighbor list builds = 15
Dangerous builds = 0
Generated 0 of 1 mixed pair_coeff terms from geometric mixing rule
Setting up Verlet run ...
  Unit style    : real
  Current step  : 2790000
  Time step     : 0.05
Per MPI rank memory allocation (min/avg/max) = 13.36 | 14.4 | 15 Mbytes
   Step          Temp          E_pair         E_mol          TotEng         Press     
   2790000   286.38631      366.51831      18513.29       19289.567     -233.01326    
   2800000   285.78563      372.07438      18488.083      19269.056     -48.420236    
   2810000   291.08959      371.38883      18520.733      19308.61      -137.5541     
   2820000   289.58281      373.78915      18537.325      19325.446      64.103006    
   2830000   308.99873      369.51092      18524.212      19335.835     -23.582556    
   2840000   295.47548      369.76696      18498.427      19290.957     -60.618475    
Loop time of 14.0117 on 16 procs for 50000 steps with 481 atoms

Performance: 15.416 ns/day, 1.557 hours/ns, 3568.447 timesteps/s, 1.716 Matom-step/s
100.0% CPU use with 16 MPI tasks x 1 OpenMP threads

MPI task timing breakdown:
Section |  min time  |  avg time  |  max time  |%varavg| %total
---------------------------------------------------------------
Pair    | 0.4768     | 1.8793     | 2.9252     |  59.0 | 13.41
Bond    | 1.5971     | 2.3896     | 3.1545     |  25.7 | 17.05
Neigh   | 0.035751   | 0.036928   | 0.038289   |   0.4 |  0.26
Comm    | 7.2124     | 8.8313     | 10.458     |  34.7 | 63.03
Output  | 0.0057597  | 0.0082847  | 0.010309   |   1.6 |  0.06
Modify  | 0.40843    | 0.5125     | 0.59145    |   9.7 |  3.66
Other   |            | 0.3537     |            |       |  2.52

Nlocal:        30.0625 ave          40 max          20 min
Histogram: 1 0 0 4 2 4 2 1 1 1
Nghost:        2363.31 ave        2385 max        2339 min
Histogram: 3 1 1 0 1 1 5 1 0 3
Neighs:              0 ave           0 max           0 min
Histogram: 16 0 0 0 0 0 0 0 0 0

Total # of neighbors = 0
Ave neighs/atom = 0
Ave special neighs/atom = 15.567568
Neighbor list builds = 89
Dangerous builds = 0
Generated 0 of 1 mixed pair_coeff terms from geometric mixing rule
Setting up Verlet run ...
  Unit style    : real
  Current step  : 2840000
  Time step     : 0.05
Per MPI rank memory allocation (min/avg/max) = 13.36 | 14.4 | 15 Mbytes
   Step          Temp          E_pair         E_mol          TotEng         Press     
   2840000   295.47548      369.76696      18498.427      19290.957     -60.618475    
   2850000   285.04499      370.685        18502.899      19281.423     -216.833      
Loop time of 2.83875 on 16 procs for 10000 steps with 481 atoms

Performance: 15.218 ns/day, 1.577 hours/ns, 3522.683 timesteps/s, 1.694 Matom-step/s
100.0% CPU use with 16 MPI tasks x 1 OpenMP threads

MPI task timing breakdown:
Section |  min time  |  avg time  |  max time  |%varavg| %total
---------------------------------------------------------------
Pair    | 0.10222    | 0.39503    | 0.62896    |  27.0 | 13.92
Bond    | 0.31055    | 0.50211    | 0.62649    |  12.3 | 17.69
Neigh   | 0.0077038  | 0.0079398  | 0.0082289  |   0.2 |  0.28
Comm    | 1.4531     | 1.7594     | 2.131      |  16.3 | 61.98
Output  | 0.00094326 | 0.0015331  | 0.0020152  |   0.8 |  0.05
Modify  | 0.082011   | 0.10014    | 0.11641    |   3.9 |  3.53
Other   |            | 0.07255    |            |       |  2.56

Nlocal:        30.0625 ave          41 max          20 min
Histogram: 1 2 1 3 2 1 3 0 2 1
Nghost:        2366.31 ave        2389 max        2351 min
Histogram: 3 1 3 2 1 1 2 2 0 1
Neighs:              0 ave           0 max           0 min
Histogram: 16 0 0 0 0 0 0 0 0 0

Total # of neighbors = 0
Ave neighs/atom = 0
Ave special neighs/atom = 15.567568
Neighbor list builds = 19
Dangerous builds = 0
Generated 0 of 1 mixed pair_coeff terms from geometric mixing rule
Setting up Verlet run ...
  Unit style    : real
  Current step  : 2850000
  Time step     : 0.05
Per MPI rank memory allocation (min/avg/max) = 13.36 | 14.4 | 15 Mbytes
   Step          Temp          E_pair         E_mol          TotEng         Press     
   2850000   285.04499      370.685        18502.899      19281.423     -216.833      
   2860000   282.84575      366.34541      18521.643      19292.681     -146.93765    
   2870000   302.09902      375.61462      18503.103      19310.958     -69.747128    
   2880000   315.56074      366.19935      18534.627      19352.327     -192.99559    
   2890000   304.65221      378.29501      18548.613      19362.801      119.17131    
   2900000   305.68902      366.97243      18541.282      19345.631     -235.31747    
Loop time of 14.4977 on 16 procs for 50000 steps with 481 atoms

Performance: 14.899 ns/day, 1.611 hours/ns, 3448.832 timesteps/s, 1.659 Matom-step/s
100.0% CPU use with 16 MPI tasks x 1 OpenMP threads

MPI task timing breakdown:
Section |  min time  |  avg time  |  max time  |%varavg| %total
---------------------------------------------------------------
Pair    | 0.5077     | 1.984      | 3.0975     |  59.2 | 13.68
Bond    | 1.7217     | 2.5234     | 3.1304     |  25.7 | 17.41
Neigh   | 0.037654   | 0.038825   | 0.040179   |   0.4 |  0.27
Comm    | 7.3301     | 9.0558     | 10.726     |  34.7 | 62.46
Output  | 0.0060577  | 0.0088173  | 0.01094    |   1.6 |  0.06
Modify  | 0.41844    | 0.51829    | 0.61836    |   8.7 |  3.57
Other   |            | 0.3685     |            |       |  2.54

Nlocal:        30.0625 ave          40 max          23 min
Histogram: 1 3 3 1 3 2 0 1 1 1
Nghost:        2358.81 ave        2379 max        2340 min
Histogram: 1 1 1 4 2 3 1 0 2 1
Neighs:              0 ave           0 max           0 min
Histogram: 16 0 0 0 0 0 0 0 0 0

Total # of neighbors = 0
Ave neighs/atom = 0
Ave special neighs/atom = 15.567568
Neighbor list builds = 89
Dangerous builds = 0
Generated 0 of 1 mixed pair_coeff terms from geometric mixing rule
Setting up Verlet run ...
  Unit style    : real
  Current step  : 2900000
  Time step     : 0.05
Per MPI rank memory allocation (min/avg/max) = 13.36 | 14.4 | 15 Mbytes
   Step          Temp          E_pair         E_mol          TotEng         Press     
   2900000   305.68902      366.97243      18541.282      19345.631     -235.31747    
   2910000   302.10927      365.52524      18539.803      19337.582     -92.16961     
Loop time of 2.95446 on 16 procs for 10000 steps with 481 atoms

Performance: 14.622 ns/day, 1.641 hours/ns, 3384.710 timesteps/s, 1.628 Matom-step/s
100.0% CPU use with 16 MPI tasks x 1 OpenMP threads

MPI task timing breakdown:
Section |  min time  |  avg time  |  max time  |%varavg| %total
---------------------------------------------------------------
Pair    | 0.094095   | 0.39704    | 0.62246    |  26.1 | 13.44
Bond    | 0.32306    | 0.50547    | 0.6303     |  10.2 | 17.11
Neigh   | 0.0083311  | 0.0085972  | 0.0088917  |   0.2 |  0.29
Comm    | 1.5222     | 1.8661     | 2.2299     |  14.7 | 63.16
Output  | 0.00096358 | 0.0015751  | 0.0020812  |   0.9 |  0.05
Modify  | 0.078951   | 0.10179    | 0.11902    |   4.3 |  3.45
Other   |            | 0.07393    |            |       |  2.50

Nlocal:        30.0625 ave          38 max          25 min
Histogram: 2 1 3 4 2 0 3 0 0 1
Nghost:        2367.44 ave        2390 max        2344 min
Histogram: 2 0 2 2 1 3 1 1 3 1
Neighs:              0 ave           0 max           0 min
Histogram: 16 0 0 0 0 0 0 0 0 0

Total # of neighbors = 0
Ave neighs/atom = 0
Ave special neighs/atom = 15.567568
Neighbor list builds = 20
Dangerous builds = 0
Generated 0 of 1 mixed pair_coeff terms from geometric mixing rule
Setting up Verlet run ...
  Unit style    : real
  Current step  : 2910000
  Time step     : 0.05
Per MPI rank memory allocation (min/avg/max) = 13.36 | 14.4 | 15 Mbytes
   Step          Temp          E_pair         E_mol          TotEng         Press     
   2910000   302.10927      365.52524      18539.803      19337.582     -92.16961     
   2920000   278.32246      367.81137      18514.535      19280.567     -16.069344    
   2930000   286.23483      356.11274      18534.754      19300.409     -435.26071    
   2940000   290.48841      376.36699      18512.688      19304.683      42.108868    
   2950000   314.18208      374.46503      18514.26       19338.253      76.476725    
   2960000   306.24995      361.97825      18499.202      19299.36      -250.26546    
Loop time of 14.365 on 16 procs for 50000 steps with 481 atoms

Performance: 15.037 ns/day, 1.596 hours/ns, 3480.676 timesteps/s, 1.674 Matom-step/s
100.0% CPU use with 16 MPI tasks x 1 OpenMP threads

MPI task timing breakdown:
Section |  min time  |  avg time  |  max time  |%varavg| %total
---------------------------------------------------------------
Pair    | 0.45979    | 1.8944     | 2.9543     |  57.1 | 13.19
Bond    | 1.5814     | 2.4105     | 2.9994     |  22.1 | 16.78
Neigh   | 0.035389   | 0.0364     | 0.03769    |   0.3 |  0.25
Comm    | 7.4247     | 9.1402     | 10.829     |  32.4 | 63.63
Output  | 0.0061452  | 0.0087948  | 0.010862   |   1.6 |  0.06
Modify  | 0.38751    | 0.51771    | 0.5987     |  10.8 |  3.60
Other   |            | 0.357      |            |       |  2.49

Nlocal:        30.0625 ave          43 max          18 min
Histogram: 1 1 3 1 2 2 2 2 1 1
Nghost:        2357.31 ave        2372 max        2336 min
Histogram: 1 0 2 2 0 3 1 2 3 2
Neighs:              0 ave           0 max           0 min
Histogram: 16 0 0 0 0 0 0 0 0 0

Total # of neighbors = 0
Ave neighs/atom = 0
Ave special neighs/atom = 15.567568
Neighbor list builds = 84
Dangerous builds = 0
Generated 0 of 1 mixed pair_coeff terms from geometric mixing rule
Setting up Verlet run ...
  Unit style    : real
  Current step  : 2960000
  Time step     : 0.05
Per MPI rank memory allocation (min/avg/max) = 13.36 | 14.4 | 15 Mbytes
   Step          Temp          E_pair         E_mol          TotEng         Press     
   2960000   306.24995      361.97825      18499.202      19299.36      -250.26546    
   2970000   301.66912      374.02571      18484.844      19290.495      22.359384    
Loop time of 2.97225 on 16 procs for 10000 steps with 481 atoms

Performance: 14.534 ns/day, 1.651 hours/ns, 3364.452 timesteps/s, 1.618 Matom-step/s
100.0% CPU use with 16 MPI tasks x 1 OpenMP threads

MPI task timing breakdown:
Section |  min time  |  avg time  |  max time  |%varavg| %total
---------------------------------------------------------------
Pair    | 0.10117    | 0.39743    | 0.61888    |  26.7 | 13.37
Bond    | 0.3331     | 0.50544    | 0.64897    |  10.9 | 17.01
Neigh   | 0.0059015  | 0.006071   | 0.0062798  |   0.1 |  0.20
Comm    | 1.5748     | 1.8827     | 2.2351     |  15.7 | 63.34
Output  | 0.0009984  | 0.0016313  | 0.0021258  |   0.9 |  0.05
Modify  | 0.083331   | 0.10543    | 0.12189    |   4.6 |  3.55
Other   |            | 0.0735     |            |       |  2.47

Nlocal:        30.0625 ave          44 max          20 min
Histogram: 2 1 2 2 3 2 3 0 0 1
Nghost:        2363.69 ave        2388 max        2352 min
Histogram: 5 1 1 2 2 3 1 0 0 1
Neighs:              0 ave           0 max           0 min
Histogram: 16 0 0 0 0 0 0 0 0 0

Total # of neighbors = 0
Ave neighs/atom = 0
Ave special neighs/atom = 15.567568
Neighbor list builds = 14
Dangerous builds = 0
Generated 0 of 1 mixed pair_coeff terms from geometric mixing rule
Setting up Verlet run ...
  Unit style    : real
  Current step  : 2970000
  Time step     : 0.05
Per MPI rank memory allocation (min/avg/max) = 13.36 | 14.4 | 15 Mbytes
   Step          Temp          E_pair         E_mol          TotEng         Press     
   2970000   301.66912      374.02571      18484.844      19290.495      22.359384    
   2980000   291.29003      374.74402      18482.758      19274.276      49.992903    
   2990000   297.3963       369.89609      18512.787      19308.195     -35.457596    
   3000000   304.90623      365.94669      18505.862      19308.066     -237.89249    
   3010000   294.86823      377.66925      18489.418      19288.981      208.9611     
   3020000   293.51196      373.61516      18494.981      19288.55       81.11773     
Loop time of 14.7567 on 16 procs for 50000 steps with 481 atoms

Performance: 14.637 ns/day, 1.640 hours/ns, 3388.295 timesteps/s, 1.630 Matom-step/s
100.0% CPU use with 16 MPI tasks x 1 OpenMP threads

MPI task timing breakdown:
Section |  min time  |  avg time  |  max time  |%varavg| %total
---------------------------------------------------------------
Pair    | 0.51149    | 1.9913     | 3.0368     |  59.6 | 13.49
Bond    | 1.5634     | 2.5303     | 3.2471     |  26.5 | 17.15
Neigh   | 0.030943   | 0.031931   | 0.033055   |   0.3 |  0.22
Comm    | 7.6231     | 9.2961     | 11.195     |  35.5 | 63.00
Output  | 0.0061452  | 0.0088621  | 0.010991   |   1.6 |  0.06
Modify  | 0.41354    | 0.52745    | 0.60235    |   9.6 |  3.57
Other   |            | 0.3708     |            |       |  2.51

Nlocal:        30.0625 ave          40 max          23 min
Histogram: 3 1 4 1 0 2 1 1 2 1
Nghost:        2365.19 ave        2387 max        2346 min
Histogram: 2 0 4 2 0 2 2 2 1 1
Neighs:              0 ave           0 max           0 min
Histogram: 16 0 0 0 0 0 0 0 0 0

Total # of neighbors = 0
Ave neighs/atom = 0
Ave special neighs/atom = 15.567568
Neighbor list builds = 74
Dangerous builds = 0
Generated 0 of 1 mixed pair_coeff terms from geometric mixing rule
Setting up Verlet run ...
  Unit style    : real
  Current step  : 3020000
  Time step     : 0.05
Per MPI rank memory allocation (min/avg/max) = 13.36 | 14.4 | 15 Mbytes
   Step          Temp          E_pair         E_mol          TotEng         Press     
   3020000   293.51196      373.61516      18494.981      19288.55       81.11773     
   3030000   297.0728       368.16028      18540.009      19333.218     -85.698057    
Loop time of 2.95394 on 16 procs for 10000 steps with 481 atoms

Performance: 14.625 ns/day, 1.641 hours/ns, 3385.308 timesteps/s, 1.628 Matom-step/s
100.0% CPU use with 16 MPI tasks x 1 OpenMP threads

MPI task timing breakdown:
Section |  min time  |  avg time  |  max time  |%varavg| %total
---------------------------------------------------------------
Pair    | 0.099593   | 0.3971     | 0.62997    |  26.9 | 13.44
Bond    | 0.34881    | 0.50484    | 0.66347    |  11.6 | 17.09
Neigh   | 0.0041761  | 0.0042923  | 0.0044514  |   0.1 |  0.15
Comm    | 1.494      | 1.8676     | 2.1995     |  16.2 | 63.22
Output  | 0.00093745 | 0.0015312  | 0.0020454  |   0.9 |  0.05
Modify  | 0.083371   | 0.10476    | 0.11956    |   4.1 |  3.55
Other   |            | 0.07386    |            |       |  2.50

Nlocal:        30.0625 ave          40 max          21 min
Histogram: 2 0 3 1 2 2 3 2 0 1
Nghost:        2365.56 ave        2380 max        2347 min
Histogram: 1 1 1 2 1 3 2 0 2 3
Neighs:              0 ave           0 max           0 min
Histogram: 16 0 0 0 0 0 0 0 0 0

Total # of neighbors = 0
Ave neighs/atom = 0
Ave special neighs/atom = 15.567568
Neighbor list builds = 10
Dangerous builds = 0
Generated 0 of 1 mixed pair_coeff terms from geometric mixing rule
Setting up Verlet run ...
  Unit style    : real
  Current step  : 3030000
  Time step     : 0.05
Per MPI rank memory allocation (min/avg/max) = 13.36 | 14.4 | 15 Mbytes
   Step          Temp          E_pair         E_mol          TotEng         Press     
   3030000   297.0728       368.16028      18540.009      19333.218     -85.698057    
   3040000   298.37123      372.47051      18521.85       19321.226     -16.080411    
   3050000   303.89896      368.18127      18489.758      19292.755     -31.624646    
   3060000   299.24863      366.91525      18511.079      19306.155     -68.550458    
   3070000   311.50404      375.70968      18522.888      19344.295      35.329389    
   3080000   305.22087      367.33821      18513.859      19317.904     -122.10576    
Loop time of 14.2782 on 16 procs for 50000 steps with 481 atoms

Performance: 15.128 ns/day, 1.586 hours/ns, 3501.849 timesteps/s, 1.684 Matom-step/s
100.0% CPU use with 16 MPI tasks x 1 OpenMP threads

MPI task timing breakdown:
Section |  min time  |  avg time  |  max time  |%varavg| %total
---------------------------------------------------------------
Pair    | 0.45613    | 1.8891     | 2.9411     |  57.4 | 13.23
Bond    | 1.5387     | 2.4053     | 3.0463     |  23.5 | 16.85
Neigh   | 0.022889   | 0.023626   | 0.024471   |   0.3 |  0.17
Comm    | 7.6341     | 9.0739     | 10.818     |  32.9 | 63.55
Output  | 0.005684   | 0.0082949  | 0.010347   |   1.6 |  0.06
Modify  | 0.38649    | 0.52218    | 0.62669    |  11.7 |  3.66
Other   |            | 0.3557     |            |       |  2.49

Nlocal:        30.0625 ave          36 max          24 min
Histogram: 2 1 1 2 1 3 2 1 2 1
Nghost:        2368.94 ave        2386 max        2350 min
Histogram: 1 1 1 3 1 2 4 0 2 1
Neighs:              0 ave           0 max           0 min
Histogram: 16 0 0 0 0 0 0 0 0 0

Total # of neighbors = 0
Ave neighs/atom = 0
Ave special neighs/atom = 15.567568
Neighbor list builds = 57
Dangerous builds = 0
Total wall time: 0:14:35
