LAMMPS (27 Jun 2024)
OMP_NUM_THREADS environment is not set. Defaulting to 1 thread. (src/comm.cpp:98)
  using 1 OpenMP thread(s) per MPI task
Reading data file ...
  orthogonal box = (-30 -30 -30) to (30 30 30)
  2 by 2 by 4 MPI processor grid
  reading atoms ...
  480 atoms
  reading velocities ...
  480 velocities
  scanning bonds ...
  2 = max bonds/atom
  scanning angles ...
  3 = max angles/atom
  scanning dihedrals ...
  8 = max dihedrals/atom
  scanning impropers ...
  2 = max impropers/atom
  orthogonal box = (-30 -30 -30) to (30 30 30)
  2 by 2 by 4 MPI processor grid
  reading bonds ...
  676 bonds
  reading angles ...
  1268 angles
  reading dihedrals ...
  2394 dihedrals
  reading impropers ...
  396 impropers
Finding 1-2 1-3 1-4 neighbors ...
  special bond factors lj:    0        0        0       
  special bond factors coul:  0        0        0       
     3 = max # of 1-2 neighbors
     6 = max # of 1-3 neighbors
    18 = max # of 1-4 neighbors
    18 = max # of special neighbors
  special bonds CPU = 0.001 seconds
  read_data CPU = 0.042 seconds
Finding 1-2 1-3 1-4 neighbors ...
  special bond factors lj:    0        0        0.5     
  special bond factors coul:  0        0        0       
     3 = max # of 1-2 neighbors
     6 = max # of 1-3 neighbors
    18 = max # of 1-4 neighbors
    18 = max # of special neighbors
  special bonds CPU = 0.001 seconds
Created 1 atoms
  using lattice units in orthogonal box = (-30 -30 -30) to (30 30 30)
  create_atoms CPU = 0.000 seconds
480 atoms in group C
1 atoms in group H2

CITE-CITE-CITE-CITE-CITE-CITE-CITE-CITE-CITE-CITE-CITE-CITE-CITE

Your simulation uses code contributions which should be cited:
- Type Label Framework: https://doi.org/10.1021/acs.jpcb.3c08419
The log file lists these citations in BibTeX format.

CITE-CITE-CITE-CITE-CITE-CITE-CITE-CITE-CITE-CITE-CITE-CITE-CITE

Generated 0 of 1 mixed pair_coeff terms from geometric mixing rule
Neighbor list info ...
  update: every = 1 steps, delay = 3 steps, check = yes
  max neighbors/atom: 6000, page size: 100000
  master list distance cutoff = 31
  ghost atom cutoff = 31
  binsize = 15.5, bins = 4 4 4
  4 neighbor lists, perpetual/occasional/extra = 4 0 0
  (1) pair lj/cut, perpetual, skip trim from (4)
      attributes: half, newton on, cut 15
      pair build: skip/trim
      stencil: none
      bin: none
  (2) pair sg, perpetual, skip trim from (4)
      attributes: half, newton on, cut 16
      pair build: skip/trim
      stencil: none
      bin: none
  (3) pair cb, perpetual, skip from (4)
      attributes: half, newton on
      pair build: skip
      stencil: none
      bin: none
  (4) neighbor class addition, perpetual
      attributes: half, newton on
      pair build: half/bin/newton
      stencil: half/bin/3d
      bin: standard
Setting up Verlet run ...
  Unit style    : real
  Current step  : 0
  Time step     : 0.05
Per MPI rank memory allocation (min/avg/max) = 13.34 | 13.66 | 13.99 Mbytes
   Step          Temp          E_pair         E_mol          TotEng         Press          Volume    
         0   300            308.43814      19603.922      20341.597     -432.48369      216000       
     10000   308.72719      373.58236      18568.419      19383.724     -313.9945       172136.64    
     20000   322.02648      371.05675      18538.378      19370.187     -418.66256      126544.33    
Loop time of 6.45307 on 16 procs for 20000 steps with 481 atoms

Performance: 13.389 ns/day, 1.793 hours/ns, 3099.300 timesteps/s, 1.491 Matom-step/s
99.8% CPU use with 16 MPI tasks x 1 OpenMP threads

MPI task timing breakdown:
Section |  min time  |  avg time  |  max time  |%varavg| %total
---------------------------------------------------------------
Pair    | 0.69954    | 1.0649     | 2.1014     |  31.8 | 16.50
Bond    | 0.87044    | 1.1898     | 1.4385     |  13.1 | 18.44
Neigh   | 0.020955   | 0.021521   | 0.02245    |   0.3 |  0.33
Comm    | 2.344      | 3.4957     | 4.0893     |  22.3 | 54.17
Output  | 0.0031246  | 0.0056329  | 0.0081353  |   2.4 |  0.09
Modify  | 0.41958    | 0.50709    | 0.5899     |   7.5 |  7.86
Other   |            | 0.1684     |            |       |  2.61

Nlocal:        30.0625 ave          37 max          19 min
Histogram: 1 0 0 1 0 4 3 6 0 1
Nghost:        2326.06 ave        2341 max        2307 min
Histogram: 1 0 1 3 1 2 2 2 3 1
Neighs:              0 ave           0 max           0 min
Histogram: 16 0 0 0 0 0 0 0 0 0

Total # of neighbors = 0
Ave neighs/atom = 0
Ave special neighs/atom = 15.567568
Neighbor list builds = 55
Dangerous builds = 0
Generated 0 of 1 mixed pair_coeff terms from geometric mixing rule
Setting up Verlet run ...
  Unit style    : real
  Current step  : 20000
  Time step     : 0.05
Per MPI rank memory allocation (min/avg/max) = 13.35 | 14.19 | 15 Mbytes
   Step          Temp          E_pair         E_mol          TotEng         Press     
     20000   322.02648      371.05675      18538.378      19370.187     -418.66256    
     30000   278.07505      334.52087      18606.299      19338.687     -1194.7902    
Loop time of 3.10529 on 16 procs for 10000 steps with 481 atoms

Performance: 13.912 ns/day, 1.725 hours/ns, 3220.315 timesteps/s, 1.549 Matom-step/s
100.0% CPU use with 16 MPI tasks x 1 OpenMP threads

MPI task timing breakdown:
Section |  min time  |  avg time  |  max time  |%varavg| %total
---------------------------------------------------------------
Pair    | 0.07379    | 0.39772    | 0.71341    |  30.5 | 12.81
Bond    | 0.30545    | 0.50505    | 0.65983    |  10.9 | 16.26
Neigh   | 0.044198   | 0.045721   | 0.047214   |   0.4 |  1.47
Comm    | 1.5118     | 1.9631     | 2.3665     |  17.1 | 63.22
Output  | 0.0010781  | 0.0018509  | 0.0025838  |   1.1 |  0.06
Modify  | 0.074953   | 0.1124     | 0.17388    |   8.9 |  3.62
Other   |            | 0.07949    |            |       |  2.56

Nlocal:        30.0625 ave          39 max          21 min
Histogram: 2 0 4 1 1 0 3 2 2 1
Nghost:        2333.69 ave        2349 max        2315 min
Histogram: 2 0 2 1 3 1 0 2 3 2
Neighs:              0 ave           0 max           0 min
Histogram: 16 0 0 0 0 0 0 0 0 0

Total # of neighbors = 0
Ave neighs/atom = 0
Ave special neighs/atom = 15.567568
Neighbor list builds = 106
Dangerous builds = 0
Generated 0 of 1 mixed pair_coeff terms from geometric mixing rule
Setting up Verlet run ...
  Unit style    : real
  Current step  : 30000
  Time step     : 0.05
Per MPI rank memory allocation (min/avg/max) = 13.35 | 14.23 | 15 Mbytes
   Step          Temp          E_pair         E_mol          TotEng         Press     
     30000   278.07505      334.52087      18606.299      19338.687     -1194.7902    
     40000   294.16721      411.33904      18530.727      19362.958      713.08752    
     50000   293.9784       385.08281      18541.561      19347.265      240.49593    
     60000   304.8804       365.3222       18580.453      19381.995     -304.11698    
     70000   325.03451      365.44849      18577.225      19407.729     -313.56456    
     80000   317.351        387.5427       18521.815      19363.42       374.99067    
Loop time of 15.4734 on 16 procs for 50000 steps with 481 atoms

Performance: 13.959 ns/day, 1.719 hours/ns, 3231.357 timesteps/s, 1.554 Matom-step/s
100.0% CPU use with 16 MPI tasks x 1 OpenMP threads

MPI task timing breakdown:
Section |  min time  |  avg time  |  max time  |%varavg| %total
---------------------------------------------------------------
Pair    | 0.3913     | 1.9883     | 3.5126     |  63.5 | 12.85
Bond    | 1.6386     | 2.531      | 3.0729     |  22.2 | 16.36
Neigh   | 0.076005   | 0.078714   | 0.081019   |   0.5 |  0.51
Comm    | 7.8538     | 9.8784     | 11.732     |  37.2 | 63.84
Output  | 0.0064896  | 0.0099388  | 0.012982   |   2.0 |  0.06
Modify  | 0.36834    | 0.57959    | 0.8825     |  21.0 |  3.75
Other   |            | 0.4074     |            |       |  2.63

Nlocal:        30.0625 ave          42 max          22 min
Histogram: 1 3 2 2 0 5 1 0 1 1
Nghost:        2358.44 ave        2382 max        2346 min
Histogram: 3 3 2 2 3 0 1 1 0 1
Neighs:              0 ave           0 max           0 min
Histogram: 16 0 0 0 0 0 0 0 0 0

Total # of neighbors = 0
Ave neighs/atom = 0
Ave special neighs/atom = 15.567568
Neighbor list builds = 181
Dangerous builds = 0
Generated 0 of 1 mixed pair_coeff terms from geometric mixing rule
Setting up Verlet run ...
  Unit style    : real
  Current step  : 80000
  Time step     : 0.05
Per MPI rank memory allocation (min/avg/max) = 13.35 | 14.25 | 15 Mbytes
   Step          Temp          E_pair         E_mol          TotEng         Press     
     80000   317.351        387.5427       18521.815      19363.42       374.99067    
     90000   311.83868      368.64709      18537.509      19352.331     -218.60078    
Loop time of 3.08707 on 16 procs for 10000 steps with 481 atoms

Performance: 13.994 ns/day, 1.715 hours/ns, 3239.313 timesteps/s, 1.558 Matom-step/s
100.0% CPU use with 16 MPI tasks x 1 OpenMP threads

MPI task timing breakdown:
Section |  min time  |  avg time  |  max time  |%varavg| %total
---------------------------------------------------------------
Pair    | 0.065686   | 0.39787    | 0.71665    |  26.6 | 12.89
Bond    | 0.32968    | 0.50564    | 0.60505    |  10.0 | 16.38
Neigh   | 0.005559   | 0.0057209  | 0.005886   |   0.1 |  0.19
Comm    | 1.5549     | 1.9816     | 2.4219     |  16.3 | 64.19
Output  | 0.00099058 | 0.001693   | 0.002338   |   1.0 |  0.05
Modify  | 0.069825   | 0.11309    | 0.17395    |   9.6 |  3.66
Other   |            | 0.08146    |            |       |  2.64

Nlocal:        30.0625 ave          40 max          23 min
Histogram: 2 2 2 1 4 1 2 0 1 1
Nghost:        2353.94 ave        2383 max        2335 min
Histogram: 2 1 4 1 2 3 1 1 0 1
Neighs:              0 ave           0 max           0 min
Histogram: 16 0 0 0 0 0 0 0 0 0

Total # of neighbors = 0
Ave neighs/atom = 0
Ave special neighs/atom = 15.567568
Neighbor list builds = 13
Dangerous builds = 0
Generated 0 of 1 mixed pair_coeff terms from geometric mixing rule
Setting up Verlet run ...
  Unit style    : real
  Current step  : 90000
  Time step     : 0.05
Per MPI rank memory allocation (min/avg/max) = 13.35 | 14.25 | 15 Mbytes
   Step          Temp          E_pair         E_mol          TotEng         Press     
     90000   311.83868      368.64709      18537.509      19352.331     -218.60078    
    100000   299.75886      361.56087      18576.837      19367.29      -445.50703    
    110000   298.10586      386.54948      18512.029      19325.105      278.66393    
    120000   297.11516      364.5693       18506.342      19296.02      -140.21311    
    130000   311.89166      360.39658      18553.774      19360.422     -511.04845    
    140000   296.65867      385.81676      18558.811      19369.084      235.05974    
Loop time of 15.3592 on 16 procs for 50000 steps with 481 atoms

Performance: 14.063 ns/day, 1.707 hours/ns, 3255.381 timesteps/s, 1.566 Matom-step/s
100.0% CPU use with 16 MPI tasks x 1 OpenMP threads

MPI task timing breakdown:
Section |  min time  |  avg time  |  max time  |%varavg| %total
---------------------------------------------------------------
Pair    | 0.37941    | 1.9884     | 3.476      |  59.9 | 12.95
Bond    | 1.6273     | 2.528      | 3.0869     |  21.5 | 16.46
Neigh   | 0.039094   | 0.040462   | 0.041724   |   0.4 |  0.26
Comm    | 7.813      | 9.8158     | 11.684     |  36.5 | 63.91
Output  | 0.0064304  | 0.0092178  | 0.011684   |   1.7 |  0.06
Modify  | 0.3622     | 0.57093    | 0.87457    |  20.9 |  3.72
Other   |            | 0.4064     |            |       |  2.65

Nlocal:        30.0625 ave          39 max          21 min
Histogram: 1 1 3 2 0 4 0 2 1 2
Nghost:        2374.56 ave        2393 max        2353 min
Histogram: 1 0 1 3 3 2 0 2 2 2
Neighs:              0 ave           0 max           0 min
Histogram: 16 0 0 0 0 0 0 0 0 0

Total # of neighbors = 0
Ave neighs/atom = 0
Ave special neighs/atom = 15.567568
Neighbor list builds = 92
Dangerous builds = 0
Generated 0 of 1 mixed pair_coeff terms from geometric mixing rule
Setting up Verlet run ...
  Unit style    : real
  Current step  : 140000
  Time step     : 0.05
Per MPI rank memory allocation (min/avg/max) = 13.35 | 14.29 | 15 Mbytes
   Step          Temp          E_pair         E_mol          TotEng         Press     
    140000   296.65867      385.81676      18558.811      19369.084      235.05974    
    150000   310.18385      376.52578      18524.213      19344.547     -61.312607    
Loop time of 3.25333 on 16 procs for 10000 steps with 481 atoms

Performance: 13.279 ns/day, 1.807 hours/ns, 3073.770 timesteps/s, 1.478 Matom-step/s
100.0% CPU use with 16 MPI tasks x 1 OpenMP threads

MPI task timing breakdown:
Section |  min time  |  avg time  |  max time  |%varavg| %total
---------------------------------------------------------------
Pair    | 0.079904   | 0.39991    | 0.77505    |  30.2 | 12.29
Bond    | 0.28867    | 0.50808    | 0.6767     |  12.6 | 15.62
Neigh   | 0.0074285  | 0.0076733  | 0.0079382  |   0.2 |  0.24
Comm    | 1.6612     | 2.1376     | 2.5528     |  17.6 | 65.71
Output  | 0.00099077 | 0.0016344  | 0.0021628  |   0.9 |  0.05
Modify  | 0.079923   | 0.11571    | 0.18216    |   9.7 |  3.56
Other   |            | 0.08271    |            |       |  2.54

Nlocal:        30.0625 ave          41 max          23 min
Histogram: 2 0 8 2 0 0 0 1 2 1
Nghost:        2366.31 ave        2384 max        2354 min
Histogram: 2 2 4 1 1 1 1 1 2 1
Neighs:              0 ave           0 max           0 min
Histogram: 16 0 0 0 0 0 0 0 0 0

Total # of neighbors = 0
Ave neighs/atom = 0
Ave special neighs/atom = 15.567568
Neighbor list builds = 18
Dangerous builds = 0
Generated 0 of 1 mixed pair_coeff terms from geometric mixing rule
Setting up Verlet run ...
  Unit style    : real
  Current step  : 150000
  Time step     : 0.05
Per MPI rank memory allocation (min/avg/max) = 13.35 | 14.29 | 15 Mbytes
   Step          Temp          E_pair         E_mol          TotEng         Press     
    150000   310.18385      376.52578      18524.213      19344.547     -61.312607    
    160000   313.4655       366.52329      18538.832      19353.858     -123.78654    
    170000   306.34763      385.42978      18546.075      19369.824      245.26555    
    180000   306.0335       366.98991      18540.93       19345.79      -135.03184    
    190000   297.04701      376.91828      18519.241      19321.171      72.04124     
    200000   295.97788      371.0719       18546.862      19341.416     -69.881789    
Loop time of 15.1931 on 16 procs for 50000 steps with 481 atoms

Performance: 14.217 ns/day, 1.688 hours/ns, 3290.964 timesteps/s, 1.583 Matom-step/s
100.0% CPU use with 16 MPI tasks x 1 OpenMP threads

MPI task timing breakdown:
Section |  min time  |  avg time  |  max time  |%varavg| %total
---------------------------------------------------------------
Pair    | 0.40884    | 1.9881     | 3.4382     |  59.5 | 13.09
Bond    | 1.5603     | 2.5277     | 3.1221     |  22.2 | 16.64
Neigh   | 0.033192   | 0.034346   | 0.035329   |   0.3 |  0.23
Comm    | 7.7057     | 9.6635     | 11.52      |  36.4 | 63.60
Output  | 0.0062941  | 0.0088768  | 0.01108    |   1.6 |  0.06
Modify  | 0.37005    | 0.56848    | 0.88377    |  21.2 |  3.74
Other   |            | 0.402      |            |       |  2.65

Nlocal:        30.0625 ave          40 max          17 min
Histogram: 1 1 0 2 3 1 2 4 1 1
Nghost:        2361.06 ave        2379 max        2342 min
Histogram: 3 0 1 2 0 1 3 4 1 1
Neighs:              0 ave           0 max           0 min
Histogram: 16 0 0 0 0 0 0 0 0 0

Total # of neighbors = 0
Ave neighs/atom = 0
Ave special neighs/atom = 15.567568
Neighbor list builds = 81
Dangerous builds = 0
Generated 0 of 1 mixed pair_coeff terms from geometric mixing rule
Setting up Verlet run ...
  Unit style    : real
  Current step  : 200000
  Time step     : 0.05
Per MPI rank memory allocation (min/avg/max) = 13.35 | 14.3 | 15 Mbytes
   Step          Temp          E_pair         E_mol          TotEng         Press     
    200000   295.97788      371.0719       18546.862      19341.416     -69.881789    
    210000   330.62933      375.99546      18552.65       19401.707      81.801015    
Loop time of 3.1469 on 16 procs for 10000 steps with 481 atoms

Performance: 13.728 ns/day, 1.748 hours/ns, 3177.735 timesteps/s, 1.528 Matom-step/s
100.0% CPU use with 16 MPI tasks x 1 OpenMP threads

MPI task timing breakdown:
Section |  min time  |  avg time  |  max time  |%varavg| %total
---------------------------------------------------------------
Pair    | 0.089139   | 0.3976     | 0.83079    |  30.0 | 12.63
Bond    | 0.29952    | 0.50625    | 0.62039    |  10.8 | 16.09
Neigh   | 0.0079249  | 0.0081301  | 0.0083269  |   0.1 |  0.26
Comm    | 1.5286     | 2.0397     | 2.4451     |  17.0 | 64.82
Output  | 0.00099491 | 0.0016336  | 0.0021456  |   0.9 |  0.05
Modify  | 0.068391   | 0.11282    | 0.17458    |   9.6 |  3.59
Other   |            | 0.08075    |            |       |  2.57

Nlocal:        30.0625 ave          38 max          20 min
Histogram: 1 2 0 2 0 2 4 1 2 2
Nghost:        2367.81 ave        2392 max        2344 min
Histogram: 2 0 0 3 2 5 0 1 2 1
Neighs:              0 ave           0 max           0 min
Histogram: 16 0 0 0 0 0 0 0 0 0

Total # of neighbors = 0
Ave neighs/atom = 0
Ave special neighs/atom = 15.567568
Neighbor list builds = 19
Dangerous builds = 0
Generated 0 of 1 mixed pair_coeff terms from geometric mixing rule
Setting up Verlet run ...
  Unit style    : real
  Current step  : 210000
  Time step     : 0.05
Per MPI rank memory allocation (min/avg/max) = 13.35 | 14.3 | 15 Mbytes
   Step          Temp          E_pair         E_mol          TotEng         Press     
    210000   330.62933      375.99546      18552.65       19401.707      81.801015    
    220000   311.70413      369.62093      18568.051      19383.655     -98.306316    
    230000   301.22304      370.27955      18531.286      19332.552     -164.95798    
    240000   305.06537      374.76692      18512.075      19323.326      73.119698    
    250000   324.46922      370.50172      18548.255      19383.004     -83.280004    
    260000   311.82986      380.32895      18540.696      19367.187      80.791686    
Loop time of 15.4966 on 16 procs for 50000 steps with 481 atoms

Performance: 13.939 ns/day, 1.722 hours/ns, 3226.523 timesteps/s, 1.552 Matom-step/s
100.0% CPU use with 16 MPI tasks x 1 OpenMP threads

MPI task timing breakdown:
Section |  min time  |  avg time  |  max time  |%varavg| %total
---------------------------------------------------------------
Pair    | 0.35341    | 1.9924     | 3.6742     |  61.9 | 12.86
Bond    | 1.6268     | 2.5353     | 3.1597     |  21.0 | 16.36
Neigh   | 0.032908   | 0.033975   | 0.034944   |   0.3 |  0.22
Comm    | 7.7308     | 9.9315     | 11.798     |  35.4 | 64.09
Output  | 0.0063674  | 0.0090472  | 0.011272   |   1.6 |  0.06
Modify  | 0.37471    | 0.58501    | 0.9081     |  21.4 |  3.78
Other   |            | 0.4093     |            |       |  2.64

Nlocal:        30.0625 ave          38 max          23 min
Histogram: 2 1 2 1 3 1 2 1 2 1
Nghost:        2363.31 ave        2379 max        2340 min
Histogram: 1 0 1 3 2 1 1 2 2 3
Neighs:              0 ave           0 max           0 min
Histogram: 16 0 0 0 0 0 0 0 0 0

Total # of neighbors = 0
Ave neighs/atom = 0
Ave special neighs/atom = 15.567568
Neighbor list builds = 79
Dangerous builds = 0
Generated 0 of 1 mixed pair_coeff terms from geometric mixing rule
Setting up Verlet run ...
  Unit style    : real
  Current step  : 260000
  Time step     : 0.05
Per MPI rank memory allocation (min/avg/max) = 13.35 | 14.3 | 15 Mbytes
   Step          Temp          E_pair         E_mol          TotEng         Press     
    260000   311.82986      380.32895      18540.696      19367.187      80.791686    
    270000   299.82206      375.69501      18540.973      19345.65      -30.419115    
Loop time of 3.10802 on 16 procs for 10000 steps with 481 atoms

Performance: 13.900 ns/day, 1.727 hours/ns, 3217.487 timesteps/s, 1.548 Matom-step/s
100.0% CPU use with 16 MPI tasks x 1 OpenMP threads

MPI task timing breakdown:
Section |  min time  |  avg time  |  max time  |%varavg| %total
---------------------------------------------------------------
Pair    | 0.068936   | 0.39772    | 0.78387    |  28.2 | 12.80
Bond    | 0.32632    | 0.50557    | 0.6298     |   9.2 | 16.27
Neigh   | 0.0057485  | 0.0059808  | 0.0061748  |   0.2 |  0.19
Comm    | 1.511      | 2.0026     | 2.3898     |  16.2 | 64.43
Output  | 0.00096732 | 0.001587   | 0.0020977  |   0.9 |  0.05
Modify  | 0.072399   | 0.11378    | 0.17976    |   9.8 |  3.66
Other   |            | 0.08076    |            |       |  2.60

Nlocal:        30.0625 ave          37 max          21 min
Histogram: 1 1 0 1 2 4 2 0 4 1
Nghost:        2369.69 ave        2387 max        2347 min
Histogram: 1 0 1 3 1 3 0 2 3 2
Neighs:              0 ave           0 max           0 min
Histogram: 16 0 0 0 0 0 0 0 0 0

Total # of neighbors = 0
Ave neighs/atom = 0
Ave special neighs/atom = 15.567568
Neighbor list builds = 14
Dangerous builds = 0
Generated 0 of 1 mixed pair_coeff terms from geometric mixing rule
Setting up Verlet run ...
  Unit style    : real
  Current step  : 270000
  Time step     : 0.05
Per MPI rank memory allocation (min/avg/max) = 13.35 | 14.32 | 15 Mbytes
   Step          Temp          E_pair         E_mol          TotEng         Press     
    270000   299.82206      375.69501      18540.973      19345.65      -30.419115    
    280000   289.33329      366.42577      18537.577      19317.977     -100.21213    
    290000   302.19863      380.24635      18526.57       19339.199      207.31727    
    300000   308.20377      382.48103      18544.204      19367.659      208.57236    
    310000   294.91961      372.98617      18545.933      19340.886     -57.998676    
    320000   288.94021      376.94216      18543.225      19333.579      47.531246    
Loop time of 15.7097 on 16 procs for 50000 steps with 481 atoms

Performance: 13.749 ns/day, 1.746 hours/ns, 3182.745 timesteps/s, 1.531 Matom-step/s
100.0% CPU use with 16 MPI tasks x 1 OpenMP threads

MPI task timing breakdown:
Section |  min time  |  avg time  |  max time  |%varavg| %total
---------------------------------------------------------------
Pair    | 0.35913    | 1.9928     | 3.9591     |  64.9 | 12.68
Bond    | 1.4838     | 2.5354     | 2.9926     |  21.8 | 16.14
Neigh   | 0.036014   | 0.037292   | 0.038469   |   0.4 |  0.24
Comm    | 7.8238     | 10.151     | 12.199     |  36.5 | 64.61
Output  | 0.0062385  | 0.009043   | 0.011224   |   1.6 |  0.06
Modify  | 0.36797    | 0.5793     | 0.89617    |  21.3 |  3.69
Other   |            | 0.4051     |            |       |  2.58

Nlocal:        30.0625 ave          36 max          21 min
Histogram: 1 1 0 1 2 2 2 2 3 2
Nghost:        2366.69 ave        2390 max        2343 min
Histogram: 1 1 1 2 2 5 0 1 2 1
Neighs:              0 ave           0 max           0 min
Histogram: 16 0 0 0 0 0 0 0 0 0

Total # of neighbors = 0
Ave neighs/atom = 0
Ave special neighs/atom = 15.567568
Neighbor list builds = 88
Dangerous builds = 0
Generated 0 of 1 mixed pair_coeff terms from geometric mixing rule
Setting up Verlet run ...
  Unit style    : real
  Current step  : 320000
  Time step     : 0.05
Per MPI rank memory allocation (min/avg/max) = 13.35 | 14.32 | 15 Mbytes
   Step          Temp          E_pair         E_mol          TotEng         Press     
    320000   288.94021      376.94216      18543.225      19333.579      47.531246    
    330000   296.83503      377.52758      18557.011      19359.247      47.416226    
Loop time of 3.16363 on 16 procs for 10000 steps with 481 atoms

Performance: 13.655 ns/day, 1.758 hours/ns, 3160.930 timesteps/s, 1.520 Matom-step/s
100.0% CPU use with 16 MPI tasks x 1 OpenMP threads

MPI task timing breakdown:
Section |  min time  |  avg time  |  max time  |%varavg| %total
---------------------------------------------------------------
Pair    | 0.074905   | 0.398      | 0.82177    |  29.0 | 12.58
Bond    | 0.31599    | 0.50592    | 0.59468    |   9.8 | 15.99
Neigh   | 0.009518   | 0.0098701  | 0.010122   |   0.2 |  0.31
Comm    | 1.5558     | 2.0496     | 2.412      |  16.6 | 64.79
Output  | 0.00095668 | 0.0015816  | 0.0020757  |   0.9 |  0.05
Modify  | 0.07374    | 0.11776    | 0.18205    |   9.6 |  3.72
Other   |            | 0.08085    |            |       |  2.56

Nlocal:        30.0625 ave          40 max          19 min
Histogram: 1 1 2 1 3 1 3 1 2 1
Nghost:        2368.56 ave        2386 max        2349 min
Histogram: 1 0 3 3 1 1 1 2 3 1
Neighs:              0 ave           0 max           0 min
Histogram: 16 0 0 0 0 0 0 0 0 0

Total # of neighbors = 0
Ave neighs/atom = 0
Ave special neighs/atom = 15.567568
Neighbor list builds = 23
Dangerous builds = 0
Generated 0 of 1 mixed pair_coeff terms from geometric mixing rule
Setting up Verlet run ...
  Unit style    : real
  Current step  : 330000
  Time step     : 0.05
Per MPI rank memory allocation (min/avg/max) = 13.35 | 14.32 | 15 Mbytes
   Step          Temp          E_pair         E_mol          TotEng         Press     
    330000   296.83503      377.52758      18557.011      19359.247      47.416226    
    340000   315.07656      376.76379      18532.657      19360.229      52.008101    
    350000   289.48932      372.9913       18544.144      19331.333     -152.32465    
    360000   301.79405      377.21703      18534.581      19343.601     -31.472644    
    370000   301.19173      367.11751      18543.891      19341.95      -299.3992     
    380000   314.73437      375.61601      18539.009      19364.943     -87.811906    
Loop time of 15.8306 on 16 procs for 50000 steps with 481 atoms

Performance: 13.644 ns/day, 1.759 hours/ns, 3158.432 timesteps/s, 1.519 Matom-step/s
100.0% CPU use with 16 MPI tasks x 1 OpenMP threads

MPI task timing breakdown:
Section |  min time  |  avg time  |  max time  |%varavg| %total
---------------------------------------------------------------
Pair    | 0.37117    | 1.9946     | 4.0383     |  64.7 | 12.60
Bond    | 1.5775     | 2.5336     | 3.0817     |  22.2 | 16.00
Neigh   | 0.046221   | 0.047705   | 0.048889   |   0.4 |  0.30
Comm    | 7.9281     | 10.265     | 12.152     |  36.9 | 64.84
Output  | 0.0062469  | 0.0089701  | 0.011148   |   1.6 |  0.06
Modify  | 0.36647    | 0.5769     | 0.88997    |  21.3 |  3.64
Other   |            | 0.4043     |            |       |  2.55

Nlocal:        30.0625 ave          37 max          22 min
Histogram: 2 0 1 2 3 0 2 3 1 2
Nghost:        2361.81 ave        2382 max        2339 min
Histogram: 1 1 0 3 2 3 1 3 0 2
Neighs:              0 ave           0 max           0 min
Histogram: 16 0 0 0 0 0 0 0 0 0

Total # of neighbors = 0
Ave neighs/atom = 0
Ave special neighs/atom = 15.567568
Neighbor list builds = 109
Dangerous builds = 0
Generated 0 of 1 mixed pair_coeff terms from geometric mixing rule
Setting up Verlet run ...
  Unit style    : real
  Current step  : 380000
  Time step     : 0.05
Per MPI rank memory allocation (min/avg/max) = 13.35 | 14.33 | 15 Mbytes
   Step          Temp          E_pair         E_mol          TotEng         Press     
    380000   314.73437      375.61601      18539.009      19364.943     -87.811906    
    390000   311.18008      381.35393      18554.839      19381.426      104.43501    
Loop time of 3.21151 on 16 procs for 10000 steps with 481 atoms

Performance: 13.452 ns/day, 1.784 hours/ns, 3113.798 timesteps/s, 1.498 Matom-step/s
100.0% CPU use with 16 MPI tasks x 1 OpenMP threads

MPI task timing breakdown:
Section |  min time  |  avg time  |  max time  |%varavg| %total
---------------------------------------------------------------
Pair    | 0.073555   | 0.38725    | 0.86131    |  30.1 | 12.06
Bond    | 0.30759    | 0.49114    | 0.58452    |  10.0 | 15.29
Neigh   | 0.006573   | 0.0068126  | 0.0069814  |   0.1 |  0.21
Comm    | 1.5828     | 2.1272     | 2.4879     |  16.2 | 66.24
Output  | 0.001054   | 0.0016494  | 0.0021244  |   0.8 |  0.05
Modify  | 0.070137   | 0.11785    | 0.18157    |   9.3 |  3.67
Other   |            | 0.07962    |            |       |  2.48

Nlocal:        30.0625 ave          36 max          24 min
Histogram: 3 1 1 1 1 3 1 1 1 3
Nghost:        2367.06 ave        2386 max        2345 min
Histogram: 1 2 0 3 1 2 1 2 3 1
Neighs:              0 ave           0 max           0 min
Histogram: 16 0 0 0 0 0 0 0 0 0

Total # of neighbors = 0
Ave neighs/atom = 0
Ave special neighs/atom = 15.567568
Neighbor list builds = 15
Dangerous builds = 0
Generated 0 of 1 mixed pair_coeff terms from geometric mixing rule
Setting up Verlet run ...
  Unit style    : real
  Current step  : 390000
  Time step     : 0.05
Per MPI rank memory allocation (min/avg/max) = 13.35 | 14.33 | 15 Mbytes
   Step          Temp          E_pair         E_mol          TotEng         Press     
    390000   311.18008      381.35393      18554.839      19381.426      104.43501    
    400000   284.18534      366.27629      18574.792      19347.677     -297.59208    
    410000   280.21702      371.75449      18549.827      19322.513     -201.23897    
    420000   273.91027      385.13971      18515.459      19292.506      5.1275019    
    430000   301.64174      369.12412      18564.217      19364.927     -188.95824    
    440000   296.48268      372.52614      18566.044      19362.774     -204.03729    
Loop time of 13.3964 on 16 procs for 50000 steps with 481 atoms

Performance: 16.124 ns/day, 1.488 hours/ns, 3732.347 timesteps/s, 1.795 Matom-step/s
100.0% CPU use with 16 MPI tasks x 1 OpenMP threads

MPI task timing breakdown:
Section |  min time  |  avg time  |  max time  |%varavg| %total
---------------------------------------------------------------
Pair    | 0.3291     | 1.6479     | 2.8491     |  54.9 | 12.30
Bond    | 1.3683     | 2.0896     | 2.4126     |  17.4 | 15.60
Neigh   | 0.022753   | 0.023462   | 0.024259   |   0.3 |  0.18
Comm    | 7.0133     | 8.6861     | 9.9711     |  30.0 | 64.84
Output  | 0.0051936  | 0.0073482  | 0.0090622  |   1.4 |  0.05
Modify  | 0.34426    | 0.59473    | 0.92728    |  26.4 |  4.44
Other   |            | 0.3472     |            |       |  2.59

Nlocal:        30.0625 ave          39 max          19 min
Histogram: 1 1 0 3 1 3 1 2 1 3
Nghost:        2367.06 ave        2384 max        2353 min
Histogram: 4 1 0 1 3 2 1 0 1 3
Neighs:              0 ave           0 max           0 min
Histogram: 16 0 0 0 0 0 0 0 0 0

Total # of neighbors = 0
Ave neighs/atom = 0
Ave special neighs/atom = 15.567568
Neighbor list builds = 64
Dangerous builds = 0
Generated 0 of 1 mixed pair_coeff terms from geometric mixing rule
Setting up Verlet run ...
  Unit style    : real
  Current step  : 440000
  Time step     : 0.05
Per MPI rank memory allocation (min/avg/max) = 13.35 | 14.33 | 15 Mbytes
   Step          Temp          E_pair         E_mol          TotEng         Press     
    440000   296.48268      372.52614      18566.044      19362.774     -204.03729    
    450000   286.16837      385.44974      18504.359      19299.255      320.87787    
Loop time of 3.08532 on 16 procs for 10000 steps with 481 atoms

Performance: 14.002 ns/day, 1.714 hours/ns, 3241.159 timesteps/s, 1.559 Matom-step/s
100.0% CPU use with 16 MPI tasks x 1 OpenMP threads

MPI task timing breakdown:
Section |  min time  |  avg time  |  max time  |%varavg| %total
---------------------------------------------------------------
Pair    | 0.085623   | 0.38993    | 0.78779    |  27.5 | 12.64
Bond    | 0.30738    | 0.49273    | 0.60459    |  10.0 | 15.97
Neigh   | 0.0048422  | 0.0050056  | 0.0051834  |   0.1 |  0.16
Comm    | 1.5095     | 1.996      | 2.3639     |  15.7 | 64.69
Output  | 0.00093923 | 0.0015252  | 0.00202    |   0.9 |  0.05
Modify  | 0.075368   | 0.12089    | 0.17507    |   8.0 |  3.92
Other   |            | 0.07923    |            |       |  2.57

Nlocal:        30.0625 ave          40 max          22 min
Histogram: 1 1 3 3 1 3 2 1 0 1
Nghost:        2380.56 ave        2399 max        2365 min
Histogram: 2 0 5 1 1 1 2 2 1 1
Neighs:              0 ave           0 max           0 min
Histogram: 16 0 0 0 0 0 0 0 0 0

Total # of neighbors = 0
Ave neighs/atom = 0
Ave special neighs/atom = 15.567568
Neighbor list builds = 11
Dangerous builds = 0
Generated 0 of 1 mixed pair_coeff terms from geometric mixing rule
Setting up Verlet run ...
  Unit style    : real
  Current step  : 450000
  Time step     : 0.05
Per MPI rank memory allocation (min/avg/max) = 13.35 | 14.33 | 15 Mbytes
   Step          Temp          E_pair         E_mol          TotEng         Press     
    450000   286.16837      385.44974      18504.359      19299.255      320.87787    
    460000   308.54861      374.40399      18520.862      19336.734     -66.342486    
    470000   307.88641      374.04049      18535.267      19349.828     -92.683299    
    480000   318.31721      376.63391      18531.246      19363.324     -14.353055    
    490000   295.51942      376.36945      18521.16       19320.356     -67.767549    
    500000   292.28894      371.07796      18523.958      19313.24      -92.873675    
Loop time of 15.2227 on 16 procs for 50000 steps with 481 atoms

Performance: 14.189 ns/day, 1.691 hours/ns, 3284.567 timesteps/s, 1.580 Matom-step/s
100.0% CPU use with 16 MPI tasks x 1 OpenMP threads

MPI task timing breakdown:
Section |  min time  |  avg time  |  max time  |%varavg| %total
---------------------------------------------------------------
Pair    | 0.427      | 1.9921     | 3.6128     |  59.1 | 13.09
Bond    | 1.5975     | 2.5243     | 3.0086     |  21.5 | 16.58
Neigh   | 0.025242   | 0.026124   | 0.026759   |   0.3 |  0.17
Comm    | 7.7397     | 9.6977     | 11.546     |  34.9 | 63.71
Output  | 0.006594   | 0.009553   | 0.011757   |   1.7 |  0.06
Modify  | 0.36683    | 0.58052    | 0.89419    |  20.8 |  3.81
Other   |            | 0.3923     |            |       |  2.58

Nlocal:        30.0625 ave          40 max          20 min
Histogram: 1 1 3 2 1 2 0 2 2 2
Nghost:        2360.69 ave        2387 max        2343 min
Histogram: 2 2 2 3 1 1 3 1 0 1
Neighs:              0 ave           0 max           0 min
Histogram: 16 0 0 0 0 0 0 0 0 0

Total # of neighbors = 0
Ave neighs/atom = 0
Ave special neighs/atom = 15.567568
Neighbor list builds = 60
Dangerous builds = 0
Generated 0 of 1 mixed pair_coeff terms from geometric mixing rule
Setting up Verlet run ...
  Unit style    : real
  Current step  : 500000
  Time step     : 0.05
Per MPI rank memory allocation (min/avg/max) = 13.36 | 14.35 | 15 Mbytes
   Step          Temp          E_pair         E_mol          TotEng         Press     
    500000   292.28894      371.07796      18523.958      19313.24      -92.873675    
    510000   297.31576      375.74858      18550.963      19352.108     -52.010344    
Loop time of 3.05348 on 16 procs for 10000 steps with 481 atoms

Performance: 14.148 ns/day, 1.696 hours/ns, 3274.951 timesteps/s, 1.575 Matom-step/s
100.0% CPU use with 16 MPI tasks x 1 OpenMP threads

MPI task timing breakdown:
Section |  min time  |  avg time  |  max time  |%varavg| %total
---------------------------------------------------------------
Pair    | 0.08706    | 0.39806    | 0.71006    |  28.2 | 13.04
Bond    | 0.30433    | 0.50497    | 0.61112    |  10.0 | 16.54
Neigh   | 0.0038072  | 0.0039629  | 0.0040835  |   0.1 |  0.13
Comm    | 1.5592     | 1.9561     | 2.3357     |  16.6 | 64.06
Output  | 0.00096718 | 0.0015811  | 0.0020749  |   0.9 |  0.05
Modify  | 0.07129    | 0.11092    | 0.1785     |  10.0 |  3.63
Other   |            | 0.07792    |            |       |  2.55

Nlocal:        30.0625 ave          40 max          17 min
Histogram: 1 0 0 2 3 1 7 0 0 2
Nghost:        2356.56 ave        2373 max        2341 min
Histogram: 3 1 1 2 1 0 3 1 3 1
Neighs:              0 ave           0 max           0 min
Histogram: 16 0 0 0 0 0 0 0 0 0

Total # of neighbors = 0
Ave neighs/atom = 0
Ave special neighs/atom = 15.567568
Neighbor list builds = 9
Dangerous builds = 0
Generated 0 of 1 mixed pair_coeff terms from geometric mixing rule
Setting up Verlet run ...
  Unit style    : real
  Current step  : 510000
  Time step     : 0.05
Per MPI rank memory allocation (min/avg/max) = 13.36 | 14.35 | 15 Mbytes
   Step          Temp          E_pair         E_mol          TotEng         Press     
    510000   297.31576      375.74858      18550.963      19352.108     -52.010344    
    520000   321.9625       381.65553      18527.193      19369.509      54.891584    
    530000   328.95439      370.63633      18526.844      19368.144     -71.232106    
    540000   285.02951      372.2766       18562.386      19342.479     -114.64845    
    550000   281.30623      383.73844      18548.582      19334.81       92.937901    
    560000   315.62353      373.40616      18577.201      19402.198     -109.67204    
Loop time of 15.8258 on 16 procs for 50000 steps with 481 atoms

Performance: 13.649 ns/day, 1.758 hours/ns, 3159.391 timesteps/s, 1.520 Matom-step/s
100.0% CPU use with 16 MPI tasks x 1 OpenMP threads

MPI task timing breakdown:
Section |  min time  |  avg time  |  max time  |%varavg| %total
---------------------------------------------------------------
Pair    | 0.41086    | 1.9887     | 3.7812     |  68.1 | 12.57
Bond    | 1.612      | 2.5274     | 3.0194     |  20.7 | 15.97
Neigh   | 0.021092   | 0.021813   | 0.022448   |   0.3 |  0.14
Comm    | 8.1197     | 10.318     | 12.209     |  37.2 | 65.20
Output  | 0.0062263  | 0.0090143  | 0.011246   |   1.6 |  0.06
Modify  | 0.37261    | 0.56733    | 0.8947     |  21.6 |  3.58
Other   |            | 0.3938     |            |       |  2.49

Nlocal:        30.0625 ave          36 max          22 min
Histogram: 2 0 0 3 0 4 1 3 0 3
Nghost:        2361.81 ave        2378 max        2341 min
Histogram: 1 0 2 1 3 2 1 3 1 2
Neighs:              0 ave           0 max           0 min
Histogram: 16 0 0 0 0 0 0 0 0 0

Total # of neighbors = 0
Ave neighs/atom = 0
Ave special neighs/atom = 15.567568
Neighbor list builds = 50
Dangerous builds = 0
Generated 0 of 1 mixed pair_coeff terms from geometric mixing rule
Setting up Verlet run ...
  Unit style    : real
  Current step  : 560000
  Time step     : 0.05
Per MPI rank memory allocation (min/avg/max) = 13.36 | 14.35 | 15 Mbytes
   Step          Temp          E_pair         E_mol          TotEng         Press     
    560000   315.62353      373.40616      18577.201      19402.198     -109.67204    
    570000   295.35634      374.89189      18552.342      19349.827     -112.80041    
Loop time of 3.08695 on 16 procs for 10000 steps with 481 atoms

Performance: 13.994 ns/day, 1.715 hours/ns, 3239.448 timesteps/s, 1.558 Matom-step/s
100.0% CPU use with 16 MPI tasks x 1 OpenMP threads

MPI task timing breakdown:
Section |  min time  |  avg time  |  max time  |%varavg| %total
---------------------------------------------------------------
Pair    | 0.084153   | 0.39823    | 0.73673    |  30.3 | 12.90
Bond    | 0.26451    | 0.50541    | 0.60778    |  11.3 | 16.37
Neigh   | 0.0032957  | 0.0033851  | 0.0034749  |   0.1 |  0.11
Comm    | 1.6168     | 1.9905     | 2.427      |  17.4 | 64.48
Output  | 0.0009676  | 0.0016447  | 0.0021737  |   0.9 |  0.05
Modify  | 0.074983   | 0.10975    | 0.17908    |  10.1 |  3.56
Other   |            | 0.07805    |            |       |  2.53

Nlocal:        30.0625 ave          37 max          20 min
Histogram: 3 0 0 2 1 1 1 2 2 4
Nghost:        2366.31 ave        2381 max        2347 min
Histogram: 1 2 0 1 2 0 4 4 0 2
Neighs:              0 ave           0 max           0 min
Histogram: 16 0 0 0 0 0 0 0 0 0

Total # of neighbors = 0
Ave neighs/atom = 0
Ave special neighs/atom = 15.567568
Neighbor list builds = 8
Dangerous builds = 0
Generated 0 of 1 mixed pair_coeff terms from geometric mixing rule
Setting up Verlet run ...
  Unit style    : real
  Current step  : 570000
  Time step     : 0.05
Per MPI rank memory allocation (min/avg/max) = 13.36 | 14.35 | 15 Mbytes
   Step          Temp          E_pair         E_mol          TotEng         Press     
    570000   295.35634      374.89189      18552.342      19349.827     -112.80041    
    580000   304.13072      384.66179      18513.267      19333.076      204.03865    
    590000   285.77913      377.278        18523.338      19309.505     -179.73237    
    600000   286.63989      365.72403      18543.299      19319.145     -438.61573    
    610000   300.14505      393.14951      18531.559      19354.152      302.10493    
    620000   302.01278      367.57498      18527.985      19327.677     -168.59372    
Loop time of 15.7445 on 16 procs for 50000 steps with 481 atoms

Performance: 13.719 ns/day, 1.749 hours/ns, 3175.713 timesteps/s, 1.528 Matom-step/s
100.0% CPU use with 16 MPI tasks x 1 OpenMP threads

MPI task timing breakdown:
Section |  min time  |  avg time  |  max time  |%varavg| %total
---------------------------------------------------------------
Pair    | 0.42168    | 1.9916     | 3.7176     |  64.8 | 12.65
Bond    | 1.4831     | 2.5257     | 2.9197     |  21.8 | 16.04
Neigh   | 0.028397   | 0.029333   | 0.030021   |   0.3 |  0.19
Comm    | 8.2218     | 10.23      | 12.219     |  36.3 | 64.97
Output  | 0.0062466  | 0.0090358  | 0.011212   |   1.6 |  0.06
Modify  | 0.37045    | 0.56533    | 0.89291    |  21.7 |  3.59
Other   |            | 0.394      |            |       |  2.50

Nlocal:        30.0625 ave          36 max          26 min
Histogram: 1 2 2 3 3 1 1 0 1 2
Nghost:        2364.44 ave        2384 max        2349 min
Histogram: 2 1 3 2 1 2 1 3 0 1
Neighs:              0 ave           0 max           0 min
Histogram: 16 0 0 0 0 0 0 0 0 0

Total # of neighbors = 0
Ave neighs/atom = 0
Ave special neighs/atom = 15.567568
Neighbor list builds = 68
Dangerous builds = 0
Generated 0 of 1 mixed pair_coeff terms from geometric mixing rule
Setting up Verlet run ...
  Unit style    : real
  Current step  : 620000
  Time step     : 0.05
Per MPI rank memory allocation (min/avg/max) = 13.36 | 14.35 | 15 Mbytes
   Step          Temp          E_pair         E_mol          TotEng         Press     
    620000   302.01278      367.57498      18527.985      19327.677     -168.59372    
    630000   302.57987      367.37755      18543.524      19343.829     -173.38668    
Loop time of 3.15916 on 16 procs for 10000 steps with 481 atoms

Performance: 13.675 ns/day, 1.755 hours/ns, 3165.395 timesteps/s, 1.523 Matom-step/s
100.0% CPU use with 16 MPI tasks x 1 OpenMP threads

MPI task timing breakdown:
Section |  min time  |  avg time  |  max time  |%varavg| %total
---------------------------------------------------------------
Pair    | 0.088176   | 0.39887    | 0.76498    |  28.1 | 12.63
Bond    | 0.31078    | 0.50596    | 0.63941    |  10.3 | 16.02
Neigh   | 0.0069278  | 0.0071734  | 0.0073861  |   0.2 |  0.23
Comm    | 1.635      | 2.0494     | 2.4229     |  16.3 | 64.87
Output  | 0.00097611 | 0.0016187  | 0.0021305  |   0.9 |  0.05
Modify  | 0.072091   | 0.11652    | 0.18631    |  10.3 |  3.69
Other   |            | 0.07962    |            |       |  2.52

Nlocal:        30.0625 ave          36 max          24 min
Histogram: 3 0 0 3 0 5 0 1 3 1
Nghost:        2364.06 ave        2389 max        2346 min
Histogram: 3 0 2 3 1 3 1 2 0 1
Neighs:              0 ave           0 max           0 min
Histogram: 16 0 0 0 0 0 0 0 0 0

Total # of neighbors = 0
Ave neighs/atom = 0
Ave special neighs/atom = 15.567568
Neighbor list builds = 17
Dangerous builds = 0
Generated 0 of 1 mixed pair_coeff terms from geometric mixing rule
Setting up Verlet run ...
  Unit style    : real
  Current step  : 630000
  Time step     : 0.05
Per MPI rank memory allocation (min/avg/max) = 13.36 | 14.35 | 15 Mbytes
   Step          Temp          E_pair         E_mol          TotEng         Press     
    630000   302.57987      367.37755      18543.524      19343.829     -173.38668    
    640000   296.29351      381.01498      18548.132      19353.08       39.272215    
    650000   297.80208      365.30033      18541.061      19332.454     -298.86944    
    660000   285.4484       373.42434      18519.544      19301.385     -82.826307    
    670000   285.25909      383.46281      18519.239      19310.848      168.45257    
    680000   298.96769      368.4553       18557.774      19353.989     -502.3507     
Loop time of 15.1629 on 16 procs for 50000 steps with 481 atoms

Performance: 14.245 ns/day, 1.685 hours/ns, 3297.523 timesteps/s, 1.586 Matom-step/s
100.0% CPU use with 16 MPI tasks x 1 OpenMP threads

MPI task timing breakdown:
Section |  min time  |  avg time  |  max time  |%varavg| %total
---------------------------------------------------------------
Pair    | 0.4118     | 1.9919     | 3.5777     |  59.6 | 13.14
Bond    | 1.6644     | 2.5204     | 3.1011     |  20.5 | 16.62
Neigh   | 0.021457   | 0.022159   | 0.022705   |   0.3 |  0.15
Comm    | 7.6169     | 9.6675     | 11.333     |  35.3 | 63.76
Output  | 0.0061531  | 0.0090718  | 0.01126    |   1.7 |  0.06
Modify  | 0.36173    | 0.56141    | 0.89992    |  22.4 |  3.70
Other   |            | 0.3905     |            |       |  2.58

Nlocal:        30.0625 ave          41 max          15 min
Histogram: 1 0 0 2 2 3 4 1 2 1
Nghost:        2367.44 ave        2381 max        2350 min
Histogram: 1 2 1 2 1 0 2 1 3 3
Neighs:              0 ave           0 max           0 min
Histogram: 16 0 0 0 0 0 0 0 0 0

Total # of neighbors = 0
Ave neighs/atom = 0
Ave special neighs/atom = 15.567568
Neighbor list builds = 52
Dangerous builds = 0
Generated 0 of 1 mixed pair_coeff terms from geometric mixing rule
Setting up Verlet run ...
  Unit style    : real
  Current step  : 680000
  Time step     : 0.05
Per MPI rank memory allocation (min/avg/max) = 13.36 | 14.35 | 15 Mbytes
   Step          Temp          E_pair         E_mol          TotEng         Press     
    680000   298.96769      368.4553       18557.774      19353.989     -502.3507     
    690000   300.94886      369.84695      18556.833      19357.274     -197.27858    
Loop time of 3.08595 on 16 procs for 10000 steps with 481 atoms

Performance: 13.999 ns/day, 1.714 hours/ns, 3240.491 timesteps/s, 1.559 Matom-step/s
100.0% CPU use with 16 MPI tasks x 1 OpenMP threads

MPI task timing breakdown:
Section |  min time  |  avg time  |  max time  |%varavg| %total
---------------------------------------------------------------
Pair    | 0.098139   | 0.39922    | 0.73949    |  26.5 | 12.94
Bond    | 0.3092     | 0.50512    | 0.64668    |  11.2 | 16.37
Neigh   | 0.0051649  | 0.0053333  | 0.0054632  |   0.1 |  0.17
Comm    | 1.5299     | 1.9858     | 2.3605     |  16.0 | 64.35
Output  | 0.00096904 | 0.0016066  | 0.0021319  |   0.9 |  0.05
Modify  | 0.070284   | 0.11063    | 0.17955    |  10.2 |  3.58
Other   |            | 0.07826    |            |       |  2.54

Nlocal:        30.0625 ave          39 max          22 min
Histogram: 2 1 2 2 2 1 1 3 1 1
Nghost:        2364.81 ave        2380 max        2343 min
Histogram: 1 1 0 1 4 1 2 0 4 2
Neighs:              0 ave           0 max           0 min
Histogram: 16 0 0 0 0 0 0 0 0 0

Total # of neighbors = 0
Ave neighs/atom = 0
Ave special neighs/atom = 15.567568
Neighbor list builds = 12
Dangerous builds = 0
Generated 0 of 1 mixed pair_coeff terms from geometric mixing rule
Setting up Verlet run ...
  Unit style    : real
  Current step  : 690000
  Time step     : 0.05
Per MPI rank memory allocation (min/avg/max) = 13.36 | 14.35 | 15 Mbytes
   Step          Temp          E_pair         E_mol          TotEng         Press     
    690000   300.94886      369.84695      18556.833      19357.274     -197.27858    
    700000   309.48106      382.32518      18531.855      19356.982      31.85347     
    710000   300.49617      374.76668      18519.101      19323.814     -53.228236    
    720000   308.22604      378.43955      18552.398      19371.844      99.462403    
    730000   324.16434      377.64129      18553.116      19394.568     -95.419541    
    740000   316.65413      368.05548      18544.484      19365.604     -357.66029    
Loop time of 15.7774 on 16 procs for 50000 steps with 481 atoms

Performance: 13.690 ns/day, 1.753 hours/ns, 3169.083 timesteps/s, 1.524 Matom-step/s
100.0% CPU use with 16 MPI tasks x 1 OpenMP threads

MPI task timing breakdown:
Section |  min time  |  avg time  |  max time  |%varavg| %total
---------------------------------------------------------------
Pair    | 0.48058    | 1.9945     | 3.5195     |  64.0 | 12.64
Bond    | 1.5082     | 2.525      | 3.2107     |  26.2 | 16.00
Neigh   | 0.039506   | 0.040815   | 0.041857   |   0.4 |  0.26
Comm    | 8.2234     | 10.238     | 12.233     |  37.2 | 64.89
Output  | 0.0063188  | 0.0092688  | 0.011546   |   1.7 |  0.06
Modify  | 0.38271    | 0.57312    | 0.92117    |  22.4 |  3.63
Other   |            | 0.3966     |            |       |  2.51

Nlocal:        30.0625 ave          37 max          20 min
Histogram: 1 1 1 2 1 1 1 2 4 2
Nghost:        2358.44 ave        2386 max        2337 min
Histogram: 1 3 1 1 3 3 2 1 0 1
Neighs:              0 ave           0 max           0 min
Histogram: 16 0 0 0 0 0 0 0 0 0

Total # of neighbors = 0
Ave neighs/atom = 0
Ave special neighs/atom = 15.567568
Neighbor list builds = 93
Dangerous builds = 0
Generated 0 of 1 mixed pair_coeff terms from geometric mixing rule
Setting up Verlet run ...
  Unit style    : real
  Current step  : 740000
  Time step     : 0.05
Per MPI rank memory allocation (min/avg/max) = 13.36 | 14.35 | 15 Mbytes
   Step          Temp          E_pair         E_mol          TotEng         Press     
    740000   316.65413      368.05548      18544.484      19365.604     -357.66029    
    750000   299.09246      383.27909      18533.225      19344.442      217.69226    
Loop time of 3.01237 on 16 procs for 10000 steps with 481 atoms

Performance: 14.341 ns/day, 1.674 hours/ns, 3319.644 timesteps/s, 1.597 Matom-step/s
100.0% CPU use with 16 MPI tasks x 1 OpenMP threads

MPI task timing breakdown:
Section |  min time  |  avg time  |  max time  |%varavg| %total
---------------------------------------------------------------
Pair    | 0.091312   | 0.3983     | 0.73182    |  27.6 | 13.22
Bond    | 0.28548    | 0.50386    | 0.63321    |  11.2 | 16.73
Neigh   | 0.0070171  | 0.0073072  | 0.0075012  |   0.2 |  0.24
Comm    | 1.5057     | 1.9116     | 2.3113     |  16.8 | 63.46
Output  | 0.00092338 | 0.0015735  | 0.0021168  |   0.9 |  0.05
Modify  | 0.069948   | 0.11182    | 0.18001    |  10.1 |  3.71
Other   |            | 0.07791    |            |       |  2.59

Nlocal:        30.0625 ave          37 max          22 min
Histogram: 2 1 0 2 3 0 2 3 0 3
Nghost:        2368.56 ave        2382 max        2353 min
Histogram: 2 2 0 1 2 2 1 1 3 2
Neighs:              0 ave           0 max           0 min
Histogram: 16 0 0 0 0 0 0 0 0 0

Total # of neighbors = 0
Ave neighs/atom = 0
Ave special neighs/atom = 15.567568
Neighbor list builds = 17
Dangerous builds = 0
Generated 0 of 1 mixed pair_coeff terms from geometric mixing rule
Setting up Verlet run ...
  Unit style    : real
  Current step  : 750000
  Time step     : 0.05
Per MPI rank memory allocation (min/avg/max) = 13.36 | 14.35 | 15 Mbytes
   Step          Temp          E_pair         E_mol          TotEng         Press     
    750000   299.09246      383.27909      18533.225      19344.442      217.69226    
    760000   287.8509       377.15597      18526.833      19315.842     -146.18287    
    770000   290.02832      377.24981      18537.365      19329.584     -130.7437     
    780000   298.77991      377.73045      18551.835      19357.057     -43.597204    
    790000   296.71326      378.20027      18538.55       19341.284      45.948178    
    800000   289.77178      386.92335      18509.025      19310.551      244.93068    
Loop time of 15.1208 on 16 procs for 50000 steps with 481 atoms

Performance: 14.285 ns/day, 1.680 hours/ns, 3306.699 timesteps/s, 1.591 Matom-step/s
100.0% CPU use with 16 MPI tasks x 1 OpenMP threads

MPI task timing breakdown:
Section |  min time  |  avg time  |  max time  |%varavg| %total
---------------------------------------------------------------
Pair    | 0.46581    | 1.9963     | 3.5226     |  63.5 | 13.20
Bond    | 1.4894     | 2.5265     | 3.1929     |  24.7 | 16.71
Neigh   | 0.021303   | 0.02205    | 0.022653   |   0.3 |  0.15
Comm    | 7.7167     | 9.613      | 11.59      |  38.6 | 63.57
Output  | 0.0061489  | 0.0087168  | 0.010852   |   1.6 |  0.06
Modify  | 0.37518    | 0.56242    | 0.89381    |  21.9 |  3.72
Other   |            | 0.3918     |            |       |  2.59

Nlocal:        30.0625 ave          36 max          24 min
Histogram: 1 2 0 2 3 3 1 1 1 2
Nghost:        2362.94 ave        2387 max        2339 min
Histogram: 2 2 1 2 0 4 0 1 2 2
Neighs:              0 ave           0 max           0 min
Histogram: 16 0 0 0 0 0 0 0 0 0

Total # of neighbors = 0
Ave neighs/atom = 0
Ave special neighs/atom = 15.567568
Neighbor list builds = 52
Dangerous builds = 0
Generated 0 of 1 mixed pair_coeff terms from geometric mixing rule
Setting up Verlet run ...
  Unit style    : real
  Current step  : 800000
  Time step     : 0.05
Per MPI rank memory allocation (min/avg/max) = 13.36 | 14.35 | 15 Mbytes
   Step          Temp          E_pair         E_mol          TotEng         Press     
    800000   289.77178      386.92335      18509.025      19310.551      244.93068    
    810000   293.59564      379.73259      18516.974      19316.78       30.332939    
Loop time of 3.1269 on 16 procs for 10000 steps with 481 atoms

Performance: 13.816 ns/day, 1.737 hours/ns, 3198.057 timesteps/s, 1.538 Matom-step/s
100.0% CPU use with 16 MPI tasks x 1 OpenMP threads

MPI task timing breakdown:
Section |  min time  |  avg time  |  max time  |%varavg| %total
---------------------------------------------------------------
Pair    | 0.082889   | 0.3998     | 0.76157    |  28.6 | 12.79
Bond    | 0.2847     | 0.50549    | 0.64834    |  11.8 | 16.17
Neigh   | 0.0063304  | 0.0065497  | 0.0067329  |   0.1 |  0.21
Comm    | 1.5445     | 2.0208     | 2.4206     |  17.1 | 64.63
Output  | 0.00093094 | 0.001551   | 0.0020834  |   0.9 |  0.05
Modify  | 0.074239   | 0.11388    | 0.18863    |  10.6 |  3.64
Other   |            | 0.07884    |            |       |  2.52

Nlocal:        30.0625 ave          37 max          23 min
Histogram: 1 1 3 1 0 4 1 3 1 1
Nghost:        2354.69 ave        2368 max        2339 min
Histogram: 1 2 1 2 2 0 3 0 2 3
Neighs:              0 ave           0 max           0 min
Histogram: 16 0 0 0 0 0 0 0 0 0

Total # of neighbors = 0
Ave neighs/atom = 0
Ave special neighs/atom = 15.567568
Neighbor list builds = 15
Dangerous builds = 0
Generated 0 of 1 mixed pair_coeff terms from geometric mixing rule
Setting up Verlet run ...
  Unit style    : real
  Current step  : 810000
  Time step     : 0.05
Per MPI rank memory allocation (min/avg/max) = 13.36 | 14.35 | 15 Mbytes
   Step          Temp          E_pair         E_mol          TotEng         Press     
    810000   293.59564      379.73259      18516.974      19316.78       30.332939    
    820000   312.71918      378.22749      18530.39       19356.053      68.052642    
    830000   300.73776      383.31913      18538.725      19352.337      132.83506    
    840000   291.35841      381.23724      18538.509      19336.618      6.0797595    
    850000   292.55195      369.0327       18527.26       19314.873     -180.15088    
    860000   284.05279      378.06162      18508.105      19292.586      21.94613     
Loop time of 15.3512 on 16 procs for 50000 steps with 481 atoms

Performance: 14.071 ns/day, 1.706 hours/ns, 3257.067 timesteps/s, 1.567 Matom-step/s
100.0% CPU use with 16 MPI tasks x 1 OpenMP threads

MPI task timing breakdown:
Section |  min time  |  avg time  |  max time  |%varavg| %total
---------------------------------------------------------------
Pair    | 0.41512    | 1.9956     | 3.5954     |  61.5 | 13.00
Bond    | 1.3397     | 2.527      | 3.0909     |  25.3 | 16.46
Neigh   | 0.045224   | 0.046857   | 0.048216   |   0.4 |  0.31
Comm    | 7.7492     | 9.8083     | 12.013     |  36.6 | 63.89
Output  | 0.0060691  | 0.0088506  | 0.011026   |   1.7 |  0.06
Modify  | 0.37072    | 0.57315    | 0.92487    |  22.9 |  3.73
Other   |            | 0.3915     |            |       |  2.55

Nlocal:        30.0625 ave          36 max          23 min
Histogram: 2 1 1 3 0 3 0 1 1 4
Nghost:        2367.06 ave        2383 max        2354 min
Histogram: 4 0 2 0 2 3 1 1 1 2
Neighs:              0 ave           0 max           0 min
Histogram: 16 0 0 0 0 0 0 0 0 0

Total # of neighbors = 0
Ave neighs/atom = 0
Ave special neighs/atom = 15.567568
Neighbor list builds = 110
Dangerous builds = 0
Generated 0 of 1 mixed pair_coeff terms from geometric mixing rule
Setting up Verlet run ...
  Unit style    : real
  Current step  : 860000
  Time step     : 0.05
Per MPI rank memory allocation (min/avg/max) = 13.36 | 14.35 | 15 Mbytes
   Step          Temp          E_pair         E_mol          TotEng         Press     
    860000   284.05279      378.06162      18508.105      19292.586      21.94613     
    870000   306.30965      376.08437      18519.771      19334.12      -52.941664    
Loop time of 3.01713 on 16 procs for 10000 steps with 481 atoms

Performance: 14.318 ns/day, 1.676 hours/ns, 3314.411 timesteps/s, 1.594 Matom-step/s
100.0% CPU use with 16 MPI tasks x 1 OpenMP threads

MPI task timing breakdown:
Section |  min time  |  avg time  |  max time  |%varavg| %total
---------------------------------------------------------------
Pair    | 0.084582   | 0.39051    | 0.70391    |  27.2 | 12.94
Bond    | 0.30094    | 0.49414    | 0.61374    |   9.9 | 16.38
Neigh   | 0.010248   | 0.010574   | 0.010881   |   0.2 |  0.35
Comm    | 1.5215     | 1.9274     | 2.2884     |  15.4 | 63.88
Output  | 0.00098204 | 0.0015889  | 0.0021203  |   0.9 |  0.05
Modify  | 0.069731   | 0.11594    | 0.1875     |  11.5 |  3.84
Other   |            | 0.07695    |            |       |  2.55

Nlocal:        30.0625 ave          36 max          23 min
Histogram: 2 1 1 3 1 0 2 1 1 4
Nghost:        2362.56 ave        2380 max        2344 min
Histogram: 1 2 1 3 1 1 1 3 2 1
Neighs:              0 ave           0 max           0 min
Histogram: 16 0 0 0 0 0 0 0 0 0

Total # of neighbors = 0
Ave neighs/atom = 0
Ave special neighs/atom = 15.567568
Neighbor list builds = 25
Dangerous builds = 0
Generated 0 of 1 mixed pair_coeff terms from geometric mixing rule
Setting up Verlet run ...
  Unit style    : real
  Current step  : 870000
  Time step     : 0.05
Per MPI rank memory allocation (min/avg/max) = 13.36 | 14.35 | 15 Mbytes
   Step          Temp          E_pair         E_mol          TotEng         Press     
    870000   306.30965      376.08437      18519.771      19334.12      -52.941664    
    880000   303.70748      364.6909       18544.907      19344.14      -373.10887    
    890000   300.59791      378.04602      18546.091      19354.229      34.761975    
    900000   296.83798      388.56787      18551.533      19364.814      131.02954    
    910000   299.80538      359.33791      18553.471      19341.767     -464.66863    
    920000   298.8949       372.82509      18531.361      19331.842     -300.59447    
Loop time of 14.3214 on 16 procs for 50000 steps with 481 atoms

Performance: 15.082 ns/day, 1.591 hours/ns, 3491.285 timesteps/s, 1.679 Matom-step/s
100.0% CPU use with 16 MPI tasks x 1 OpenMP threads

MPI task timing breakdown:
Section |  min time  |  avg time  |  max time  |%varavg| %total
---------------------------------------------------------------
Pair    | 0.37482    | 1.7441     | 3.0791     |  58.7 | 12.18
Bond    | 1.3517     | 2.2043     | 2.6491     |  20.1 | 15.39
Neigh   | 0.044239   | 0.045599   | 0.047204   |   0.4 |  0.32
Comm    | 7.7368     | 9.3629     | 10.793     |  31.7 | 65.38
Output  | 0.0054307  | 0.0078161  | 0.0097066  |   1.5 |  0.05
Modify  | 0.3674     | 0.60246    | 1.0034     |  30.3 |  4.21
Other   |            | 0.3542     |            |       |  2.47

Nlocal:        30.0625 ave          37 max          24 min
Histogram: 2 1 2 1 2 4 1 0 2 1
Nghost:        2371.56 ave        2387 max        2351 min
Histogram: 1 1 2 0 2 2 2 2 1 3
Neighs:              0 ave           0 max           0 min
Histogram: 16 0 0 0 0 0 0 0 0 0

Total # of neighbors = 0
Ave neighs/atom = 0
Ave special neighs/atom = 15.567568
Neighbor list builds = 119
Dangerous builds = 0
Generated 0 of 1 mixed pair_coeff terms from geometric mixing rule
Setting up Verlet run ...
  Unit style    : real
  Current step  : 920000
  Time step     : 0.05
Per MPI rank memory allocation (min/avg/max) = 13.36 | 14.35 | 15 Mbytes
   Step          Temp          E_pair         E_mol          TotEng         Press     
    920000   298.8949       372.82509      18531.361      19331.842     -300.59447    
    930000   304.51068      396.37543      18523.764      19355.829      61.416185    
Loop time of 3.03604 on 16 procs for 10000 steps with 481 atoms

Performance: 14.229 ns/day, 1.687 hours/ns, 3293.766 timesteps/s, 1.584 Matom-step/s
100.0% CPU use with 16 MPI tasks x 1 OpenMP threads

MPI task timing breakdown:
Section |  min time  |  avg time  |  max time  |%varavg| %total
---------------------------------------------------------------
Pair    | 0.094939   | 0.40288    | 0.67129    |  28.4 | 13.27
Bond    | 0.33346    | 0.50769    | 0.59907    |   9.7 | 16.72
Neigh   | 0.0093839  | 0.0096795  | 0.0099694  |   0.2 |  0.32
Comm    | 1.539      | 1.9239     | 2.2888     |  16.5 | 63.37
Output  | 0.00094496 | 0.0015739  | 0.0020856  |   0.9 |  0.05
Modify  | 0.074243   | 0.11173    | 0.18055    |  10.0 |  3.68
Other   |            | 0.07859    |            |       |  2.59

Nlocal:        30.0625 ave          37 max          19 min
Histogram: 1 0 2 1 0 1 3 4 3 1
Nghost:        2380.94 ave        2394 max        2361 min
Histogram: 1 1 0 1 2 2 2 4 1 2
Neighs:              0 ave           0 max           0 min
Histogram: 16 0 0 0 0 0 0 0 0 0

Total # of neighbors = 0
Ave neighs/atom = 0
Ave special neighs/atom = 15.567568
Neighbor list builds = 23
Dangerous builds = 0
Generated 0 of 1 mixed pair_coeff terms from geometric mixing rule
Setting up Verlet run ...
  Unit style    : real
  Current step  : 930000
  Time step     : 0.05
Per MPI rank memory allocation (min/avg/max) = 13.36 | 14.35 | 15 Mbytes
   Step          Temp          E_pair         E_mol          TotEng         Press     
    930000   304.51068      396.37543      18523.764      19355.829      61.416185    
    940000   305.57714      384.91189      18559.781      19381.91      -254.6629     
    950000   300.71069      391.54412      18531.023      19352.821     -35.054023    
    960000   298.1803       392.10488      18516.984      19335.722     -84.459034    
    970000   301.01552      387.00439      18535.204      19352.898     -93.941844    
    980000   300.77828      398.15275      18540.676      19369.179      140.65968    
Loop time of 15.0808 on 16 procs for 50000 steps with 481 atoms

Performance: 14.323 ns/day, 1.676 hours/ns, 3315.471 timesteps/s, 1.595 Matom-step/s
100.0% CPU use with 16 MPI tasks x 1 OpenMP threads

MPI task timing breakdown:
Section |  min time  |  avg time  |  max time  |%varavg| %total
---------------------------------------------------------------
Pair    | 0.45518    | 2.0202     | 3.452      |  58.7 | 13.40
Bond    | 1.7486     | 2.5303     | 3.0189     |  19.6 | 16.78
Neigh   | 0.080086   | 0.082981   | 0.085157   |   0.5 |  0.55
Comm    | 7.4536     | 9.4822     | 11.065     |  34.9 | 62.88
Output  | 0.0060139  | 0.0087878  | 0.01097    |   1.7 |  0.06
Modify  | 0.36305    | 0.56565    | 0.88588    |  21.5 |  3.75
Other   |            | 0.3906     |            |       |  2.59

Nlocal:        30.0625 ave          35 max          24 min
Histogram: 1 0 3 2 1 2 2 1 1 3
Nghost:        2377.56 ave        2391 max        2362 min
Histogram: 2 1 0 2 3 0 3 1 2 2
Neighs:              0 ave           0 max           0 min
Histogram: 16 0 0 0 0 0 0 0 0 0

Total # of neighbors = 0
Ave neighs/atom = 0
Ave special neighs/atom = 15.567568
Neighbor list builds = 198
Dangerous builds = 0
Generated 0 of 1 mixed pair_coeff terms from geometric mixing rule
Setting up Verlet run ...
  Unit style    : real
  Current step  : 980000
  Time step     : 0.05
Per MPI rank memory allocation (min/avg/max) = 13.36 | 14.35 | 15 Mbytes
   Step          Temp          E_pair         E_mol          TotEng         Press     
    980000   300.77828      398.15275      18540.676      19369.179      140.65968    
    990000   307.29409      390.15303      18511.048      19340.874     -42.924468    
Loop time of 3.04564 on 16 procs for 10000 steps with 481 atoms

Performance: 14.184 ns/day, 1.692 hours/ns, 3283.382 timesteps/s, 1.579 Matom-step/s
100.0% CPU use with 16 MPI tasks x 1 OpenMP threads

MPI task timing breakdown:
Section |  min time  |  avg time  |  max time  |%varavg| %total
---------------------------------------------------------------
Pair    | 0.10055    | 0.40442    | 0.72269    |  26.4 | 13.28
Bond    | 0.34332    | 0.5056     | 0.62405    |   9.8 | 16.60
Neigh   | 0.015409   | 0.015956   | 0.016401   |   0.2 |  0.52
Comm    | 1.4623     | 1.927      | 2.2546     |  15.9 | 63.27
Output  | 0.00096959 | 0.0016066  | 0.0021329  |   0.9 |  0.05
Modify  | 0.070204   | 0.11291    | 0.17667    |   9.7 |  3.71
Other   |            | 0.07821    |            |       |  2.57

Nlocal:        30.0625 ave          36 max          24 min
Histogram: 1 1 0 5 1 3 1 2 0 2
Nghost:        2370.81 ave        2385 max        2358 min
Histogram: 2 1 4 0 2 0 2 3 0 2
Neighs:              0 ave           0 max           0 min
Histogram: 16 0 0 0 0 0 0 0 0 0

Total # of neighbors = 0
Ave neighs/atom = 0
Ave special neighs/atom = 15.567568
Neighbor list builds = 38
Dangerous builds = 0
Generated 0 of 1 mixed pair_coeff terms from geometric mixing rule
Setting up Verlet run ...
  Unit style    : real
  Current step  : 990000
  Time step     : 0.05
Per MPI rank memory allocation (min/avg/max) = 13.36 | 14.35 | 15 Mbytes
   Step          Temp          E_pair         E_mol          TotEng         Press     
    990000   307.29409      390.15303      18511.048      19340.874     -42.924468    
   1000000   279.87401      384.28715      18513.421      19298.149     -256.31571    
   1010000   290.32815      395.16096      18538.133      19348.692     -81.114809    
   1020000   298.00239      392.11007      18540.664      19359.153     -150.84624    
   1030000   298.10501      386.37428      18537.927      19350.826     -275.02977    
   1040000   292.2172       395.4344       18512.053      19325.589      100.69892    
Loop time of 15.4258 on 16 procs for 50000 steps with 481 atoms

Performance: 14.003 ns/day, 1.714 hours/ns, 3241.324 timesteps/s, 1.559 Matom-step/s
100.0% CPU use with 16 MPI tasks x 1 OpenMP threads

MPI task timing breakdown:
Section |  min time  |  avg time  |  max time  |%varavg| %total
---------------------------------------------------------------
Pair    | 0.43326    | 2.0241     | 3.7069     |  58.2 | 13.12
Bond    | 1.7233     | 2.5334     | 3.004      |  19.1 | 16.42
Neigh   | 0.079568   | 0.082336   | 0.084603   |   0.5 |  0.53
Comm    | 7.3669     | 9.8017     | 11.418     |  34.4 | 63.54
Output  | 0.0061247  | 0.0095937  | 0.012425   |   2.2 |  0.06
Modify  | 0.36363    | 0.57821    | 0.89293    |  21.2 |  3.75
Other   |            | 0.3965     |            |       |  2.57

Nlocal:        30.0625 ave          40 max          22 min
Histogram: 2 2 2 2 0 2 1 4 0 1
Nghost:        2374.56 ave        2395 max        2360 min
Histogram: 4 0 2 3 1 2 1 0 2 1
Neighs:              0 ave           0 max           0 min
Histogram: 16 0 0 0 0 0 0 0 0 0

Total # of neighbors = 0
Ave neighs/atom = 0
Ave special neighs/atom = 15.567568
Neighbor list builds = 195
Dangerous builds = 0
Generated 0 of 1 mixed pair_coeff terms from geometric mixing rule
Setting up Verlet run ...
  Unit style    : real
  Current step  : 1040000
  Time step     : 0.05
Per MPI rank memory allocation (min/avg/max) = 13.36 | 14.35 | 15 Mbytes
   Step          Temp          E_pair         E_mol          TotEng         Press     
   1040000   292.2172       395.4344       18512.053      19325.589      100.69892    
   1050000   288.18044      404.04961      18506.576      19322.951      237.00302    
Loop time of 3.0449 on 16 procs for 10000 steps with 481 atoms

Performance: 14.188 ns/day, 1.692 hours/ns, 3284.180 timesteps/s, 1.580 Matom-step/s
100.0% CPU use with 16 MPI tasks x 1 OpenMP threads

MPI task timing breakdown:
Section |  min time  |  avg time  |  max time  |%varavg| %total
---------------------------------------------------------------
Pair    | 0.086869   | 0.40394    | 0.7422     |  27.4 | 13.27
Bond    | 0.32089    | 0.5055     | 0.60547    |   9.5 | 16.60
Neigh   | 0.018059   | 0.018673   | 0.01919    |   0.2 |  0.61
Comm    | 1.4277     | 1.9232     | 2.2768     |  16.3 | 63.16
Output  | 0.00092848 | 0.0015556  | 0.0020575  |   0.9 |  0.05
Modify  | 0.069699   | 0.11348    | 0.17745    |   9.8 |  3.73
Other   |            | 0.07856    |            |       |  2.58

Nlocal:        30.0625 ave          39 max          20 min
Histogram: 1 1 4 0 2 2 1 1 1 3
Nghost:        2368.56 ave        2389 max        2353 min
Histogram: 2 1 3 3 1 1 1 2 1 1
Neighs:              0 ave           0 max           0 min
Histogram: 16 0 0 0 0 0 0 0 0 0

Total # of neighbors = 0
Ave neighs/atom = 0
Ave special neighs/atom = 15.567568
Neighbor list builds = 44
Dangerous builds = 0
Generated 0 of 1 mixed pair_coeff terms from geometric mixing rule
Setting up Verlet run ...
  Unit style    : real
  Current step  : 1050000
  Time step     : 0.05
Per MPI rank memory allocation (min/avg/max) = 13.36 | 14.35 | 15 Mbytes
   Step          Temp          E_pair         E_mol          TotEng         Press     
   1050000   288.18044      404.04961      18506.576      19322.951      237.00302    
   1060000   292.10397      387.08499      18531.42       19336.444     -311.62641    
   1070000   325.61707      397.91205      18537.41       19401.211      15.388127    
   1080000   302.77144      396.8786       18548.336      19378.416     -88.050355    
   1090000   288.55498      392.16949      18546.649      19351.68      -23.88619     
   1100000   301.05483      386.51017      18518.145      19335.401     -295.24725    
Loop time of 15.2463 on 16 procs for 50000 steps with 481 atoms

Performance: 14.167 ns/day, 1.694 hours/ns, 3279.483 timesteps/s, 1.577 Matom-step/s
100.0% CPU use with 16 MPI tasks x 1 OpenMP threads

MPI task timing breakdown:
Section |  min time  |  avg time  |  max time  |%varavg| %total
---------------------------------------------------------------
Pair    | 0.44456    | 2.0236     | 3.6616     |  59.0 | 13.27
Bond    | 1.6753     | 2.5315     | 2.9822     |  19.4 | 16.60
Neigh   | 0.089376   | 0.092534   | 0.095144   |   0.5 |  0.61
Comm    | 7.2528     | 9.6215     | 11.341     |  35.3 | 63.11
Output  | 0.0061018  | 0.0090683  | 0.011321   |   1.7 |  0.06
Modify  | 0.3657     | 0.57473    | 0.88849    |  21.2 |  3.77
Other   |            | 0.3933     |            |       |  2.58

Nlocal:        30.0625 ave          35 max          24 min
Histogram: 2 1 0 1 1 2 4 2 1 2
Nghost:        2352.06 ave        2371 max        2333 min
Histogram: 3 0 0 3 0 5 2 0 1 2
Neighs:              0 ave           0 max           0 min
Histogram: 16 0 0 0 0 0 0 0 0 0

Total # of neighbors = 0
Ave neighs/atom = 0
Ave special neighs/atom = 15.567568
Neighbor list builds = 219
Dangerous builds = 0
Generated 0 of 1 mixed pair_coeff terms from geometric mixing rule
Setting up Verlet run ...
  Unit style    : real
  Current step  : 1100000
  Time step     : 0.05
Per MPI rank memory allocation (min/avg/max) = 13.36 | 14.35 | 15 Mbytes
   Step          Temp          E_pair         E_mol          TotEng         Press     
   1100000   301.05483      386.51017      18518.145      19335.401     -295.24725    
   1110000   278.26576      399.93132      18517.532      19315.603      111.54828    
Loop time of 3.15632 on 16 procs for 10000 steps with 481 atoms

Performance: 13.687 ns/day, 1.754 hours/ns, 3168.248 timesteps/s, 1.524 Matom-step/s
100.0% CPU use with 16 MPI tasks x 1 OpenMP threads

MPI task timing breakdown:
Section |  min time  |  avg time  |  max time  |%varavg| %total
---------------------------------------------------------------
Pair    | 0.096414   | 0.40586    | 0.70243    |  26.3 | 12.86
Bond    | 0.34291    | 0.50703    | 0.60427    |   9.7 | 16.06
Neigh   | 0.017544   | 0.018167   | 0.01865    |   0.2 |  0.58
Comm    | 1.6011     | 2.0275     | 2.3574     |  15.8 | 64.24
Output  | 0.00099223 | 0.0016396  | 0.0021613  |   0.9 |  0.05
Modify  | 0.072855   | 0.11589    | 0.18337    |  10.1 |  3.67
Other   |            | 0.08024    |            |       |  2.54

Nlocal:        30.0625 ave          39 max          21 min
Histogram: 1 1 1 5 1 0 4 1 0 2
Nghost:        2363.19 ave        2378 max        2345 min
Histogram: 3 0 0 4 1 0 2 1 1 4
Neighs:              0 ave           0 max           0 min
Histogram: 16 0 0 0 0 0 0 0 0 0

Total # of neighbors = 0
Ave neighs/atom = 0
Ave special neighs/atom = 15.567568
Neighbor list builds = 43
Dangerous builds = 0
Generated 0 of 1 mixed pair_coeff terms from geometric mixing rule
Setting up Verlet run ...
  Unit style    : real
  Current step  : 1110000
  Time step     : 0.05
Per MPI rank memory allocation (min/avg/max) = 13.36 | 14.35 | 15 Mbytes
   Step          Temp          E_pair         E_mol          TotEng         Press     
   1110000   278.26576      399.93132      18517.532      19315.603      111.54828    
   1120000   293.02361      394.84978      18501.354      19315.459     -72.49567     
   1130000   292.4954       394.91541      18532.502      19345.917     -11.992475    
   1140000   300.18164      395.59123      18546.327      19371.415     -9.2907178    
   1150000   298.80506      396.27939      18547.26       19371.066      58.779547    
   1160000   289.94918      389.59693      18516.815      19321.268     -118.71772    
Loop time of 15.2453 on 16 procs for 50000 steps with 481 atoms

Performance: 14.168 ns/day, 1.694 hours/ns, 3279.697 timesteps/s, 1.578 Matom-step/s
100.0% CPU use with 16 MPI tasks x 1 OpenMP threads

MPI task timing breakdown:
Section |  min time  |  avg time  |  max time  |%varavg| %total
---------------------------------------------------------------
Pair    | 0.49432    | 2.023      | 3.5601     |  59.9 | 13.27
Bond    | 1.6767     | 2.5298     | 3.0101     |  21.5 | 16.59
Neigh   | 0.090067   | 0.09324    | 0.095751   |   0.5 |  0.61
Comm    | 7.4597     | 9.6309     | 11.346     |  35.8 | 63.17
Output  | 0.0060861  | 0.0090647  | 0.011305   |   1.7 |  0.06
Modify  | 0.36391    | 0.56881    | 0.88197    |  21.2 |  3.73
Other   |            | 0.3904     |            |       |  2.56

Nlocal:        30.0625 ave          45 max          19 min
Histogram: 1 1 3 4 2 1 2 1 0 1
Nghost:        2365.56 ave        2386 max        2351 min
Histogram: 2 1 4 1 3 0 2 0 2 1
Neighs:              0 ave           0 max           0 min
Histogram: 16 0 0 0 0 0 0 0 0 0

Total # of neighbors = 0
Ave neighs/atom = 0
Ave special neighs/atom = 15.567568
Neighbor list builds = 221
Dangerous builds = 0
Generated 0 of 1 mixed pair_coeff terms from geometric mixing rule
Setting up Verlet run ...
  Unit style    : real
  Current step  : 1160000
  Time step     : 0.05
Per MPI rank memory allocation (min/avg/max) = 13.36 | 14.35 | 15 Mbytes
   Step          Temp          E_pair         E_mol          TotEng         Press     
   1160000   289.94918      389.59693      18516.815      19321.268     -118.71772    
   1170000   293.53175      399.08781      18534.82       19353.89       65.821575    
Loop time of 2.99916 on 16 procs for 10000 steps with 481 atoms

Performance: 14.404 ns/day, 1.666 hours/ns, 3334.272 timesteps/s, 1.604 Matom-step/s
100.0% CPU use with 16 MPI tasks x 1 OpenMP threads

MPI task timing breakdown:
Section |  min time  |  avg time  |  max time  |%varavg| %total
---------------------------------------------------------------
Pair    | 0.09796    | 0.40489    | 0.73617    |  27.2 | 13.50
Bond    | 0.35438    | 0.5055     | 0.59381    |   8.6 | 16.85
Neigh   | 0.014961   | 0.015486   | 0.015895   |   0.2 |  0.52
Comm    | 1.4177     | 1.8817     | 2.2026     |  16.0 | 62.74
Output  | 0.00094506 | 0.0015891  | 0.0021127  |   0.9 |  0.05
Modify  | 0.068789   | 0.11142    | 0.17       |   9.3 |  3.71
Other   |            | 0.07858    |            |       |  2.62

Nlocal:        30.0625 ave          40 max          22 min
Histogram: 3 0 1 2 2 2 4 1 0 1
Nghost:        2360.69 ave        2375 max        2347 min
Histogram: 2 1 2 2 0 2 2 4 0 1
Neighs:              0 ave           0 max           0 min
Histogram: 16 0 0 0 0 0 0 0 0 0

Total # of neighbors = 0
Ave neighs/atom = 0
Ave special neighs/atom = 15.567568
Neighbor list builds = 38
Dangerous builds = 0
Generated 0 of 1 mixed pair_coeff terms from geometric mixing rule
Setting up Verlet run ...
  Unit style    : real
  Current step  : 1170000
  Time step     : 0.05
Per MPI rank memory allocation (min/avg/max) = 13.36 | 14.35 | 15 Mbytes
   Step          Temp          E_pair         E_mol          TotEng         Press     
   1170000   293.53175      399.08781      18534.82       19353.89       65.821575    
   1180000   303.46431      389.47154      18563.552      19387.217     -121.33123    
   1190000   291.03819      388.29045      18523.274      19327.979     -193.90437    
   1200000   295.71539      392.86222      18498.792      19314.761      130.43844    
   1210000   294.02659      391.69776      18513.126      19325.514     -80.595487    
   1220000   321.02608      387.21224      18503.962      19350.494     -165.46646    
Loop time of 15.5334 on 16 procs for 50000 steps with 481 atoms

Performance: 13.906 ns/day, 1.726 hours/ns, 3218.878 timesteps/s, 1.548 Matom-step/s
100.0% CPU use with 16 MPI tasks x 1 OpenMP threads

MPI task timing breakdown:
Section |  min time  |  avg time  |  max time  |%varavg| %total
---------------------------------------------------------------
Pair    | 0.47272    | 2.0279     | 3.4484     |  58.7 | 13.06
Bond    | 1.7486     | 2.5327     | 3.0311     |  20.3 | 16.30
Neigh   | 0.081019   | 0.083847   | 0.086119   |   0.5 |  0.54
Comm    | 7.9194     | 9.902      | 11.513     |  33.9 | 63.75
Output  | 0.006103   | 0.0088356  | 0.010986   |   1.6 |  0.06
Modify  | 0.36366    | 0.58457    | 0.9124     |  22.0 |  3.76
Other   |            | 0.3935     |            |       |  2.53

Nlocal:        30.0625 ave          35 max          25 min
Histogram: 1 3 0 2 2 0 1 2 3 2
Nghost:        2369.31 ave        2388 max        2349 min
Histogram: 1 2 1 1 1 4 2 0 3 1
Neighs:              0 ave           0 max           0 min
Histogram: 16 0 0 0 0 0 0 0 0 0

Total # of neighbors = 0
Ave neighs/atom = 0
Ave special neighs/atom = 15.567568
Neighbor list builds = 195
Dangerous builds = 0
Generated 0 of 1 mixed pair_coeff terms from geometric mixing rule
Setting up Verlet run ...
  Unit style    : real
  Current step  : 1220000
  Time step     : 0.05
Per MPI rank memory allocation (min/avg/max) = 13.36 | 14.35 | 15 Mbytes
   Step          Temp          E_pair         E_mol          TotEng         Press     
   1220000   321.02608      387.21224      18503.962      19350.494     -165.46646    
   1230000   320.88811      394.46424      18528.1        19381.687      28.204358    
[...]
Loop time of 15.3896 on 16 procs for 50000 steps with 481 atoms

Performance: 14.035 ns/day, 1.710 hours/ns, 3248.951 timesteps/s, 1.563 Matom-step/s
100.0% CPU use with 16 MPI tasks x 1 OpenMP threads

MPI task timing breakdown:
Section |  min time  |  avg time  |  max time  |%varavg| %total
---------------------------------------------------------------
Pair    | 0.37388    | 2.0148     | 3.2982     |  62.3 | 13.09
Bond    | 1.7179     | 2.5356     | 3.0367     |  21.0 | 16.48
Neigh   | 0.03203    | 0.03315    | 0.034002   |   0.3 |  0.22
Comm    | 7.9867     | 9.8076     | 11.818     |  35.7 | 63.73
Output  | 0.0060531  | 0.0087832  | 0.010939   |   1.6 |  0.06
Modify  | 0.37956    | 0.59339    | 0.93104    |  22.3 |  3.86
Other   |            | 0.3963     |            |       |  2.58

Nlocal:        30.0625 ave          40 max          20 min
Histogram: 1 2 1 2 1 3 1 1 2 2
Nghost:        2364.06 ave        2397 max        2335 min
Histogram: 1 3 1 2 1 3 0 4 0 1
Neighs:              0 ave           0 max           0 min
Histogram: 16 0 0 0 0 0 0 0 0 0

Total # of neighbors = 0
Ave neighs/atom = 0
Ave special neighs/atom = 15.567568
Neighbor list builds = 77
Dangerous builds = 0
Generated 0 of 1 mixed pair_coeff terms from geometric mixing rule
Setting up Verlet run ...
  Unit style    : real
  Current step  : 2780000
  Time step     : 0.05
Per MPI rank memory allocation (min/avg/max) = 13.36 | 14.39 | 15 Mbytes
   Step          Temp          E_pair         E_mol          TotEng         Press     
   2780000   275.10698      370.40705      18526.268      19290.295     -176.9514     
   2790000   297.61033      366.97374      18507.006      19299.798     -244.41635    
Loop time of 3.04271 on 16 procs for 10000 steps with 481 atoms

Performance: 14.198 ns/day, 1.690 hours/ns, 3286.544 timesteps/s, 1.581 Matom-step/s
100.0% CPU use with 16 MPI tasks x 1 OpenMP threads

MPI task timing breakdown:
Section |  min time  |  avg time  |  max time  |%varavg| %total
---------------------------------------------------------------
Pair    | 0.073439   | 0.40228    | 0.66223    |  27.5 | 13.22
Bond    | 0.30015    | 0.5068     | 0.63344    |  11.3 | 16.66
Neigh   | 0.0045749  | 0.0047     | 0.0048161  |   0.1 |  0.15
Comm    | 1.5619     | 1.9324     | 2.3366     |  16.1 | 63.51
Output  | 0.0009712  | 0.001565   | 0.002077   |   0.9 |  0.05
Modify  | 0.073535   | 0.11593    | 0.17914    |   9.6 |  3.81
Other   |            | 0.079      |            |       |  2.60

Nlocal:        30.0625 ave          38 max          19 min
Histogram: 1 1 0 1 3 3 2 0 3 2
Nghost:        2367.44 ave        2383 max        2347 min
Histogram: 1 0 1 4 1 1 2 0 5 1
Neighs:              0 ave           0 max           0 min
Histogram: 16 0 0 0 0 0 0 0 0 0

Total # of neighbors = 0
Ave neighs/atom = 0
Ave special neighs/atom = 15.567568
Neighbor list builds = 11
Dangerous builds = 0
Generated 0 of 1 mixed pair_coeff terms from geometric mixing rule
Setting up Verlet run ...
  Unit style    : real
  Current step  : 2790000
  Time step     : 0.05
Per MPI rank memory allocation (min/avg/max) = 13.36 | 14.39 | 15 Mbytes
   Step          Temp          E_pair         E_mol          TotEng         Press     
   2790000   297.61033      366.97374      18507.006      19299.798     -244.41635    
   2800000   301.16582      375.62506      18513.141      19319.671      111.4937     
   2810000   298.58423      367.79664      18495.635      19290.642     -93.159366    
   2820000   294.28029      372.21301      18500.137      19293.403     -31.965198    
   2830000   303.0495       367.21404      18513.017      19313.831     -171.86152    
   2840000   313.65977      374.79414      18509.945      19333.52      -10.819619    
Loop time of 15.3764 on 16 procs for 50000 steps with 481 atoms

Performance: 14.047 ns/day, 1.708 hours/ns, 3251.726 timesteps/s, 1.564 Matom-step/s
100.0% CPU use with 16 MPI tasks x 1 OpenMP threads

MPI task timing breakdown:
Section |  min time  |  avg time  |  max time  |%varavg| %total
---------------------------------------------------------------
Pair    | 0.38425    | 2.0104     | 3.2797     |  60.7 | 13.07
Bond    | 1.5967     | 2.5321     | 3.1534     |  21.8 | 16.47
Neigh   | 0.029136   | 0.030195   | 0.031034   |   0.3 |  0.20
Comm    | 7.9949     | 9.8025     | 11.747     |  34.3 | 63.75
Output  | 0.0060576  | 0.0087552  | 0.010924   |   1.6 |  0.06
Modify  | 0.37142    | 0.59843    | 0.93001    |  22.1 |  3.89
Other   |            | 0.3941     |            |       |  2.56

Nlocal:        30.0625 ave          36 max          22 min
Histogram: 1 0 2 2 1 3 0 3 0 4
Nghost:        2365.19 ave        2392 max        2342 min
Histogram: 2 2 1 1 3 2 1 1 2 1
Neighs:              0 ave           0 max           0 min
Histogram: 16 0 0 0 0 0 0 0 0 0

Total # of neighbors = 0
Ave neighs/atom = 0
Ave special neighs/atom = 15.567568
Neighbor list builds = 70
Dangerous builds = 0
Generated 0 of 1 mixed pair_coeff terms from geometric mixing rule
Setting up Verlet run ...
  Unit style    : real
  Current step  : 2840000
  Time step     : 0.05
Per MPI rank memory allocation (min/avg/max) = 13.36 | 14.39 | 15 Mbytes
   Step          Temp          E_pair         E_mol          TotEng         Press     
   2840000   313.65977      374.79414      18509.945      19333.52      -10.819619    
   2850000   301.94833      361.5388       18504.273      19297.837     -341.73663    
Loop time of 3.0945 on 16 procs for 10000 steps with 481 atoms

Performance: 13.960 ns/day, 1.719 hours/ns, 3231.544 timesteps/s, 1.554 Matom-step/s
99.9% CPU use with 16 MPI tasks x 1 OpenMP threads

MPI task timing breakdown:
Section |  min time  |  avg time  |  max time  |%varavg| %total
---------------------------------------------------------------
Pair    | 0.069405   | 0.40205    | 0.677      |  28.0 | 12.99
Bond    | 0.33345    | 0.50623    | 0.63685    |  10.7 | 16.36
Neigh   | 0.0062541  | 0.0064764  | 0.0066606  |   0.1 |  0.21
Comm    | 1.5967     | 1.9853     | 2.4197     |  16.2 | 64.16
Output  | 0.00093754 | 0.0015487  | 0.002081   |   0.9 |  0.05
Modify  | 0.071527   | 0.11432    | 0.1781     |   9.7 |  3.69
Other   |            | 0.07856    |            |       |  2.54

Nlocal:        30.0625 ave          37 max          24 min
Histogram: 1 3 1 2 0 3 4 0 0 2
Nghost:        2355.06 ave        2379 max        2338 min
Histogram: 2 2 2 1 4 1 2 0 1 1
Neighs:              0 ave           0 max           0 min
Histogram: 16 0 0 0 0 0 0 0 0 0

Total # of neighbors = 0
Ave neighs/atom = 0
Ave special neighs/atom = 15.567568
Neighbor list builds = 15
Dangerous builds = 0
Generated 0 of 1 mixed pair_coeff terms from geometric mixing rule
Setting up Verlet run ...
  Unit style    : real
  Current step  : 2850000
  Time step     : 0.05
Per MPI rank memory allocation (min/avg/max) = 13.36 | 14.39 | 15 Mbytes
   Step          Temp          E_pair         E_mol          TotEng         Press     
   2850000   301.94833      361.5388       18504.273      19297.837     -341.73663    
   2860000   305.90564      374.77313      18465.556      19278.015      99.771496    
   2870000   313.2217       380.64591      18481.192      19309.992      215.47275    
   2880000   304.38093      361.04945      18521.268      19317.822     -356.07754    
   2890000   306.17027      371.28846      18505.989      19315.343     -62.982776    
   2900000   277.90567      380.26455      18503.602      19281.491      44.778397    
Loop time of 14.4794 on 16 procs for 50000 steps with 481 atoms

Performance: 14.918 ns/day, 1.609 hours/ns, 3453.170 timesteps/s, 1.661 Matom-step/s
100.0% CPU use with 16 MPI tasks x 1 OpenMP threads

MPI task timing breakdown:
Section |  min time  |  avg time  |  max time  |%varavg| %total
---------------------------------------------------------------
Pair    | 0.39269    | 1.8372     | 3.0013     |  58.7 | 12.69
Bond    | 1.4862     | 2.3165     | 2.7942     |  20.4 | 16.00
Neigh   | 0.026788   | 0.027838   | 0.028684   |   0.3 |  0.19
Comm    | 7.7781     | 9.3404     | 10.933     |  32.2 | 64.51
Output  | 0.0056777  | 0.0083688  | 0.010453   |   1.6 |  0.06
Modify  | 0.34762    | 0.58129    | 0.91814    |  22.9 |  4.01
Other   |            | 0.3679     |            |       |  2.54

Nlocal:        30.0625 ave          38 max          21 min
Histogram: 2 0 2 0 3 0 5 0 3 1
Nghost:        2354.31 ave        2376 max        2326 min
Histogram: 1 0 2 2 1 3 2 1 2 2
Neighs:              0 ave           0 max           0 min
Histogram: 16 0 0 0 0 0 0 0 0 0

Total # of neighbors = 0
Ave neighs/atom = 0
Ave special neighs/atom = 15.567568
Neighbor list builds = 70
Dangerous builds = 0
Generated 0 of 1 mixed pair_coeff terms from geometric mixing rule
Setting up Verlet run ...
  Unit style    : real
  Current step  : 2900000
  Time step     : 0.05
Per MPI rank memory allocation (min/avg/max) = 13.36 | 14.39 | 15 Mbytes
   Step          Temp          E_pair         E_mol          TotEng         Press     
   2900000   277.90567      380.26455      18503.602      19281.491      44.778397    
   2910000   293.02857      372.94938      18497.033      19289.244     -37.343548    
Loop time of 2.66442 on 16 procs for 10000 steps with 481 atoms

Performance: 16.214 ns/day, 1.480 hours/ns, 3753.165 timesteps/s, 1.805 Matom-step/s
100.0% CPU use with 16 MPI tasks x 1 OpenMP threads

MPI task timing breakdown:
Section |  min time  |  avg time  |  max time  |%varavg| %total
---------------------------------------------------------------
Pair    | 0.070046   | 0.32742    | 0.55236    |  24.5 | 12.29
Bond    | 0.24864    | 0.41329    | 0.48371    |   9.3 | 15.51
Neigh   | 0.0026895  | 0.0027964  | 0.0028932  |   0.1 |  0.10
Comm    | 1.401      | 1.7416     | 2.0458     |  13.5 | 65.37
Output  | 0.00077493 | 0.0012863  | 0.0017191  |   0.8 |  0.05
Modify  | 0.060529   | 0.11148    | 0.17422    |  10.4 |  4.18
Other   |            | 0.06653    |            |       |  2.50

Nlocal:        30.0625 ave          36 max          25 min
Histogram: 2 1 1 2 4 2 2 0 0 2
Nghost:        2365.19 ave        2388 max        2348 min
Histogram: 2 2 2 1 1 2 4 1 0 1
Neighs:              0 ave           0 max           0 min
Histogram: 16 0 0 0 0 0 0 0 0 0

Total # of neighbors = 0
Ave neighs/atom = 0
Ave special neighs/atom = 15.567568
Neighbor list builds = 8
Dangerous builds = 0
Generated 0 of 1 mixed pair_coeff terms from geometric mixing rule
Setting up Verlet run ...
  Unit style    : real
  Current step  : 2910000
  Time step     : 0.05
Per MPI rank memory allocation (min/avg/max) = 13.36 | 14.39 | 15 Mbytes
   Step          Temp          E_pair         E_mol          TotEng         Press     
   2910000   293.02857      372.94938      18497.033      19289.244     -37.343548    
   2920000   298.58005      365.68519      18503.374      19296.264     -240.89363    
   2930000   298.63443      376.92136      18500.698      19304.902      35.144601    
   2940000   322.43621      377.12847      18498.552      19337.018      145.94443    
   2950000   310.6739       363.95983      18514.768      19323.237     -278.10925    
   2960000   289.5952       375.08604      18507.876      19297.312     -34.760428    
Loop time of 13.6115 on 16 procs for 50000 steps with 481 atoms

Performance: 15.869 ns/day, 1.512 hours/ns, 3673.372 timesteps/s, 1.767 Matom-step/s
100.0% CPU use with 16 MPI tasks x 1 OpenMP threads

MPI task timing breakdown:
Section |  min time  |  avg time  |  max time  |%varavg| %total
---------------------------------------------------------------
Pair    | 0.33885    | 1.6806     | 2.7445     |  55.4 | 12.35
Bond    | 1.4338     | 2.1198     | 2.5151     |  17.9 | 15.57
Neigh   | 0.017004   | 0.017618   | 0.018063   |   0.3 |  0.13
Comm    | 7.3072     | 8.8833     | 10.423     |  29.9 | 65.26
Output  | 0.0047044  | 0.007054   | 0.008863   |   1.5 |  0.05
Modify  | 0.32458    | 0.5605     | 0.89267    |  23.3 |  4.12
Other   |            | 0.3426     |            |       |  2.52

Nlocal:        30.0625 ave          40 max          19 min
Histogram: 1 1 3 1 0 3 4 0 0 3
Nghost:        2371.19 ave        2393 max        2357 min
Histogram: 3 3 0 1 3 3 1 1 0 1
Neighs:              0 ave           0 max           0 min
Histogram: 16 0 0 0 0 0 0 0 0 0

Total # of neighbors = 0
Ave neighs/atom = 0
Ave special neighs/atom = 15.567568
Neighbor list builds = 48
Dangerous builds = 0
Generated 0 of 1 mixed pair_coeff terms from geometric mixing rule
Setting up Verlet run ...
  Unit style    : real
  Current step  : 2960000
  Time step     : 0.05
Per MPI rank memory allocation (min/avg/max) = 13.36 | 14.39 | 15 Mbytes
   Step          Temp          E_pair         E_mol          TotEng         Press     
   2960000   289.5952       375.08604      18507.876      19297.312     -34.760428    
   2970000   297.06336      377.82602      18499.104      19301.964     -3.1998473    
Loop time of 3.06533 on 16 procs for 10000 steps with 481 atoms

Performance: 14.093 ns/day, 1.703 hours/ns, 3262.293 timesteps/s, 1.569 Matom-step/s
100.0% CPU use with 16 MPI tasks x 1 OpenMP threads

MPI task timing breakdown:
Section |  min time  |  avg time  |  max time  |%varavg| %total
---------------------------------------------------------------
Pair    | 0.081088   | 0.39999    | 0.65316    |  27.0 | 13.05
Bond    | 0.28872    | 0.50384    | 0.59303    |  10.2 | 16.44
Neigh   | 0.0046223  | 0.0047885  | 0.0049164  |   0.1 |  0.16
Comm    | 1.5955     | 1.9629     | 2.3585     |  15.3 | 64.03
Output  | 0.00094957 | 0.0015555  | 0.002045   |   0.9 |  0.05
Modify  | 0.068743   | 0.11418    | 0.17739    |   9.8 |  3.72
Other   |            | 0.0781     |            |       |  2.55

Nlocal:        30.0625 ave          38 max          18 min
Histogram: 1 0 0 0 4 6 0 0 0 5
Nghost:        2370.44 ave        2388 max        2354 min
Histogram: 1 2 1 4 1 1 1 2 2 1
Neighs:              0 ave           0 max           0 min
Histogram: 16 0 0 0 0 0 0 0 0 0

Total # of neighbors = 0
Ave neighs/atom = 0
Ave special neighs/atom = 15.567568
Neighbor list builds = 11
Dangerous builds = 0
Generated 0 of 1 mixed pair_coeff terms from geometric mixing rule
Setting up Verlet run ...
  Unit style    : real
  Current step  : 2970000
  Time step     : 0.05
Per MPI rank memory allocation (min/avg/max) = 13.36 | 14.39 | 15 Mbytes
   Step          Temp          E_pair         E_mol          TotEng         Press     
   2970000   297.06336      377.82602      18499.104      19301.964     -3.1998473    
   2980000   332.61824      369.03069      18485.156      19330.093     -94.354883    
   2990000   284.57213      374.00564      18515.059      19296.227      51.040147    
   3000000   298.77373      371.75258      18497.582      19296.816      89.259205    
   3010000   286.99161      375.15816      18528.7        19314.483     -36.554267    
   3020000   292.16035      377.7759       18531.342      19327.137     -23.694341    
Loop time of 15.4408 on 16 procs for 50000 steps with 481 atoms

Performance: 13.989 ns/day, 1.716 hours/ns, 3238.181 timesteps/s, 1.558 Matom-step/s
100.0% CPU use with 16 MPI tasks x 1 OpenMP threads

MPI task timing breakdown:
Section |  min time  |  avg time  |  max time  |%varavg| %total
---------------------------------------------------------------
Pair    | 0.36126    | 2.0016     | 3.3355     |  60.4 | 12.96
Bond    | 1.5414     | 2.5236     | 2.9352     |  22.3 | 16.34
Neigh   | 0.024667   | 0.025531   | 0.026242   |   0.3 |  0.17
Comm    | 7.9581     | 9.9059     | 11.977     |  34.5 | 64.15
Output  | 0.0060737  | 0.0087107  | 0.010849   |   1.6 |  0.06
Modify  | 0.35305    | 0.58376    | 0.90051    |  21.9 |  3.78
Other   |            | 0.3917     |            |       |  2.54

Nlocal:        30.0625 ave          36 max          21 min
Histogram: 1 0 0 1 5 0 2 2 3 2
Nghost:        2366.69 ave        2389 max        2350 min
Histogram: 2 3 2 0 3 0 4 1 0 1
Neighs:              0 ave           0 max           0 min
Histogram: 16 0 0 0 0 0 0 0 0 0

Total # of neighbors = 0
Ave neighs/atom = 0
Ave special neighs/atom = 15.567568
Neighbor list builds = 58
Dangerous builds = 0
Generated 0 of 1 mixed pair_coeff terms from geometric mixing rule
Setting up Verlet run ...
  Unit style    : real
  Current step  : 3020000
  Time step     : 0.05
Per MPI rank memory allocation (min/avg/max) = 13.36 | 14.39 | 15 Mbytes
   Step          Temp          E_pair         E_mol          TotEng         Press     
   3020000   292.16035      377.7759       18531.342      19327.137     -23.694341    
   3030000   311.11043      368.29103      18501.455      19314.879     -106.09742    
Loop time of 2.99614 on 16 procs for 10000 steps with 481 atoms

Performance: 14.419 ns/day, 1.665 hours/ns, 3337.624 timesteps/s, 1.605 Matom-step/s
100.0% CPU use with 16 MPI tasks x 1 OpenMP threads

MPI task timing breakdown:
Section |  min time  |  avg time  |  max time  |%varavg| %total
---------------------------------------------------------------
Pair    | 0.068884   | 0.39972    | 0.6539     |  26.6 | 13.34
Bond    | 0.31173    | 0.50371    | 0.62184    |  10.2 | 16.81
Neigh   | 0.003695   | 0.0038174  | 0.0039262  |   0.1 |  0.13
Comm    | 1.5367     | 1.8925     | 2.3224     |  15.4 | 63.17
Output  | 0.00090924 | 0.0014912  | 0.0019734  |   0.9 |  0.05
Modify  | 0.067954   | 0.11693    | 0.18039    |   9.9 |  3.90
Other   |            | 0.07793    |            |       |  2.60

Nlocal:        30.0625 ave          37 max          23 min
Histogram: 1 0 4 1 3 2 0 0 3 2
Nghost:        2373.81 ave        2394 max        2355 min
Histogram: 2 0 2 2 3 1 3 1 1 1
Neighs:              0 ave           0 max           0 min
Histogram: 16 0 0 0 0 0 0 0 0 0

Total # of neighbors = 0
Ave neighs/atom = 0
Ave special neighs/atom = 15.567568
Neighbor list builds = 9
Dangerous builds = 0
Generated 0 of 1 mixed pair_coeff terms from geometric mixing rule
Setting up Verlet run ...
  Unit style    : real
  Current step  : 3030000
  Time step     : 0.05
Per MPI rank memory allocation (min/avg/max) = 13.36 | 14.39 | 15 Mbytes
   Step          Temp          E_pair         E_mol          TotEng         Press     
   3030000   311.11043      368.29103      18501.455      19314.879     -106.09742    
   3040000   304.39805      364.42628      18489.725      19289.68      -289.01264    
   3050000   312.1975       362.76571      18497.115      19306.57      -222.34918    
   3060000   320.71854      383.14033      18501.663      19343.684      259.20267    
   3070000   297.61204      372.49908      18504.091      19302.41      -80.616262    
   3080000   294.27363      369.82409      18514.038      19304.905     -124.9426     
Loop time of 15.5183 on 16 procs for 50000 steps with 481 atoms

Performance: 13.919 ns/day, 1.724 hours/ns, 3221.994 timesteps/s, 1.550 Matom-step/s
100.0% CPU use with 16 MPI tasks x 1 OpenMP threads

MPI task timing breakdown:
Section |  min time  |  avg time  |  max time  |%varavg| %total
---------------------------------------------------------------
Pair    | 0.39749    | 2.0051     | 3.3269     |  60.2 | 12.92
Bond    | 1.6234     | 2.5274     | 2.9687     |  19.9 | 16.29
Neigh   | 0.022646   | 0.023407   | 0.024021   |   0.3 |  0.15
Comm    | 8.0631     | 9.9576     | 11.849     |  33.2 | 64.17
Output  | 0.0061008  | 0.0090175  | 0.011123   |   1.7 |  0.06
Modify  | 0.35944    | 0.59883    | 0.92816    |  22.4 |  3.86
Other   |            | 0.3971     |            |       |  2.56

Nlocal:        30.0625 ave          39 max          20 min
Histogram: 1 2 2 2 0 1 2 3 2 1
Nghost:        2374.94 ave        2396 max        2352 min
Histogram: 1 1 2 0 2 3 3 2 1 1
Neighs:              0 ave           0 max           0 min
Histogram: 16 0 0 0 0 0 0 0 0 0

Total # of neighbors = 0
Ave neighs/atom = 0
Ave special neighs/atom = 15.567568
Neighbor list builds = 54
Dangerous builds = 0
Total wall time: 0:15:37
