LAMMPS (27 Jun 2024)
OMP_NUM_THREADS environment is not set. Defaulting to 1 thread. (src/comm.cpp:98)
  using 1 OpenMP thread(s) per MPI task
Reading data file ...
  orthogonal box = (-30 -30 -30) to (30 30 30)
  3 by 4 by 4 MPI processor grid
  reading atoms ...
  480 atoms
  reading velocities ...
  480 velocities
  scanning bonds ...
  2 = max bonds/atom
  scanning angles ...
  3 = max angles/atom
  scanning dihedrals ...
  8 = max dihedrals/atom
  scanning impropers ...
  2 = max impropers/atom
  orthogonal box = (-30 -30 -30) to (30 30 30)
  3 by 4 by 4 MPI processor grid
  reading bonds ...
  676 bonds
  reading angles ...
  1268 angles
  reading dihedrals ...
  2394 dihedrals
  reading impropers ...
  396 impropers
Finding 1-2 1-3 1-4 neighbors ...
  special bond factors lj:    0        0        0       
  special bond factors coul:  0        0        0       
     3 = max # of 1-2 neighbors
     6 = max # of 1-3 neighbors
    18 = max # of 1-4 neighbors
    18 = max # of special neighbors
  special bonds CPU = 0.002 seconds
  read_data CPU = 0.049 seconds
Finding 1-2 1-3 1-4 neighbors ...
  special bond factors lj:    0        0        0.5     
  special bond factors coul:  0        0        0       
     3 = max # of 1-2 neighbors
     6 = max # of 1-3 neighbors
    18 = max # of 1-4 neighbors
    18 = max # of special neighbors
  special bonds CPU = 0.001 seconds
Created 1 atoms
  using lattice units in orthogonal box = (-30 -30 -30) to (30 30 30)
  create_atoms CPU = 0.000 seconds
480 atoms in group C
1 atoms in group H2

CITE-CITE-CITE-CITE-CITE-CITE-CITE-CITE-CITE-CITE-CITE-CITE-CITE

Your simulation uses code contributions which should be cited:
- Type Label Framework: https://doi.org/10.1021/acs.jpcb.3c08419
The log file lists these citations in BibTeX format.

CITE-CITE-CITE-CITE-CITE-CITE-CITE-CITE-CITE-CITE-CITE-CITE-CITE

Generated 0 of 1 mixed pair_coeff terms from geometric mixing rule
Neighbor list info ...
  update: every = 1 steps, delay = 3 steps, check = yes
  max neighbors/atom: 6000, page size: 100000
  master list distance cutoff = 31
  ghost atom cutoff = 31
  binsize = 15.5, bins = 4 4 4
  4 neighbor lists, perpetual/occasional/extra = 4 0 0
  (1) pair lj/cut, perpetual, skip trim from (4)
      attributes: half, newton on, cut 15
      pair build: skip/trim
      stencil: none
      bin: none
  (2) pair sg, perpetual, skip trim from (4)
      attributes: half, newton on, cut 16
      pair build: skip/trim
      stencil: none
      bin: none
  (3) pair cb, perpetual, skip from (4)
      attributes: half, newton on
      pair build: skip
      stencil: none
      bin: none
  (4) neighbor class addition, perpetual
      attributes: half, newton on
      pair build: half/bin/newton
      stencil: half/bin/3d
      bin: standard
Setting up Verlet run ...
  Unit style    : real
  Current step  : 0
  Time step     : 0.05
Per MPI rank memory allocation (min/avg/max) = 13.28 | 13.37 | 13.93 Mbytes
   Step          Temp          E_pair         E_mol          TotEng         Press          Volume    
         0   300            308.43814      19603.922      20341.597     -432.48369      216000       
     10000   308.72719      373.58236      18568.419      19383.724     -313.9945       172136.64    
     20000   322.02648      371.05675      18538.378      19370.187     -418.66256      126544.33    
Loop time of 7.47245 on 48 procs for 20000 steps with 481 atoms

Performance: 11.562 ns/day, 2.076 hours/ns, 2676.499 timesteps/s, 1.287 Matom-step/s
99.8% CPU use with 48 MPI tasks x 1 OpenMP threads

MPI task timing breakdown:
Section |  min time  |  avg time  |  max time  |%varavg| %total
---------------------------------------------------------------
Pair    | 0.13281    | 0.45158    | 2.3461     |  75.3 |  6.04
Bond    | 0.0041643  | 0.41882    | 2.2429     | 111.6 |  5.60
Neigh   | 0.019702   | 0.021908   | 0.024769   |   0.9 |  0.29
Comm    | 1.9521     | 4.253      | 6.1574     |  68.4 | 56.92
Output  | 0.0032998  | 0.0085535  | 0.014633   |   4.2 |  0.11
Modify  | 0.61145    | 2.0537     | 4.5426     | 105.5 | 27.48
Other   |            | 0.265      |            |       |  3.55

Nlocal:        10.0208 ave          42 max           0 min
Histogram: 21 4 10 5 0 1 0 3 3 1
Nghost:        1907.85 ave        2370 max        1332 min
Histogram: 8 0 0 0 24 0 0 0 0 16
Neighs:              0 ave           0 max           0 min
Histogram: 48 0 0 0 0 0 0 0 0 0

Total # of neighbors = 0
Ave neighs/atom = 0
Ave special neighs/atom = 15.567568
Neighbor list builds = 55
Dangerous builds = 0
Generated 0 of 1 mixed pair_coeff terms from geometric mixing rule
Setting up Verlet run ...
  Unit style    : real
  Current step  : 20000
  Time step     : 0.05
Per MPI rank memory allocation (min/avg/max) = 13.32 | 13.74 | 14.98 Mbytes
   Step          Temp          E_pair         E_mol          TotEng         Press     
     20000   322.02648      371.05675      18538.378      19370.187     -418.66256    
     30000   267.26939      339.81878      18597.618      19319.843     -1137.6956    
Loop time of 3.09478 on 48 procs for 10000 steps with 481 atoms

Performance: 13.959 ns/day, 1.719 hours/ns, 3231.243 timesteps/s, 1.554 Matom-step/s
100.0% CPU use with 48 MPI tasks x 1 OpenMP threads

MPI task timing breakdown:
Section |  min time  |  avg time  |  max time  |%varavg| %total
---------------------------------------------------------------
Pair    | 0.0035     | 0.14662    | 0.7942     |  55.0 |  4.74
Bond    | 0.0010429  | 0.18456    | 0.75695    |  56.0 |  5.96
Neigh   | 0.042589   | 0.046598   | 0.051342   |   1.0 |  1.51
Comm    | 1.2554     | 2.2274     | 2.7479     |  34.8 | 71.97
Output  | 0.0011293  | 0.0029216  | 0.0049727  |   2.3 |  0.09
Modify  | 0.10445    | 0.37554    | 1.5557     |  77.0 | 12.13
Other   |            | 0.1111     |            |       |  3.59

Nlocal:        10.0208 ave          39 max           0 min
Histogram: 22 3 7 6 2 0 2 0 2 4
Nghost:        1914.38 ave        2388 max        1334 min
Histogram: 8 0 0 0 24 0 0 0 0 16
Neighs:              0 ave           0 max           0 min
Histogram: 48 0 0 0 0 0 0 0 0 0

Total # of neighbors = 0
Ave neighs/atom = 0
Ave special neighs/atom = 15.567568
Neighbor list builds = 130
Dangerous builds = 0
Generated 0 of 1 mixed pair_coeff terms from geometric mixing rule
Setting up Verlet run ...
  Unit style    : real
  Current step  : 30000
  Time step     : 0.05
Per MPI rank memory allocation (min/avg/max) = 13.32 | 13.79 | 14.98 Mbytes
   Step          Temp          E_pair         E_mol          TotEng         Press     
     30000   267.26939      339.81878      18597.618      19319.843     -1137.6956    
     40000   275.18377      401.87531      18518.483      19314.088      512.0003     
     50000   303.85775      385.91926      18568.075      19388.75       95.706949    
     60000   315.64796      369.37974      18577.186      19398.192     -170.29503    
     70000   300.25178      364.96608      18595.968      19390.531     -355.98162    
     80000   296.22719      392.73191      18549.591      19366.162      340.33878    
Loop time of 15.0438 on 48 procs for 50000 steps with 481 atoms

Performance: 14.358 ns/day, 1.672 hours/ns, 3323.622 timesteps/s, 1.599 Matom-step/s
100.0% CPU use with 48 MPI tasks x 1 OpenMP threads

MPI task timing breakdown:
Section |  min time  |  avg time  |  max time  |%varavg| %total
---------------------------------------------------------------
Pair    | 0.017173   | 0.72845    | 3.9756     | 121.7 |  4.84
Bond    | 0.0051995  | 0.92155    | 3.7298     | 125.4 |  6.13
Neigh   | 0.059593   | 0.065043   | 0.071606   |   1.2 |  0.43
Comm    | 5.9777     | 10.915     | 13.477     |  77.6 | 72.55
Output  | 0.0057227  | 0.012949   | 0.020778   |   4.3 |  0.09
Modify  | 0.50856    | 1.8432     | 7.7786     | 170.6 | 12.25
Other   |            | 0.558      |            |       |  3.71

Nlocal:        10.0208 ave          42 max           0 min
Histogram: 21 5 8 6 0 1 2 1 1 3
Nghost:        1930.23 ave        2407 max        1331 min
Histogram: 8 0 0 0 24 0 0 0 0 16
Neighs:              0 ave           0 max           0 min
Histogram: 48 0 0 0 0 0 0 0 0 0

Total # of neighbors = 0
Ave neighs/atom = 0
Ave special neighs/atom = 15.567568
Neighbor list builds = 177
Dangerous builds = 0
Generated 0 of 1 mixed pair_coeff terms from geometric mixing rule
Setting up Verlet run ...
  Unit style    : real
  Current step  : 80000
  Time step     : 0.05
Per MPI rank memory allocation (min/avg/max) = 13.32 | 13.82 | 14.98 Mbytes
   Step          Temp          E_pair         E_mol          TotEng         Press     
     80000   296.22719      392.73191      18549.591      19366.162      340.33878    
     90000   307.46238      373.06983      18545.97       19358.954     -143.50398    
Loop time of 3.1205 on 48 procs for 10000 steps with 481 atoms

Performance: 13.844 ns/day, 1.734 hours/ns, 3204.614 timesteps/s, 1.541 Matom-step/s
100.0% CPU use with 48 MPI tasks x 1 OpenMP threads

MPI task timing breakdown:
Section |  min time  |  avg time  |  max time  |%varavg| %total
---------------------------------------------------------------
Pair    | 0.0034873  | 0.1461     | 0.76573    |  54.0 |  4.68
Bond    | 0.0010364  | 0.18442    | 0.75955    |  56.2 |  5.91
Neigh   | 0.0038497  | 0.004204   | 0.004582   |   0.3 |  0.13
Comm    | 1.335      | 2.2877     | 2.861      |  36.0 | 73.31
Output  | 0.0011414  | 0.0023234  | 0.003609   |   1.6 |  0.07
Modify  | 0.09895    | 0.38393    | 1.6558     |  83.0 | 12.30
Other   |            | 0.1118     |            |       |  3.58

Nlocal:        10.0208 ave          40 max           0 min
Histogram: 20 4 10 4 2 0 2 1 2 3
Nghost:        1934.98 ave        2420 max        1334 min
Histogram: 8 0 0 0 24 0 0 0 0 16
Neighs:              0 ave           0 max           0 min
Histogram: 48 0 0 0 0 0 0 0 0 0

Total # of neighbors = 0
Ave neighs/atom = 0
Ave special neighs/atom = 15.567568
Neighbor list builds = 11
Dangerous builds = 0
Generated 0 of 1 mixed pair_coeff terms from geometric mixing rule
Setting up Verlet run ...
  Unit style    : real
  Current step  : 90000
  Time step     : 0.05
Per MPI rank memory allocation (min/avg/max) = 13.32 | 13.82 | 14.98 Mbytes
   Step          Temp          E_pair         E_mol          TotEng         Press     
     90000   307.46238      373.06983      18545.97       19358.954     -143.50398    
    100000   285.45664      359.3709       18556.715      19324.514     -390.30854    
    110000   280.70876      379.87077      18530.524      19312.03       105.3282     
    120000   295.05133      385.07611      18528.545      19335.778      297.80255    
    130000   310.78991      366.44599      18547.055      19358.176     -224.52175    
    140000   290.45754      362.47785      18567.097      19345.158     -431.90629    
Loop time of 15.2545 on 48 procs for 50000 steps with 481 atoms

Performance: 14.160 ns/day, 1.695 hours/ns, 3277.716 timesteps/s, 1.577 Matom-step/s
100.0% CPU use with 48 MPI tasks x 1 OpenMP threads

MPI task timing breakdown:
Section |  min time  |  avg time  |  max time  |%varavg| %total
---------------------------------------------------------------
Pair    | 0.017045   | 0.72921    | 4.0307     | 121.5 |  4.78
Bond    | 0.005248   | 0.92138    | 3.7404     | 125.2 |  6.04
Neigh   | 0.025911   | 0.028274   | 0.031041   |   0.7 |  0.19
Comm    | 6.1454     | 11.138     | 13.915     |  77.3 | 73.01
Output  | 0.0056269  | 0.011059   | 0.016771   |   3.4 |  0.07
Modify  | 0.50434    | 1.8711     | 7.8018     | 172.9 | 12.27
Other   |            | 0.5558     |            |       |  3.64

Nlocal:        10.0208 ave          44 max           0 min
Histogram: 21 6 10 3 1 1 1 1 2 2
Nghost:        1922.35 ave        2397 max        1330 min
Histogram: 8 0 0 0 24 0 0 0 0 16
Neighs:              0 ave           0 max           0 min
Histogram: 48 0 0 0 0 0 0 0 0 0

Total # of neighbors = 0
Ave neighs/atom = 0
Ave special neighs/atom = 15.567568
Neighbor list builds = 75
Dangerous builds = 0
Generated 0 of 1 mixed pair_coeff terms from geometric mixing rule
Setting up Verlet run ...
  Unit style    : real
  Current step  : 140000
  Time step     : 0.05
Per MPI rank memory allocation (min/avg/max) = 13.32 | 13.83 | 14.98 Mbytes
   Step          Temp          E_pair         E_mol          TotEng         Press     
    140000   290.45754      362.47785      18567.097      19345.158     -431.90629    
    150000   274.76916      379.07165      18525.978      19298.186      142.71317    
Loop time of 3.0935 on 48 procs for 10000 steps with 481 atoms

Performance: 13.965 ns/day, 1.719 hours/ns, 3232.586 timesteps/s, 1.555 Matom-step/s
100.0% CPU use with 48 MPI tasks x 1 OpenMP threads

MPI task timing breakdown:
Section |  min time  |  avg time  |  max time  |%varavg| %total
---------------------------------------------------------------
Pair    | 0.0033059  | 0.14553    | 0.77566    |  54.3 |  4.70
Bond    | 0.0010395  | 0.18424    | 0.75604    |  56.1 |  5.96
Neigh   | 0.0052256  | 0.0056524  | 0.0061419  |   0.3 |  0.18
Comm    | 1.3176     | 2.2645     | 2.8366     |  36.0 | 73.20
Output  | 0.0011058  | 0.0021249  | 0.0032091  |   1.4 |  0.07
Modify  | 0.098863   | 0.38069    | 1.6469     |  82.1 | 12.31
Other   |            | 0.1108     |            |       |  3.58

Nlocal:        10.0208 ave          39 max           0 min
Histogram: 21 5 7 5 2 0 0 4 2 2
Nghost:        1935.98 ave        2417 max        1335 min
Histogram: 8 0 0 0 24 0 0 0 0 16
Neighs:              0 ave           0 max           0 min
Histogram: 48 0 0 0 0 0 0 0 0 0

Total # of neighbors = 0
Ave neighs/atom = 0
Ave special neighs/atom = 15.567568
Neighbor list builds = 15
Dangerous builds = 0
Generated 0 of 1 mixed pair_coeff terms from geometric mixing rule
Setting up Verlet run ...
  Unit style    : real
  Current step  : 150000
  Time step     : 0.05
Per MPI rank memory allocation (min/avg/max) = 13.32 | 13.83 | 14.98 Mbytes
   Step          Temp          E_pair         E_mol          TotEng         Press     
    150000   274.76916      379.07165      18525.978      19298.186      142.71317    
    160000   311.42184      364.41762      18565.121      19375.118     -257.31765    
    170000   301.63093      353.44578      18569.737      19354.753     -621.17013    
    180000   293.26522      380.17859      18520.777      19320.556      202.44927    
    190000   281.43185      378.36301      18516.892      19297.924      41.808245    
    200000   308.43636      365.48498      18509.543      19316.335     -348.65783    
Loop time of 15.0874 on 48 procs for 50000 steps with 481 atoms

Performance: 14.317 ns/day, 1.676 hours/ns, 3314.023 timesteps/s, 1.594 Matom-step/s
100.0% CPU use with 48 MPI tasks x 1 OpenMP threads

MPI task timing breakdown:
Section |  min time  |  avg time  |  max time  |%varavg| %total
---------------------------------------------------------------
Pair    | 0.01685    | 0.72965    | 3.7974     | 121.2 |  4.84
Bond    | 0.005211   | 0.9214     | 3.9384     | 125.7 |  6.11
Neigh   | 0.028278   | 0.03068    | 0.033561   |   0.8 |  0.20
Comm    | 6.2235     | 10.985     | 13.709     |  76.7 | 72.81
Output  | 0.0055859  | 0.01062    | 0.016057   |   3.2 |  0.07
Modify  | 0.50352    | 1.8552     | 7.59       | 169.7 | 12.30
Other   |            | 0.5553     |            |       |  3.68

Nlocal:        10.0208 ave          38 max           0 min
Histogram: 20 5 9 5 1 0 1 1 2 4
Nghost:        1931.23 ave        2414 max        1335 min
Histogram: 8 0 0 0 24 0 0 0 0 16
Neighs:              0 ave           0 max           0 min
Histogram: 48 0 0 0 0 0 0 0 0 0

Total # of neighbors = 0
Ave neighs/atom = 0
Ave special neighs/atom = 15.567568
Neighbor list builds = 82
Dangerous builds = 0
Generated 0 of 1 mixed pair_coeff terms from geometric mixing rule
Setting up Verlet run ...
  Unit style    : real
  Current step  : 200000
  Time step     : 0.05
Per MPI rank memory allocation (min/avg/max) = 13.32 | 13.84 | 14.98 Mbytes
   Step          Temp          E_pair         E_mol          TotEng         Press     
    200000   308.43636      365.48498      18509.543      19316.335     -348.65783    
    210000   290.15296      371.82213      18556.221      19343.191     -170.01639    
Loop time of 3.08335 on 48 procs for 10000 steps with 481 atoms

Performance: 14.011 ns/day, 1.713 hours/ns, 3243.228 timesteps/s, 1.560 Matom-step/s
100.0% CPU use with 48 MPI tasks x 1 OpenMP threads

MPI task timing breakdown:
Section |  min time  |  avg time  |  max time  |%varavg| %total
---------------------------------------------------------------
Pair    | 0.003334   | 0.14598    | 0.76229    |  54.1 |  4.73
Bond    | 0.0010421  | 0.18429    | 0.83049    |  56.4 |  5.98
Neigh   | 0.0060179  | 0.006539   | 0.0071487  |   0.4 |  0.21
Comm    | 1.2346     | 2.2495     | 2.7717     |  35.2 | 72.96
Output  | 0.001123   | 0.0021267  | 0.0033072  |   1.4 |  0.07
Modify  | 0.10015    | 0.38329    | 1.612      |  79.4 | 12.43
Other   |            | 0.1116     |            |       |  3.62

Nlocal:        10.0208 ave          43 max           0 min
Histogram: 21 8 6 5 0 0 4 1 1 2
Nghost:         1928.6 ave        2416 max        1330 min
Histogram: 8 0 0 0 24 0 0 0 0 16
Neighs:              0 ave           0 max           0 min
Histogram: 48 0 0 0 0 0 0 0 0 0

Total # of neighbors = 0
Ave neighs/atom = 0
Ave special neighs/atom = 15.567568
Neighbor list builds = 17
Dangerous builds = 0
Generated 0 of 1 mixed pair_coeff terms from geometric mixing rule
Setting up Verlet run ...
  Unit style    : real
  Current step  : 210000
  Time step     : 0.05
Per MPI rank memory allocation (min/avg/max) = 13.32 | 13.84 | 14.98 Mbytes
   Step          Temp          E_pair         E_mol          TotEng         Press     
    210000   290.15296      371.82213      18556.221      19343.191     -170.01639    
    220000   313.47739      372.93496      18557.795      19379.25      -108.00848    
    230000   312.8241       380.80999      18507.01       19335.405      77.85613     
    240000   293.43519      383.17006      18536.8        19339.814      87.83989     
    250000   308.19332      369.62474      18545.853      19356.437     -127.39326    
    260000   302.20277      381.96632      18551.248      19365.603      97.576728    
Loop time of 15.415 on 48 procs for 50000 steps with 481 atoms

Performance: 14.012 ns/day, 1.713 hours/ns, 3243.603 timesteps/s, 1.560 Matom-step/s
100.0% CPU use with 48 MPI tasks x 1 OpenMP threads

MPI task timing breakdown:
Section |  min time  |  avg time  |  max time  |%varavg| %total
---------------------------------------------------------------
Pair    | 0.016967   | 0.72858    | 3.9638     | 122.1 |  4.73
Bond    | 0.0052019  | 0.92127    | 3.9933     | 125.8 |  5.98
Neigh   | 0.031535   | 0.034142   | 0.037362   |   0.8 |  0.22
Comm    | 6.5637     | 11.247     | 13.829     |  78.5 | 72.96
Output  | 0.0057833  | 0.010757   | 0.015923   |   3.1 |  0.07
Modify  | 0.49966    | 1.9153     | 8.1012     | 176.4 | 12.42
Other   |            | 0.5579     |            |       |  3.62

Nlocal:        10.0208 ave          41 max           0 min
Histogram: 20 7 8 4 1 0 1 3 3 1
Nghost:        1932.98 ave        2413 max        1332 min
Histogram: 8 0 0 0 24 0 0 0 0 16
Neighs:              0 ave           0 max           0 min
Histogram: 48 0 0 0 0 0 0 0 0 0

Total # of neighbors = 0
Ave neighs/atom = 0
Ave special neighs/atom = 15.567568
Neighbor list builds = 89
Dangerous builds = 0
Generated 0 of 1 mixed pair_coeff terms from geometric mixing rule
Setting up Verlet run ...
  Unit style    : real
  Current step  : 260000
  Time step     : 0.05
Per MPI rank memory allocation (min/avg/max) = 13.32 | 13.84 | 14.98 Mbytes
   Step          Temp          E_pair         E_mol          TotEng         Press     
    260000   302.20277      381.96632      18551.248      19365.603      97.576728    
    270000   308.41296      375.62282      18564.499      19381.396     -54.950402    
Loop time of 2.93966 on 48 procs for 10000 steps with 481 atoms

Performance: 14.696 ns/day, 1.633 hours/ns, 3401.754 timesteps/s, 1.636 Matom-step/s
100.0% CPU use with 48 MPI tasks x 1 OpenMP threads

MPI task timing breakdown:
Section |  min time  |  avg time  |  max time  |%varavg| %total
---------------------------------------------------------------
Pair    | 0.0033503  | 0.14586    | 0.74899    |  54.3 |  4.96
Bond    | 0.0010398  | 0.18394    | 0.77512    |  56.2 |  6.26
Neigh   | 0.004185   | 0.0046261  | 0.0051146  |   0.4 |  0.16
Comm    | 1.2033     | 2.1377     | 2.6688     |  34.2 | 72.72
Output  | 0.0010653  | 0.0020523  | 0.0030897  |   1.4 |  0.07
Modify  | 0.09827    | 0.35416    | 1.4796     |  74.2 | 12.05
Other   |            | 0.1113     |            |       |  3.79

Nlocal:        10.0208 ave          37 max           0 min
Histogram: 18 7 7 5 3 0 0 1 3 4
Nghost:         1927.6 ave        2406 max        1337 min
Histogram: 8 0 0 0 24 0 0 0 0 16
Neighs:              0 ave           0 max           0 min
Histogram: 48 0 0 0 0 0 0 0 0 0

Total # of neighbors = 0
Ave neighs/atom = 0
Ave special neighs/atom = 15.567568
Neighbor list builds = 13
Dangerous builds = 0
Generated 0 of 1 mixed pair_coeff terms from geometric mixing rule
Setting up Verlet run ...
  Unit style    : real
  Current step  : 270000
  Time step     : 0.05
Per MPI rank memory allocation (min/avg/max) = 13.32 | 13.84 | 14.98 Mbytes
   Step          Temp          E_pair         E_mol          TotEng         Press     
    270000   308.41296      375.62282      18564.499      19381.396     -54.950402    
    280000   298.62793      372.93261      18554.362      19354.568     -108.3818     
    290000   299.14348      377.06214      18532.978      19338.051     -58.472429    
    300000   307.48767      366.68796      18515.547      19322.185     -142.20099    
    310000   305.99404      372.31891      18530.5        19340.632     -134.87972    
    320000   312.18987      376.54181      18530.939      19354.159     -97.834678    
Loop time of 15.734 on 48 procs for 50000 steps with 481 atoms

Performance: 13.728 ns/day, 1.748 hours/ns, 3177.836 timesteps/s, 1.529 Matom-step/s
100.0% CPU use with 48 MPI tasks x 1 OpenMP threads

MPI task timing breakdown:
Section |  min time  |  avg time  |  max time  |%varavg| %total
---------------------------------------------------------------
Pair    | 0.016989   | 0.7291     | 3.9197     | 121.7 |  4.63
Bond    | 0.0051828  | 0.92055    | 4.1307     | 125.8 |  5.85
Neigh   | 0.028417   | 0.030783   | 0.033658   |   0.7 |  0.20
Comm    | 6.4916     | 11.53      | 14.16      |  80.3 | 73.28
Output  | 0.0057366  | 0.010699   | 0.015843   |   3.1 |  0.07
Modify  | 0.51626    | 1.9572     | 8.3741     | 183.9 | 12.44
Other   |            | 0.5561     |            |       |  3.53

Nlocal:        10.0208 ave          38 max           0 min
Histogram: 20 6 8 4 2 0 0 1 5 2
Nghost:        1928.85 ave        2409 max        1335 min
Histogram: 8 0 0 0 24 0 0 0 0 16
Neighs:              0 ave           0 max           0 min
Histogram: 48 0 0 0 0 0 0 0 0 0

Total # of neighbors = 0
Ave neighs/atom = 0
Ave special neighs/atom = 15.567568
Neighbor list builds = 77
Dangerous builds = 0
Generated 0 of 1 mixed pair_coeff terms from geometric mixing rule
Setting up Verlet run ...
  Unit style    : real
  Current step  : 320000
  Time step     : 0.05
Per MPI rank memory allocation (min/avg/max) = 13.32 | 13.84 | 14.98 Mbytes
   Step          Temp          E_pair         E_mol          TotEng         Press     
    320000   312.18987      376.54181      18530.939      19354.159     -97.834678    
    330000   301.96178      378.4819       18531.279      19341.804     -156.87996    
Loop time of 3.10086 on 48 procs for 10000 steps with 481 atoms

Performance: 13.932 ns/day, 1.723 hours/ns, 3224.916 timesteps/s, 1.551 Matom-step/s
100.0% CPU use with 48 MPI tasks x 1 OpenMP threads

MPI task timing breakdown:
Section |  min time  |  avg time  |  max time  |%varavg| %total
---------------------------------------------------------------
Pair    | 0.0034307  | 0.14573    | 0.80679    |  54.9 |  4.70
Bond    | 0.0010323  | 0.18341    | 0.79717    |  56.2 |  5.91
Neigh   | 0.0064688  | 0.0070505  | 0.0077585  |   0.4 |  0.23
Comm    | 1.2993     | 2.2763     | 2.8215     |  35.2 | 73.41
Output  | 0.0012381  | 0.0022287  | 0.0032743  |   1.4 |  0.07
Modify  | 0.10531    | 0.37632    | 1.5968     |  79.9 | 12.14
Other   |            | 0.1098     |            |       |  3.54

Nlocal:        10.0208 ave          38 max           0 min
Histogram: 20 4 11 3 1 1 0 2 3 3
Nghost:         1929.6 ave        2405 max        1335 min
Histogram: 8 0 0 0 24 0 0 0 0 16
Neighs:              0 ave           0 max           0 min
Histogram: 48 0 0 0 0 0 0 0 0 0

Total # of neighbors = 0
Ave neighs/atom = 0
Ave special neighs/atom = 15.567568
Neighbor list builds = 18
Dangerous builds = 0
Generated 0 of 1 mixed pair_coeff terms from geometric mixing rule
Setting up Verlet run ...
  Unit style    : real
  Current step  : 330000
  Time step     : 0.05
Per MPI rank memory allocation (min/avg/max) = 13.32 | 13.84 | 14.98 Mbytes
   Step          Temp          E_pair         E_mol          TotEng         Press     
    330000   301.96178      378.4819       18531.279      19341.804     -156.87996    
    340000   279.26425      372.54395      18541.387      19313.499     -251.31921    
    350000   291.85341      380.51718      18542.491      19340.589     -127.1601     
    360000   329.6645       387.32306      18519.012      19378.016      161.99693    
    370000   311.56121      370.75367      18572.671      19389.203     -372.66405    
    380000   308.44775      375.74747      18529.509      19346.58      -22.694054    
Loop time of 15.1195 on 48 procs for 50000 steps with 481 atoms

Performance: 14.286 ns/day, 1.680 hours/ns, 3306.980 timesteps/s, 1.591 Matom-step/s
100.0% CPU use with 48 MPI tasks x 1 OpenMP threads

MPI task timing breakdown:
Section |  min time  |  avg time  |  max time  |%varavg| %total
---------------------------------------------------------------
Pair    | 0.016943   | 0.73104    | 3.7941     | 121.7 |  4.84
Bond    | 0.0051977  | 0.92044    | 4.0497     | 125.7 |  6.09
Neigh   | 0.022109   | 0.024073   | 0.026435   |   0.7 |  0.16
Comm    | 6.0473     | 11.033     | 13.607     |  77.5 | 72.97
Output  | 0.0057227  | 0.010672   | 0.015695   |   3.1 |  0.07
Modify  | 0.50333    | 1.8413     | 7.7704     | 171.8 | 12.18
Other   |            | 0.5594     |            |       |  3.70

Nlocal:        10.0208 ave          40 max           0 min
Histogram: 20 3 9 7 1 0 1 3 1 3
Nghost:        1929.23 ave        2418 max        1333 min
Histogram: 8 0 0 0 24 0 0 0 0 16
Neighs:              0 ave           0 max           0 min
Histogram: 48 0 0 0 0 0 0 0 0 0

Total # of neighbors = 0
Ave neighs/atom = 0
Ave special neighs/atom = 15.567568
Neighbor list builds = 63
Dangerous builds = 0
Generated 0 of 1 mixed pair_coeff terms from geometric mixing rule
Setting up Verlet run ...
  Unit style    : real
  Current step  : 380000
  Time step     : 0.05
Per MPI rank memory allocation (min/avg/max) = 13.32 | 13.84 | 14.98 Mbytes
   Step          Temp          E_pair         E_mol          TotEng         Press     
    380000   308.44775      375.74747      18529.509      19346.58      -22.694054    
    390000   291.98613      378.6391       18534.962      19331.371     -128.15712    
Loop time of 3.0089 on 48 procs for 10000 steps with 481 atoms

Performance: 14.357 ns/day, 1.672 hours/ns, 3323.468 timesteps/s, 1.599 Matom-step/s
100.0% CPU use with 48 MPI tasks x 1 OpenMP threads

MPI task timing breakdown:
Section |  min time  |  avg time  |  max time  |%varavg| %total
---------------------------------------------------------------
Pair    | 0.0034208  | 0.14643    | 0.75616    |  54.3 |  4.87
Bond    | 0.0010422  | 0.18411    | 0.8154     |  56.5 |  6.12
Neigh   | 0.0060032  | 0.0065868  | 0.0072532  |   0.4 |  0.22
Comm    | 1.1856     | 2.1912     | 2.6924     |  34.5 | 72.82
Output  | 0.0011456  | 0.0021445  | 0.0031911  |   1.4 |  0.07
Modify  | 0.099097   | 0.36592    | 1.5268     |  76.1 | 12.16
Other   |            | 0.1126     |            |       |  3.74

Nlocal:        10.0208 ave          40 max           0 min
Histogram: 19 5 9 6 1 1 2 0 1 4
Nghost:        1928.73 ave        2411 max        1334 min
Histogram: 8 0 0 0 24 0 0 0 0 16
Neighs:              0 ave           0 max           0 min
Histogram: 48 0 0 0 0 0 0 0 0 0

Total # of neighbors = 0
Ave neighs/atom = 0
Ave special neighs/atom = 15.567568
Neighbor list builds = 18
Dangerous builds = 0
Generated 0 of 1 mixed pair_coeff terms from geometric mixing rule
Setting up Verlet run ...
  Unit style    : real
  Current step  : 390000
  Time step     : 0.05
Per MPI rank memory allocation (min/avg/max) = 13.32 | 13.84 | 14.98 Mbytes
   Step          Temp          E_pair         E_mol          TotEng         Press     
    390000   291.98613      378.6391       18534.962      19331.371     -128.15712    
    400000   291.02147      378.05283      18536.492      19330.935      136.73544    
    410000   292.36477      376.7805       18541.301      19336.394     -77.207964    
    420000   285.18672      365.64771      18577.775      19351.464     -447.97653    
    430000   321.01084      372.83856      18524.011      19356.148     -34.808766    
    440000   299.61936      377.85839      18534.073      19340.624      95.866191    
Loop time of 15.0589 on 48 procs for 50000 steps with 481 atoms

Performance: 14.344 ns/day, 1.673 hours/ns, 3320.287 timesteps/s, 1.597 Matom-step/s
100.0% CPU use with 48 MPI tasks x 1 OpenMP threads

MPI task timing breakdown:
Section |  min time  |  avg time  |  max time  |%varavg| %total
---------------------------------------------------------------
Pair    | 0.016889   | 0.7322     | 3.8585     | 120.7 |  4.86
Bond    | 0.0052742  | 0.92129    | 4.1921     | 126.4 |  6.12
Neigh   | 0.030526   | 0.033329   | 0.036659   |   0.8 |  0.22
Comm    | 5.7475     | 10.99      | 13.62      |  76.8 | 72.98
Output  | 0.0057003  | 0.01067    | 0.016167   |   3.1 |  0.07
Modify  | 0.50925    | 1.8083     | 7.5182     | 169.8 | 12.01
Other   |            | 0.563      |            |       |  3.74

Nlocal:        10.0208 ave          46 max           0 min
Histogram: 22 10 2 5 1 2 2 1 2 1
Nghost:         1934.1 ave        2420 max        1327 min
Histogram: 8 0 0 0 24 0 0 0 0 16
Neighs:              0 ave           0 max           0 min
Histogram: 48 0 0 0 0 0 0 0 0 0

Total # of neighbors = 0
Ave neighs/atom = 0
Ave special neighs/atom = 15.567568
Neighbor list builds = 90
Dangerous builds = 0
Generated 0 of 1 mixed pair_coeff terms from geometric mixing rule
Setting up Verlet run ...
  Unit style    : real
  Current step  : 440000
  Time step     : 0.05
Per MPI rank memory allocation (min/avg/max) = 13.32 | 13.85 | 14.98 Mbytes
   Step          Temp          E_pair         E_mol          TotEng         Press     
    440000   299.61936      377.85839      18534.073      19340.624      95.866191    
    450000   298.55732      374.43415      18553.825      19355.431     -190.0649     
Loop time of 3.0429 on 48 procs for 10000 steps with 481 atoms

Performance: 14.197 ns/day, 1.691 hours/ns, 3286.336 timesteps/s, 1.581 Matom-step/s
100.0% CPU use with 48 MPI tasks x 1 OpenMP threads

MPI task timing breakdown:
Section |  min time  |  avg time  |  max time  |%varavg| %total
---------------------------------------------------------------
Pair    | 0.0034398  | 0.14656    | 0.78754    |  54.3 |  4.82
Bond    | 0.0010334  | 0.1844     | 0.8717     |  57.1 |  6.06
Neigh   | 0.0050175  | 0.0054165  | 0.005928   |   0.3 |  0.18
Comm    | 1.1291     | 2.2263     | 2.7666     |  34.7 | 73.16
Output  | 0.0011711  | 0.0021587  | 0.0033142  |   1.4 |  0.07
Modify  | 0.098398   | 0.36487    | 1.5274     |  77.0 | 11.99
Other   |            | 0.1132     |            |       |  3.72

Nlocal:        10.0208 ave          44 max           0 min
Histogram: 20 11 2 6 2 0 2 2 1 2
Nghost:        1933.48 ave        2413 max        1329 min
Histogram: 8 0 0 0 24 0 0 0 0 16
Neighs:              0 ave           0 max           0 min
Histogram: 48 0 0 0 0 0 0 0 0 0

Total # of neighbors = 0
Ave neighs/atom = 0
Ave special neighs/atom = 15.567568
Neighbor list builds = 13
Dangerous builds = 0
Generated 0 of 1 mixed pair_coeff terms from geometric mixing rule
Setting up Verlet run ...
  Unit style    : real
  Current step  : 450000
  Time step     : 0.05
Per MPI rank memory allocation (min/avg/max) = 13.32 | 13.86 | 14.98 Mbytes
   Step          Temp          E_pair         E_mol          TotEng         Press     
    450000   298.55732      374.43415      18553.825      19355.431     -190.0649     
    460000   306.43025      368.5833       18560.443      19367.463     -324.84803    
    470000   312.13586      367.08595      18553.509      19367.195     -273.81675    
    480000   314.99152      371.67106      18547.085      19369.442     -258.44699    
    490000   286.39377      383.41663      18543.411      19336.597      200.30878    
    500000   318.56883      363.41905      18538.498      19357.722     -243.94612    
Loop time of 15.3614 on 48 procs for 50000 steps with 481 atoms

Performance: 14.061 ns/day, 1.707 hours/ns, 3254.920 timesteps/s, 1.566 Matom-step/s
100.0% CPU use with 48 MPI tasks x 1 OpenMP threads

MPI task timing breakdown:
Section |  min time  |  avg time  |  max time  |%varavg| %total
---------------------------------------------------------------
Pair    | 0.017331   | 0.73164    | 3.8429     | 121.7 |  4.76
Bond    | 0.0051989  | 0.92187    | 4.2696     | 127.1 |  6.00
Neigh   | 0.0322     | 0.034942   | 0.038291   |   0.8 |  0.23
Comm    | 5.9904     | 11.22      | 13.708     |  78.2 | 73.04
Output  | 0.0057679  | 0.010751   | 0.015995   |   3.1 |  0.07
Modify  | 0.5033     | 1.8797     | 7.9748     | 174.9 | 12.24
Other   |            | 0.5625     |            |       |  3.66

Nlocal:        10.0208 ave          40 max           0 min
Histogram: 20 4 9 6 1 0 1 2 3 2
Nghost:        1924.35 ave        2400 max        1336 min
Histogram: 8 0 0 0 24 0 0 0 0 16
Neighs:              0 ave           0 max           0 min
Histogram: 48 0 0 0 0 0 0 0 0 0

Total # of neighbors = 0
Ave neighs/atom = 0
Ave special neighs/atom = 15.567568
Neighbor list builds = 92
Dangerous builds = 0
Generated 0 of 1 mixed pair_coeff terms from geometric mixing rule
Setting up Verlet run ...
  Unit style    : real
  Current step  : 500000
  Time step     : 0.05
Per MPI rank memory allocation (min/avg/max) = 13.32 | 13.86 | 14.98 Mbytes
   Step          Temp          E_pair         E_mol          TotEng         Press     
    500000   318.56883      363.41905      18538.498      19357.722     -243.94612    
    510000   295.16532      372.35624      18547.169      19341.844      6.9988651    
Loop time of 3.06727 on 48 procs for 10000 steps with 481 atoms

Performance: 14.084 ns/day, 1.704 hours/ns, 3260.224 timesteps/s, 1.568 Matom-step/s
100.0% CPU use with 48 MPI tasks x 1 OpenMP threads

MPI task timing breakdown:
Section |  min time  |  avg time  |  max time  |%varavg| %total
---------------------------------------------------------------
Pair    | 0.0034181  | 0.14679    | 0.78988    |  54.5 |  4.79
Bond    | 0.001041   | 0.18464    | 0.88091    |  57.3 |  6.02
Neigh   | 0.0074063  | 0.0080908  | 0.0089013  |   0.4 |  0.26
Comm    | 1.1495     | 2.2402     | 2.7871     |  35.5 | 73.04
Output  | 0.0012342  | 0.002239   | 0.0032943  |   1.4 |  0.07
Modify  | 0.10188    | 0.37258    | 1.5803     |  79.3 | 12.15
Other   |            | 0.1127     |            |       |  3.68

Nlocal:        10.0208 ave          38 max           0 min
Histogram: 20 8 5 4 3 0 0 3 2 3
Nghost:        1926.35 ave        2402 max        1335 min
Histogram: 8 0 0 0 24 0 0 0 0 16
Neighs:              0 ave           0 max           0 min
Histogram: 48 0 0 0 0 0 0 0 0 0

Total # of neighbors = 0
Ave neighs/atom = 0
Ave special neighs/atom = 15.567568
Neighbor list builds = 22
Dangerous builds = 0
Generated 0 of 1 mixed pair_coeff terms from geometric mixing rule
Setting up Verlet run ...
  Unit style    : real
  Current step  : 510000
  Time step     : 0.05
Per MPI rank memory allocation (min/avg/max) = 13.32 | 13.86 | 14.98 Mbytes
   Step          Temp          E_pair         E_mol          TotEng         Press     
    510000   295.16532      372.35624      18547.169      19341.844      6.9988651    
    520000   288.28518      378.10157      18514.267      19304.844      17.830044    
    530000   307.20862      364.66046      18556.361      19360.572     -366.87248    
    540000   300.06165      377.73536      18547.302      19354.362      2.8631763    
    550000   292.90264      366.5091       18542.61       19328.201     -207.40721    
    560000   296.92203      378.53761      18524.738      19328.108      36.928293    
Loop time of 15.6528 on 48 procs for 50000 steps with 481 atoms

Performance: 13.799 ns/day, 1.739 hours/ns, 3194.312 timesteps/s, 1.536 Matom-step/s
100.0% CPU use with 48 MPI tasks x 1 OpenMP threads

MPI task timing breakdown:
Section |  min time  |  avg time  |  max time  |%varavg| %total
---------------------------------------------------------------
Pair    | 0.017673   | 0.73335    | 4.1118     | 121.9 |  4.69
Bond    | 0.0051694  | 0.92207    | 4.5536     | 127.9 |  5.89
Neigh   | 0.027701   | 0.03002    | 0.032886   |   0.8 |  0.19
Comm    | 5.714      | 11.455     | 14.007     |  79.5 | 73.18
Output  | 0.0058959  | 0.010846   | 0.015888   |   3.1 |  0.07
Modify  | 0.50951    | 1.9365     | 8.2866     | 179.7 | 12.37
Other   |            | 0.5649     |            |       |  3.61

Nlocal:        10.0208 ave          45 max           0 min
Histogram: 22 5 10 2 2 2 1 0 2 2
Nghost:         1926.1 ave        2401 max        1329 min
Histogram: 8 0 0 0 24 0 0 0 0 16
Neighs:              0 ave           0 max           0 min
Histogram: 48 0 0 0 0 0 0 0 0 0

Total # of neighbors = 0
Ave neighs/atom = 0
Ave special neighs/atom = 15.567568
Neighbor list builds = 77
Dangerous builds = 0
Generated 0 of 1 mixed pair_coeff terms from geometric mixing rule
Setting up Verlet run ...
  Unit style    : real
  Current step  : 560000
  Time step     : 0.05
Per MPI rank memory allocation (min/avg/max) = 13.32 | 13.86 | 14.98 Mbytes
   Step          Temp          E_pair         E_mol          TotEng         Press     
    560000   296.92203      378.53761      18524.738      19328.108      36.928293    
    570000   309.05945      378.80561      18522.005      19343.01       6.6422193    
Loop time of 3.08988 on 48 procs for 10000 steps with 481 atoms

Performance: 13.981 ns/day, 1.717 hours/ns, 3236.374 timesteps/s, 1.557 Matom-step/s
100.0% CPU use with 48 MPI tasks x 1 OpenMP threads

MPI task timing breakdown:
Section |  min time  |  avg time  |  max time  |%varavg| %total
---------------------------------------------------------------
Pair    | 0.0034192  | 0.14624    | 0.80223    |  54.8 |  4.73
Bond    | 0.0010328  | 0.18394    | 0.90715    |  57.6 |  5.95
Neigh   | 0.0064924  | 0.0071101  | 0.0077765  |   0.4 |  0.23
Comm    | 1.1329     | 2.2618     | 2.8181     |  35.8 | 73.20
Output  | 0.0011649  | 0.0021573  | 0.0031966  |   1.4 |  0.07
Modify  | 0.10006    | 0.37639    | 1.6172     |  80.5 | 12.18
Other   |            | 0.1123     |            |       |  3.63

Nlocal:        10.0208 ave          46 max           0 min
Histogram: 23 5 9 2 2 2 1 1 1 2
Nghost:        1928.48 ave        2404 max        1327 min
Histogram: 8 0 0 0 24 0 0 0 0 16
Neighs:              0 ave           0 max           0 min
Histogram: 48 0 0 0 0 0 0 0 0 0

Total # of neighbors = 0
Ave neighs/atom = 0
Ave special neighs/atom = 15.567568
Neighbor list builds = 18
Dangerous builds = 0
Generated 0 of 1 mixed pair_coeff terms from geometric mixing rule
Setting up Verlet run ...
  Unit style    : real
  Current step  : 570000
  Time step     : 0.05
Per MPI rank memory allocation (min/avg/max) = 13.32 | 13.86 | 14.98 Mbytes
   Step          Temp          E_pair         E_mol          TotEng         Press     
    570000   309.05945      378.80561      18522.005      19343.01       6.6422193    
    580000   315.30417      365.02622      18552.937      19369.097     -383.84567    
    590000   310.01437      371.11449      18536.108      19350.788     -102.13182    
    600000   293.57121      384.92484      18533.784      19338.747      198.71644    
    610000   287.96091      369.92417      18535.209      19317.144     -196.61739    
    620000   300.94693      375.33937      18523.406      19329.337      14.753236    
Loop time of 15.439 on 48 procs for 50000 steps with 481 atoms

Performance: 13.991 ns/day, 1.715 hours/ns, 3238.543 timesteps/s, 1.558 Matom-step/s
100.0% CPU use with 48 MPI tasks x 1 OpenMP threads

MPI task timing breakdown:
Section |  min time  |  avg time  |  max time  |%varavg| %total
---------------------------------------------------------------
Pair    | 0.01748    | 0.73351    | 3.9197     | 123.1 |  4.75
Bond    | 0.0052808  | 0.92162    | 4.3188     | 128.0 |  5.97
Neigh   | 0.034595   | 0.0374     | 0.040898   |   0.9 |  0.24
Comm    | 5.9507     | 11.277     | 13.961     |  80.2 | 73.04
Output  | 0.0059982  | 0.011018   | 0.016251   |   3.1 |  0.07
Modify  | 0.50626    | 1.8965     | 8.1798     | 179.9 | 12.28
Other   |            | 0.5618     |            |       |  3.64

Nlocal:        10.0208 ave          43 max           0 min
Histogram: 20 7 8 5 0 0 3 2 2 1
Nghost:        1924.73 ave        2404 max        1330 min
Histogram: 8 0 0 0 24 0 0 0 0 16
Neighs:              0 ave           0 max           0 min
Histogram: 48 0 0 0 0 0 0 0 0 0

Total # of neighbors = 0
Ave neighs/atom = 0
Ave special neighs/atom = 15.567568
Neighbor list builds = 97
Dangerous builds = 0
Generated 0 of 1 mixed pair_coeff terms from geometric mixing rule
Setting up Verlet run ...
  Unit style    : real
  Current step  : 620000
  Time step     : 0.05
Per MPI rank memory allocation (min/avg/max) = 13.32 | 13.86 | 14.98 Mbytes
   Step          Temp          E_pair         E_mol          TotEng         Press     
    620000   300.94693      375.33937      18523.406      19329.337      14.753236    
    630000   317.249        382.3434       18530.668      19366.927     -81.065923    
Loop time of 3.16799 on 48 procs for 10000 steps with 481 atoms

Performance: 13.636 ns/day, 1.760 hours/ns, 3156.572 timesteps/s, 1.518 Matom-step/s
100.0% CPU use with 48 MPI tasks x 1 OpenMP threads

MPI task timing breakdown:
Section |  min time  |  avg time  |  max time  |%varavg| %total
---------------------------------------------------------------
Pair    | 0.0034791  | 0.14751    | 0.80329    |  55.3 |  4.66
Bond    | 0.0010553  | 0.18405    | 0.8983     |  57.0 |  5.81
Neigh   | 0.0089733  | 0.0097313  | 0.010651   |   0.5 |  0.31
Comm    | 1.2138     | 2.3281     | 2.8551     |  35.9 | 73.49
Output  | 0.0011927  | 0.002206   | 0.0032583  |   1.4 |  0.07
Modify  | 0.097902   | 0.38374    | 1.7397     |  82.1 | 12.11
Other   |            | 0.1126     |            |       |  3.56

Nlocal:        10.0208 ave          44 max           0 min
Histogram: 20 8 9 3 0 1 2 3 1 1
Nghost:        1930.98 ave        2409 max        1329 min
Histogram: 8 0 0 0 24 0 0 0 0 16
Neighs:              0 ave           0 max           0 min
Histogram: 48 0 0 0 0 0 0 0 0 0

Total # of neighbors = 0
Ave neighs/atom = 0
Ave special neighs/atom = 15.567568
Neighbor list builds = 25
Dangerous builds = 0
Generated 0 of 1 mixed pair_coeff terms from geometric mixing rule
Setting up Verlet run ...
  Unit style    : real
  Current step  : 630000
  Time step     : 0.05
Per MPI rank memory allocation (min/avg/max) = 13.32 | 13.86 | 14.98 Mbytes
   Step          Temp          E_pair         E_mol          TotEng         Press     
    630000   317.249        382.3434       18530.668      19366.927     -81.065923    
    640000   314.68975      386.75442      18551.29       19388.299      21.004416    
    650000   305.94149      383.77888      18548.633      19370.15      -135.97324    
    660000   291.25189      395.4529       18527.519      19339.692      209.73406    
    670000   295.75802      380.30672      18510.097      19313.571     -56.10668     
    680000   295.76611      380.85458      18518.418      19322.452     -86.192692    
Loop time of 15.3524 on 48 procs for 50000 steps with 481 atoms

Performance: 14.069 ns/day, 1.706 hours/ns, 3256.822 timesteps/s, 1.567 Matom-step/s
100.0% CPU use with 48 MPI tasks x 1 OpenMP threads

MPI task timing breakdown:
Section |  min time  |  avg time  |  max time  |%varavg| %total
---------------------------------------------------------------
Pair    | 0.017579   | 0.739      | 4.1282     | 124.1 |  4.81
Bond    | 0.0053208  | 0.92077    | 4.3101     | 127.4 |  6.00
Neigh   | 0.043637   | 0.04734    | 0.052001   |   1.0 |  0.31
Comm    | 5.8644     | 11.192     | 13.722     |  79.5 | 72.90
Output  | 0.0059776  | 0.011014   | 0.016145   |   3.1 |  0.07
Modify  | 0.5064     | 1.8817     | 8.0249     | 177.0 | 12.26
Other   |            | 0.5608     |            |       |  3.65

Nlocal:        10.0208 ave          53 max           0 min
Histogram: 21 10 7 3 0 3 2 1 0 1
Nghost:        1928.48 ave        2407 max        1320 min
Histogram: 8 0 0 0 24 0 0 0 0 16
Neighs:              0 ave           0 max           0 min
Histogram: 48 0 0 0 0 0 0 0 0 0

Total # of neighbors = 0
Ave neighs/atom = 0
Ave special neighs/atom = 15.567568
Neighbor list builds = 127
Dangerous builds = 0
Generated 0 of 1 mixed pair_coeff terms from geometric mixing rule
Setting up Verlet run ...
  Unit style    : real
  Current step  : 680000
  Time step     : 0.05
Per MPI rank memory allocation (min/avg/max) = 13.32 | 13.86 | 14.98 Mbytes
   Step          Temp          E_pair         E_mol          TotEng         Press     
    680000   295.76611      380.85458      18518.418      19322.452     -86.192692    
    690000   317.07533      386.09125      18518.192      19357.951      153.62854    
Loop time of 3.12181 on 48 procs for 10000 steps with 481 atoms

Performance: 13.838 ns/day, 1.734 hours/ns, 3203.265 timesteps/s, 1.541 Matom-step/s
100.0% CPU use with 48 MPI tasks x 1 OpenMP threads

MPI task timing breakdown:
Section |  min time  |  avg time  |  max time  |%varavg| %total
---------------------------------------------------------------
Pair    | 0.0035656  | 0.14817    | 0.81009    |  55.2 |  4.75
Bond    | 0.0010389  | 0.18416    | 0.83224    |  56.6 |  5.90
Neigh   | 0.011861   | 0.01278    | 0.013946   |   0.5 |  0.41
Comm    | 1.2687     | 2.2786     | 2.7958     |  35.7 | 72.99
Output  | 0.0011395  | 0.0021567  | 0.0032208  |   1.4 |  0.07
Modify  | 0.10081    | 0.38412    | 1.6555     |  80.6 | 12.30
Other   |            | 0.1119     |            |       |  3.58

Nlocal:        10.0208 ave          43 max           0 min
Histogram: 21 9 2 7 1 1 2 2 2 1
Nghost:        1930.85 ave        2412 max        1330 min
Histogram: 8 0 0 0 24 0 0 0 0 16
Neighs:              0 ave           0 max           0 min
Histogram: 48 0 0 0 0 0 0 0 0 0

Total # of neighbors = 0
Ave neighs/atom = 0
Ave special neighs/atom = 15.567568
Neighbor list builds = 33
Dangerous builds = 0
Generated 0 of 1 mixed pair_coeff terms from geometric mixing rule
Setting up Verlet run ...
  Unit style    : real
  Current step  : 690000
  Time step     : 0.05
Per MPI rank memory allocation (min/avg/max) = 13.32 | 13.86 | 14.98 Mbytes
   Step          Temp          E_pair         E_mol          TotEng         Press     
    690000   317.07533      386.09125      18518.192      19357.951      153.62854    
    700000   319.58957      389.14606      18511.964      19358.375     -2.2042261    
    710000   289.1398       388.76178      18534.312      19336.772     -83.042618    
    720000   291.41603      382.92168      18514.348      19314.224     -354.00662    
    730000   302.18535      395.60183      18525.166      19353.131      208.88196    
    740000   308.90938      385.1165       18514.595      19341.696     -62.498628    
Loop time of 15.4441 on 48 procs for 50000 steps with 481 atoms

Performance: 13.986 ns/day, 1.716 hours/ns, 3237.488 timesteps/s, 1.557 Matom-step/s
100.0% CPU use with 48 MPI tasks x 1 OpenMP threads

MPI task timing breakdown:
Section |  min time  |  avg time  |  max time  |%varavg| %total
---------------------------------------------------------------
Pair    | 0.018059   | 0.7404     | 4.1387     | 124.5 |  4.79
Bond    | 0.0052034  | 0.92011    | 4.1703     | 126.5 |  5.96
Neigh   | 0.058192   | 0.063024   | 0.068907   |   1.1 |  0.41
Comm    | 6.1264     | 11.261     | 13.887     |  79.7 | 72.91
Output  | 0.0058139  | 0.010803   | 0.016201   |   3.1 |  0.07
Modify  | 0.50217    | 1.887      | 8.1589     | 178.2 | 12.22
Other   |            | 0.562      |            |       |  3.64

Nlocal:        10.0208 ave          44 max           0 min
Histogram: 20 7 9 4 0 1 3 0 3 1
Nghost:        1928.35 ave        2407 max        1329 min
Histogram: 8 0 0 0 24 0 0 0 0 16
Neighs:              0 ave           0 max           0 min
Histogram: 48 0 0 0 0 0 0 0 0 0

Total # of neighbors = 0
Ave neighs/atom = 0
Ave special neighs/atom = 15.567568
Neighbor list builds = 167
Dangerous builds = 0
Generated 0 of 1 mixed pair_coeff terms from geometric mixing rule
Setting up Verlet run ...
  Unit style    : real
  Current step  : 740000
  Time step     : 0.05
Per MPI rank memory allocation (min/avg/max) = 13.32 | 13.86 | 14.98 Mbytes
   Step          Temp          E_pair         E_mol          TotEng         Press     
    740000   308.90938      385.1165       18514.595      19341.696     -62.498628    
    750000   293.98395      387.61122      18522.575      19330.816     -97.513002    
Loop time of 2.99014 on 48 procs for 10000 steps with 481 atoms

Performance: 14.447 ns/day, 1.661 hours/ns, 3344.320 timesteps/s, 1.609 Matom-step/s
100.0% CPU use with 48 MPI tasks x 1 OpenMP threads

MPI task timing breakdown:
Section |  min time  |  avg time  |  max time  |%varavg| %total
---------------------------------------------------------------
Pair    | 0.0035683  | 0.14842    | 0.82331    |  56.0 |  4.96
Bond    | 0.0010567  | 0.18406    | 0.78364    |  56.3 |  6.16
Neigh   | 0.01172    | 0.012772   | 0.013992   |   0.5 |  0.43
Comm    | 1.1304     | 2.1737     | 2.718      |  34.7 | 72.69
Output  | 0.0011834  | 0.0021912  | 0.0032331  |   1.4 |  0.07
Modify  | 0.10026    | 0.35665    | 1.5376     |  75.1 | 11.93
Other   |            | 0.1124     |            |       |  3.76

Nlocal:        10.0208 ave          45 max           0 min
Histogram: 22 6 7 5 1 1 2 1 1 2
Nghost:        1926.48 ave        2414 max        1328 min
Histogram: 8 0 0 0 24 0 0 0 0 16
Neighs:              0 ave           0 max           0 min
Histogram: 48 0 0 0 0 0 0 0 0 0

Total # of neighbors = 0
Ave neighs/atom = 0
Ave special neighs/atom = 15.567568
Neighbor list builds = 35
Dangerous builds = 0
Generated 0 of 1 mixed pair_coeff terms from geometric mixing rule
Setting up Verlet run ...
  Unit style    : real
  Current step  : 750000
  Time step     : 0.05
Per MPI rank memory allocation (min/avg/max) = 13.32 | 13.86 | 14.98 Mbytes
   Step          Temp          E_pair         E_mol          TotEng         Press     
    750000   293.98395      387.61122      18522.575      19330.816     -97.513002    
    760000   280.55577      384.24476      18508.336      19293.997     -109.67406    
    770000   280.76523      385.03017      18531.026      19317.772     -120.18367    
    780000   284.21097      391.08937      18517.595      19315.33       12.282555    
    790000   304.43283      388.94115      18511.182      19335.702     -14.498717    
    800000   297.73545      386.54131      18545.158      19357.696     -143.67876    
Loop time of 15.4381 on 48 procs for 50000 steps with 481 atoms

Performance: 13.991 ns/day, 1.715 hours/ns, 3238.740 timesteps/s, 1.558 Matom-step/s
100.0% CPU use with 48 MPI tasks x 1 OpenMP threads

MPI task timing breakdown:
Section |  min time  |  avg time  |  max time  |%varavg| %total
---------------------------------------------------------------
Pair    | 0.017453   | 0.74131    | 4.2054     | 125.4 |  4.80
Bond    | 0.0052434  | 0.91998    | 4.0842     | 126.4 |  5.96
Neigh   | 0.066826   | 0.072575   | 0.07935    |   1.2 |  0.47
Comm    | 6.0092     | 11.249     | 14.031     |  79.7 | 72.87
Output  | 0.0059082  | 0.010836   | 0.015989   |   3.1 |  0.07
Modify  | 0.50824    | 1.8795     | 8.2402     | 177.5 | 12.17
Other   |            | 0.5645     |            |       |  3.66

Nlocal:        10.0208 ave          39 max           0 min
Histogram: 20 8 4 5 3 0 1 2 2 3
Nghost:           1930 ave        2410 max        1337 min
Histogram: 8 0 0 0 24 0 0 0 0 16
Neighs:              0 ave           0 max           0 min
Histogram: 48 0 0 0 0 0 0 0 0 0

Total # of neighbors = 0
Ave neighs/atom = 0
Ave special neighs/atom = 15.567568
Neighbor list builds = 193
Dangerous builds = 0
Generated 0 of 1 mixed pair_coeff terms from geometric mixing rule
Setting up Verlet run ...
  Unit style    : real
  Current step  : 800000
  Time step     : 0.05
Per MPI rank memory allocation (min/avg/max) = 13.32 | 13.86 | 14.98 Mbytes
   Step          Temp          E_pair         E_mol          TotEng         Press     
    800000   297.73545      386.54131      18545.158      19357.696     -143.67876    
    810000   293.70979      391.86188      18536.953      19349.051      28.180698    
Loop time of 3.06726 on 48 procs for 10000 steps with 481 atoms

Performance: 14.084 ns/day, 1.704 hours/ns, 3260.242 timesteps/s, 1.568 Matom-step/s
100.0% CPU use with 48 MPI tasks x 1 OpenMP threads

MPI task timing breakdown:
Section |  min time  |  avg time  |  max time  |%varavg| %total
---------------------------------------------------------------
Pair    | 0.0035028  | 0.14909    | 0.82161    |  56.0 |  4.86
Bond    | 0.0010462  | 0.18456    | 0.82556    |  56.4 |  6.02
Neigh   | 0.014492   | 0.015755   | 0.017218   |   0.6 |  0.51
Comm    | 1.1966     | 2.2349     | 2.7808     |  34.4 | 72.86
Output  | 0.00113    | 0.002111   | 0.0031454  |   1.4 |  0.07
Modify  | 0.10447    | 0.3646     | 1.6112     |  75.4 | 11.89
Other   |            | 0.1162     |            |       |  3.79

Nlocal:        10.0208 ave          40 max           0 min
Histogram: 20 8 4 5 3 0 1 2 2 3
Nghost:        1929.85 ave        2409 max        1335 min
Histogram: 8 0 0 0 24 0 0 0 0 16
Neighs:              0 ave           0 max           0 min
Histogram: 48 0 0 0 0 0 0 0 0 0

Total # of neighbors = 0
Ave neighs/atom = 0
Ave special neighs/atom = 15.567568
Neighbor list builds = 42
Dangerous builds = 0
Generated 0 of 1 mixed pair_coeff terms from geometric mixing rule
Setting up Verlet run ...
  Unit style    : real
  Current step  : 810000
  Time step     : 0.05
Per MPI rank memory allocation (min/avg/max) = 13.32 | 13.86 | 14.98 Mbytes
   Step          Temp          E_pair         E_mol          TotEng         Press     
    810000   293.70979      391.86188      18536.953      19349.051      28.180698    
    820000   275.52514      375.70656      18529.449      19299.374     -388.15293    
    830000   293.10376      401.78475      18502.132      19323.286      295.42178    
    840000   295.4653       385.21037      18540.06       19348.019     -113.80854    
    850000   306.28687      383.12557      18539.817      19361.175     -139.92429    
    860000   306.48209      403.33875      18535.062      19376.912      298.93221    
Loop time of 15.3133 on 48 procs for 50000 steps with 481 atoms

Performance: 14.105 ns/day, 1.701 hours/ns, 3265.141 timesteps/s, 1.571 Matom-step/s
100.0% CPU use with 48 MPI tasks x 1 OpenMP threads

MPI task timing breakdown:
Section |  min time  |  avg time  |  max time  |%varavg| %total
---------------------------------------------------------------
Pair    | 0.01707    | 0.74159    | 4.0619     | 125.1 |  4.84
Bond    | 0.0052483  | 0.92014    | 4.2152     | 126.1 |  6.01
Neigh   | 0.074327   | 0.080449   | 0.087947   |   1.3 |  0.53
Comm    | 5.8672     | 11.13      | 13.802     |  79.1 | 72.68
Output  | 0.0057001  | 0.010793   | 0.016234   |   3.2 |  0.07
Modify  | 0.49981    | 1.8683     | 8.0122     | 175.0 | 12.20
Other   |            | 0.5621     |            |       |  3.67

Nlocal:        10.0208 ave          38 max           0 min
Histogram: 22 5 5 7 0 1 2 0 2 4
Nghost:        1930.38 ave        2410 max        1335 min
Histogram: 8 0 0 0 24 0 0 0 0 16
Neighs:              0 ave           0 max           0 min
Histogram: 48 0 0 0 0 0 0 0 0 0

Total # of neighbors = 0
Ave neighs/atom = 0
Ave special neighs/atom = 15.567568
Neighbor list builds = 214
Dangerous builds = 0
Generated 0 of 1 mixed pair_coeff terms from geometric mixing rule
Setting up Verlet run ...
  Unit style    : real
  Current step  : 860000
  Time step     : 0.05
Per MPI rank memory allocation (min/avg/max) = 13.32 | 13.86 | 14.98 Mbytes
   Step          Temp          E_pair         E_mol          TotEng         Press     
    860000   306.48209      403.33875      18535.062      19376.912      298.93221    
    870000   310.43671      388.60151      18534.006      19366.777     -116.91683    
Loop time of 2.97548 on 48 procs for 10000 steps with 481 atoms

Performance: 14.519 ns/day, 1.653 hours/ns, 3360.807 timesteps/s, 1.617 Matom-step/s
100.0% CPU use with 48 MPI tasks x 1 OpenMP threads

MPI task timing breakdown:
Section |  min time  |  avg time  |  max time  |%varavg| %total
---------------------------------------------------------------
Pair    | 0.0034805  | 0.14845    | 0.83626    |  56.2 |  4.99
Bond    | 0.0010466  | 0.18412    | 0.76474    |  56.2 |  6.19
Neigh   | 0.01535    | 0.016662   | 0.018261   |   0.6 |  0.56
Comm    | 1.1164     | 2.1539     | 2.6933     |  35.2 | 72.39
Output  | 0.001097   | 0.0021     | 0.0032453  |   1.4 |  0.07
Modify  | 0.10045    | 0.35876    | 1.5356     |  76.3 | 12.06
Other   |            | 0.1115     |            |       |  3.75

Nlocal:        10.0208 ave          37 max           0 min
Histogram: 19 6 8 5 2 0 0 1 3 4
Nghost:        1929.48 ave        2407 max        1337 min
Histogram: 8 0 0 0 24 0 0 0 0 16
Neighs:              0 ave           0 max           0 min
Histogram: 48 0 0 0 0 0 0 0 0 0

Total # of neighbors = 0
Ave neighs/atom = 0
Ave special neighs/atom = 15.567568
Neighbor list builds = 45
Dangerous builds = 0
Generated 0 of 1 mixed pair_coeff terms from geometric mixing rule
Setting up Verlet run ...
  Unit style    : real
  Current step  : 870000
  Time step     : 0.05
Per MPI rank memory allocation (min/avg/max) = 13.32 | 13.86 | 14.98 Mbytes
   Step          Temp          E_pair         E_mol          TotEng         Press     
    870000   310.43671      388.60151      18534.006      19366.777     -116.91683    
    880000   292.90135      385.34761      18507.858      19312.286     -143.00871    
    890000   303.21821      397.96241      18477.411      19309.214      148.72482    
    900000   291.59846      384.05848      18524.425      19325.699     -226.42549    
    910000   298.49285      385.17492      18529.529      19341.784     -167.64687    
    920000   310.57115      389.5458       18499.387      19333.294     -94.481276    
Loop time of 15.1056 on 48 procs for 50000 steps with 481 atoms

Performance: 14.299 ns/day, 1.678 hours/ns, 3310.035 timesteps/s, 1.592 Matom-step/s
100.0% CPU use with 48 MPI tasks x 1 OpenMP threads

MPI task timing breakdown:
Section |  min time  |  avg time  |  max time  |%varavg| %total
---------------------------------------------------------------
Pair    | 0.017846   | 0.74244    | 4.0728     | 124.9 |  4.92
Bond    | 0.0052652  | 0.92042    | 4.2183     | 126.2 |  6.09
Neigh   | 0.073423   | 0.07969    | 0.087143   |   1.3 |  0.53
Comm    | 5.7547     | 10.964     | 13.632     |  77.7 | 72.58
Output  | 0.0056528  | 0.01072    | 0.016064   |   3.2 |  0.07
Modify  | 0.49871    | 1.8289     | 7.7969     | 169.1 | 12.11
Other   |            | 0.5598     |            |       |  3.71

Nlocal:        10.0208 ave          41 max           0 min
Histogram: 21 8 4 6 1 1 1 0 4 2
Nghost:        1931.12 ave        2414 max        1337 min
Histogram: 8 0 0 0 24 0 0 0 0 16
Neighs:              0 ave           0 max           0 min
Histogram: 48 0 0 0 0 0 0 0 0 0

Total # of neighbors = 0
Ave neighs/atom = 0
Ave special neighs/atom = 15.567568
Neighbor list builds = 214
Dangerous builds = 0
Generated 0 of 1 mixed pair_coeff terms from geometric mixing rule
Setting up Verlet run ...
  Unit style    : real
  Current step  : 920000
  Time step     : 0.05
Per MPI rank memory allocation (min/avg/max) = 13.32 | 13.86 | 14.98 Mbytes
   Step          Temp          E_pair         E_mol          TotEng         Press     
    920000   310.57115      389.5458       18499.387      19333.294     -94.481276    
    930000   296.73736      381.97581      18538.751      19345.295     -353.94362    
Loop time of 3.0938 on 48 procs for 10000 steps with 481 atoms

Performance: 13.963 ns/day, 1.719 hours/ns, 3232.271 timesteps/s, 1.555 Matom-step/s
100.0% CPU use with 48 MPI tasks x 1 OpenMP threads

MPI task timing breakdown:
Section |  min time  |  avg time  |  max time  |%varavg| %total
---------------------------------------------------------------
Pair    | 0.0034099  | 0.14862    | 0.80386    |  55.9 |  4.80
Bond    | 0.0010443  | 0.18413    | 0.82884    |  56.3 |  5.95
Neigh   | 0.018931   | 0.020559   | 0.02243    |   0.6 |  0.66
Comm    | 1.2412     | 2.2498     | 2.8143     |  35.7 | 72.72
Output  | 0.001142   | 0.0021219  | 0.0031533  |   1.4 |  0.07
Modify  | 0.098911   | 0.3773     | 1.6327     |  79.6 | 12.20
Other   |            | 0.1113     |            |       |  3.60

Nlocal:        10.0208 ave          38 max           0 min
Histogram: 20 6 6 5 3 0 1 0 5 2
Nghost:        1932.48 ave        2413 max        1337 min
Histogram: 8 0 0 0 24 0 0 0 0 16
Neighs:              0 ave           0 max           0 min
Histogram: 48 0 0 0 0 0 0 0 0 0

Total # of neighbors = 0
Ave neighs/atom = 0
Ave special neighs/atom = 15.567568
Neighbor list builds = 54
Dangerous builds = 0
Generated 0 of 1 mixed pair_coeff terms from geometric mixing rule
Setting up Verlet run ...
  Unit style    : real
  Current step  : 930000
  Time step     : 0.05
Per MPI rank memory allocation (min/avg/max) = 13.32 | 13.86 | 14.98 Mbytes
   Step          Temp          E_pair         E_mol          TotEng         Press     
    930000   296.73736      381.97581      18538.751      19345.295     -353.94362    
    940000   276.40796      390.62923      18541.375      19327.486      47.502387    
    950000   290.93502      387.70417      18515.343      19319.313     -113.73506    
    960000   305.84308      384.95698      18530.335      19352.888     -146.1407     
    970000   314.35921      402.30659      18517.117      19369.205      349.51626    
    980000   319.28893      378.09064      18541.979      19376.905     -467.44676    
Loop time of 15.4934 on 48 procs for 50000 steps with 481 atoms

Performance: 13.941 ns/day, 1.721 hours/ns, 3227.184 timesteps/s, 1.552 Matom-step/s
100.0% CPU use with 48 MPI tasks x 1 OpenMP threads

MPI task timing breakdown:
Section |  min time  |  avg time  |  max time  |%varavg| %total
---------------------------------------------------------------
Pair    | 0.01756    | 0.74338    | 4.0748     | 125.2 |  4.80
Bond    | 0.005257   | 0.9217     | 3.9533     | 125.9 |  5.95
Neigh   | 0.093611   | 0.10151    | 0.11075    |   1.4 |  0.66
Comm    | 6.3119     | 11.263     | 14.064     |  79.1 | 72.69
Output  | 0.0058236  | 0.010805   | 0.017722   |   3.2 |  0.07
Modify  | 0.50129    | 1.8903     | 8.1562     | 176.1 | 12.20
Other   |            | 0.5631     |            |       |  3.63

Nlocal:        10.0208 ave          41 max           0 min
Histogram: 20 7 9 4 0 0 1 2 4 1
Nghost:        1931.75 ave        2408 max        1332 min
Histogram: 8 0 0 0 24 0 0 0 0 16
Neighs:              0 ave           0 max           0 min
Histogram: 48 0 0 0 0 0 0 0 0 0

Total # of neighbors = 0
Ave neighs/atom = 0
Ave special neighs/atom = 15.567568
Neighbor list builds = 270
Dangerous builds = 0
Generated 0 of 1 mixed pair_coeff terms from geometric mixing rule
Setting up Verlet run ...
  Unit style    : real
  Current step  : 980000
  Time step     : 0.05
Per MPI rank memory allocation (min/avg/max) = 13.32 | 13.86 | 14.98 Mbytes
   Step          Temp          E_pair         E_mol          TotEng         Press     
    980000   319.28893      378.09064      18541.979      19376.905     -467.44676    
    990000   315.90454      388.39785      18521.903      19362.294     -62.804862    
Loop time of 3.05665 on 48 procs for 10000 steps with 481 atoms

Performance: 14.133 ns/day, 1.698 hours/ns, 3271.556 timesteps/s, 1.574 Matom-step/s
100.0% CPU use with 48 MPI tasks x 1 OpenMP threads

MPI task timing breakdown:
Section |  min time  |  avg time  |  max time  |%varavg| %total
---------------------------------------------------------------
Pair    | 0.0035053  | 0.14839    | 0.82027    |  56.2 |  4.85
Bond    | 0.001054   | 0.18394    | 0.77153    |  56.3 |  6.02
Neigh   | 0.01727    | 0.018771   | 0.020448   |   0.6 |  0.61
Comm    | 1.1879     | 2.2175     | 2.7701     |  35.7 | 72.55
Output  | 0.0011264  | 0.0021434  | 0.0033659  |   1.4 |  0.07
Modify  | 0.098995   | 0.37416    | 1.6038     |  78.7 | 12.24
Other   |            | 0.1117     |            |       |  3.65

Nlocal:        10.0208 ave          40 max           0 min
Histogram: 20 7 5 7 1 0 2 2 0 4
Nghost:         1936.6 ave        2423 max        1334 min
Histogram: 8 0 0 0 24 0 0 0 0 16
Neighs:              0 ave           0 max           0 min
Histogram: 48 0 0 0 0 0 0 0 0 0

Total # of neighbors = 0
Ave neighs/atom = 0
Ave special neighs/atom = 15.567568
Neighbor list builds = 50
Dangerous builds = 0
Generated 0 of 1 mixed pair_coeff terms from geometric mixing rule
Setting up Verlet run ...
  Unit style    : real
  Current step  : 990000
  Time step     : 0.05
Per MPI rank memory allocation (min/avg/max) = 13.32 | 13.86 | 14.98 Mbytes
   Step          Temp          E_pair         E_mol          TotEng         Press     
    990000   315.90454      388.39785      18521.903      19362.294     -62.804862    
   1000000   305.68489      388.90259      18502.711      19328.984      16.231896    
   1010000   306.49964      387.74583      18518.285      19344.567     -64.945488    
   1020000   295.38115      390.97067      18520.757      19334.356     -63.116868    
   1030000   284.80949      389.65539      18554.895      19352.053     -118.16284    
   1040000   289.61481      402.59342      18479.588      19296.559      351.75076    
Loop time of 15.4891 on 48 procs for 50000 steps with 481 atoms

Performance: 13.945 ns/day, 1.721 hours/ns, 3228.076 timesteps/s, 1.553 Matom-step/s
100.0% CPU use with 48 MPI tasks x 1 OpenMP threads

MPI task timing breakdown:
Section |  min time  |  avg time  |  max time  |%varavg| %total
---------------------------------------------------------------
Pair    | 0.017496   | 0.74292    | 4.1068     | 125.2 |  4.80
Bond    | 0.0052387  | 0.92065    | 4.1394     | 126.3 |  5.94
Neigh   | 0.085677   | 0.093058   | 0.10161    |   1.4 |  0.60
Comm    | 6.2295     | 11.278     | 14.068     |  80.1 | 72.81
Output  | 0.0057492  | 0.010777   | 0.015932   |   3.1 |  0.07
Modify  | 0.49866    | 1.8853     | 8.181      | 179.2 | 12.17
Other   |            | 0.5582     |            |       |  3.60

Nlocal:        10.0208 ave          39 max           0 min
Histogram: 19 8 5 5 3 0 0 3 3 2
Nghost:        1933.48 ave        2418 max        1334 min
Histogram: 8 0 0 0 24 0 0 0 0 16
Neighs:              0 ave           0 max           0 min
Histogram: 48 0 0 0 0 0 0 0 0 0

Total # of neighbors = 0
Ave neighs/atom = 0
Ave special neighs/atom = 15.567568
Neighbor list builds = 246
Dangerous builds = 0
Generated 0 of 1 mixed pair_coeff terms from geometric mixing rule
Setting up Verlet run ...
  Unit style    : real
  Current step  : 1040000
  Time step     : 0.05
Per MPI rank memory allocation (min/avg/max) = 13.32 | 13.86 | 14.98 Mbytes
   Step          Temp          E_pair         E_mol          TotEng         Press     
   1040000   289.61481      402.59342      18479.588      19296.559      351.75076    
   1050000   300.73263      387.85433      18493.444      19311.583     -42.322471    
Loop time of 3.08954 on 48 procs for 10000 steps with 481 atoms

Performance: 13.983 ns/day, 1.716 hours/ns, 3236.730 timesteps/s, 1.557 Matom-step/s
100.0% CPU use with 48 MPI tasks x 1 OpenMP threads

MPI task timing breakdown:
Section |  min time  |  avg time  |  max time  |%varavg| %total
---------------------------------------------------------------
Pair    | 0.0035149  | 0.14876    | 0.84942    |  56.1 |  4.82
Bond    | 0.0010605  | 0.18431    | 0.85763    |  56.9 |  5.97
Neigh   | 0.014848   | 0.016188   | 0.017722   |   0.6 |  0.52
Comm    | 1.1898     | 2.2434     | 2.798      |  35.9 | 72.61
Output  | 0.0011335  | 0.0021545  | 0.0033088  |   1.4 |  0.07
Modify  | 0.10507    | 0.38274    | 1.6207     |  79.4 | 12.39
Other   |            | 0.112      |            |       |  3.63

Nlocal:        10.0208 ave          43 max           0 min
Histogram: 21 6 8 4 1 0 3 3 0 2
Nghost:        1933.98 ave        2414 max        1330 min
Histogram: 8 0 0 0 24 0 0 0 0 16
Neighs:              0 ave           0 max           0 min
Histogram: 48 0 0 0 0 0 0 0 0 0

Total # of neighbors = 0
Ave neighs/atom = 0
Ave special neighs/atom = 15.567568
Neighbor list builds = 44
Dangerous builds = 0
Generated 0 of 1 mixed pair_coeff terms from geometric mixing rule
Setting up Verlet run ...
  Unit style    : real
  Current step  : 1050000
  Time step     : 0.05
Per MPI rank memory allocation (min/avg/max) = 13.32 | 13.86 | 14.98 Mbytes
   Step          Temp          E_pair         E_mol          TotEng         Press     
   1050000   300.73263      387.85433      18493.444      19311.583     -42.322471    
   1060000   294.86965      379.6188       18544.943      19346.458     -420.18565    
   1070000   325.75111      390.743        18498.806      19355.63      -60.586124    
   1080000   301.15859      398.77848      18493.738      19323.411      195.74003    
   1090000   295.87525      383.7052       18536.411      19343.451     -218.80161    
   1100000   308.80751      392.38758      18537.267      19371.493      135.84062    
Loop time of 15.6087 on 48 procs for 50000 steps with 481 atoms

Performance: 13.838 ns/day, 1.734 hours/ns, 3203.346 timesteps/s, 1.541 Matom-step/s
100.0% CPU use with 48 MPI tasks x 1 OpenMP threads

MPI task timing breakdown:
Section |  min time  |  avg time  |  max time  |%varavg| %total
---------------------------------------------------------------
Pair    | 0.017456   | 0.74305    | 4.089      | 124.6 |  4.76
Bond    | 0.0052542  | 0.92199    | 4.2586     | 126.4 |  5.91
Neigh   | 0.078311   | 0.085079   | 0.092837   |   1.3 |  0.55
Comm    | 6.2321     | 11.367     | 14.097     |  80.2 | 72.83
Output  | 0.0058512  | 0.010846   | 0.016091   |   3.1 |  0.07
Modify  | 0.50885    | 1.9214     | 8.2593     | 180.1 | 12.31
Other   |            | 0.559      |            |       |  3.58

Nlocal:        10.0208 ave          41 max           0 min
Histogram: 20 6 10 3 1 0 0 5 1 2
Nghost:        1930.98 ave        2416 max        1332 min
Histogram: 8 0 0 0 24 0 0 0 0 16
Neighs:              0 ave           0 max           0 min
Histogram: 48 0 0 0 0 0 0 0 0 0

Total # of neighbors = 0
Ave neighs/atom = 0
Ave special neighs/atom = 15.567568
Neighbor list builds = 223
Dangerous builds = 0
Generated 0 of 1 mixed pair_coeff terms from geometric mixing rule
Setting up Verlet run ...
  Unit style    : real
  Current step  : 1100000
  Time step     : 0.05
Per MPI rank memory allocation (min/avg/max) = 13.32 | 13.86 | 14.98 Mbytes
   Step          Temp          E_pair         E_mol          TotEng         Press     
   1100000   308.80751      392.38758      18537.267      19371.493      135.84062    
   1110000   312.54112      383.92677      18542.219      19373.326     -198.9715     
Loop time of 3.07287 on 48 procs for 10000 steps with 481 atoms

Performance: 14.058 ns/day, 1.707 hours/ns, 3254.282 timesteps/s, 1.565 Matom-step/s
100.0% CPU use with 48 MPI tasks x 1 OpenMP threads

MPI task timing breakdown:
Section |  min time  |  avg time  |  max time  |%varavg| %total
---------------------------------------------------------------
Pair    | 0.0035251  | 0.14845    | 0.82426    |  55.7 |  4.83
Bond    | 0.0010325  | 0.18433    | 0.83751    |  56.4 |  6.00
Neigh   | 0.013957   | 0.015158   | 0.016314   |   0.5 |  0.49
Comm    | 1.2104     | 2.2412     | 2.789      |  34.9 | 72.94
Output  | 0.0011686  | 0.0021686  | 0.0032209  |   1.4 |  0.07
Modify  | 0.10212    | 0.36934    | 1.5778     |  77.5 | 12.02
Other   |            | 0.1122     |            |       |  3.65

Nlocal:        10.0208 ave          41 max           0 min
Histogram: 21 7 7 5 0 0 0 5 2 1
Nghost:        1921.98 ave        2397 max        1332 min
Histogram: 8 0 0 0 24 0 0 0 0 16
Neighs:              0 ave           0 max           0 min
Histogram: 48 0 0 0 0 0 0 0 0 0

Total # of neighbors = 0
Ave neighs/atom = 0
Ave special neighs/atom = 15.567568
Neighbor list builds = 40
Dangerous builds = 0
Generated 0 of 1 mixed pair_coeff terms from geometric mixing rule
Setting up Verlet run ...
  Unit style    : real
  Current step  : 1110000
  Time step     : 0.05
Per MPI rank memory allocation (min/avg/max) = 13.32 | 13.86 | 14.98 Mbytes
   Step          Temp          E_pair         E_mol          TotEng         Press     
   1110000   312.54112      383.92677      18542.219      19373.326     -198.9715     
   1120000   306.04087      396.67924      18502.545      19337.104      134.26705    
   1130000   309.40214      394.37596      18485.445      19322.51       145.34064    
   1140000   308.85228      375.13286      18541.307      19358.342     -396.59337    
   1150000   304.88829      389.43452      18530.252      19355.918     -70.038709    
   1160000   302.36975      392.93377      18510.332      19335.893      38.722707    
Loop time of 15.4891 on 48 procs for 50000 steps with 481 atoms

Performance: 13.945 ns/day, 1.721 hours/ns, 3228.081 timesteps/s, 1.553 Matom-step/s
100.0% CPU use with 48 MPI tasks x 1 OpenMP threads

MPI task timing breakdown:
Section |  min time  |  avg time  |  max time  |%varavg| %total
---------------------------------------------------------------
Pair    | 0.018075   | 0.74343    | 4.1935     | 125.4 |  4.80
Bond    | 0.0051779  | 0.92171    | 4.1143     | 126.7 |  5.95
Neigh   | 0.07325    | 0.079406   | 0.086631   |   1.3 |  0.51
Comm    | 6.1176     | 11.291     | 14.08      |  79.5 | 72.90
Output  | 0.0058227  | 0.010811   | 0.016112   |   3.1 |  0.07
Modify  | 0.50769    | 1.8835     | 8.0286     | 176.9 | 12.16
Other   |            | 0.5589     |            |       |  3.61

Nlocal:        10.0208 ave          44 max           0 min
Histogram: 22 5 10 2 2 0 2 2 1 2
Nghost:         1935.6 ave        2416 max        1333 min
Histogram: 8 0 0 0 24 0 0 0 0 16
Neighs:              0 ave           0 max           0 min
Histogram: 48 0 0 0 0 0 0 0 0 0

Total # of neighbors = 0
Ave neighs/atom = 0
Ave special neighs/atom = 15.567568
Neighbor list builds = 209
Dangerous builds = 0
Generated 0 of 1 mixed pair_coeff terms from geometric mixing rule
Setting up Verlet run ...
  Unit style    : real
  Current step  : 1160000
  Time step     : 0.05
Per MPI rank memory allocation (min/avg/max) = 13.32 | 13.87 | 14.98 Mbytes
   Step          Temp          E_pair         E_mol          TotEng         Press     
   1160000   302.36975      392.93377      18510.332      19335.893      38.722707    
   1170000   288.34626      389.90225      18522.753      19325.218     -26.794614    
Loop time of 3.07921 on 48 procs for 10000 steps with 481 atoms

Performance: 14.030 ns/day, 1.711 hours/ns, 3247.582 timesteps/s, 1.562 Matom-step/s
100.0% CPU use with 48 MPI tasks x 1 OpenMP threads

MPI task timing breakdown:
Section |  min time  |  avg time  |  max time  |%varavg| %total
---------------------------------------------------------------
Pair    | 0.0034781  | 0.14827    | 0.83939    |  56.0 |  4.82
Bond    | 0.0010328  | 0.18399    | 0.78147    |  56.5 |  5.98
Neigh   | 0.013386   | 0.01462    | 0.01593    |   0.6 |  0.47
Comm    | 1.2005     | 2.2356     | 2.7529     |  35.3 | 72.60
Output  | 0.0011348  | 0.0021348  | 0.0033004  |   1.4 |  0.07
Modify  | 0.099338   | 0.38297    | 1.5884     |  78.5 | 12.44
Other   |            | 0.1117     |            |       |  3.63

Nlocal:        10.0208 ave          42 max           0 min
Histogram: 21 7 6 4 2 1 1 2 2 2
Nghost:         1934.1 ave        2421 max        1332 min
Histogram: 8 0 0 0 24 0 0 0 0 16
Neighs:              0 ave           0 max           0 min
Histogram: 48 0 0 0 0 0 0 0 0 0

Total # of neighbors = 0
Ave neighs/atom = 0
Ave special neighs/atom = 15.567568
Neighbor list builds = 39
Dangerous builds = 0
Generated 0 of 1 mixed pair_coeff terms from geometric mixing rule
Setting up Verlet run ...
  Unit style    : real
  Current step  : 1170000
  Time step     : 0.05
Per MPI rank memory allocation (min/avg/max) = 13.32 | 13.87 | 14.98 Mbytes
   Step          Temp          E_pair         E_mol          TotEng         Press     
   1170000   288.34626      389.90225      18522.753      19325.218     -26.794614    
   1180000   303.94842      387.94403      18541.245      19364.075     -217.95575    
   1190000   299.28413      389.80218      18559.124      19377.138     -150.43603    
   1200000   292.85455      390.92053      18547.371      19357.304     -138.28997    
   1210000   299.57628      393.46006      18532.287      19354.378      136.49607    
   1220000   296.69586      394.00896      18495.935      19314.453      150.93167    
Loop time of 15.5251 on 48 procs for 50000 steps with 481 atoms

Performance: 13.913 ns/day, 1.725 hours/ns, 3220.583 timesteps/s, 1.549 Matom-step/s
100.0% CPU use with 48 MPI tasks x 1 OpenMP threads

MPI task timing breakdown:
Section |  min time  |  avg time  |  max time  |%varavg| %total
---------------------------------------------------------------
Pair    | 0.017208   | 0.74213    | 4.1922     | 125.3 |  4.78
Bond    | 0.0051888  | 0.92048    | 4.3144     | 127.0 |  5.93
Neigh   | 0.071195   | 0.077847   | 0.084765   |   1.3 |  0.50
Comm    | 6.1393     | 11.293     | 13.903     |  80.1 | 72.74
Output  | 0.0057112  | 0.01072    | 0.015895   |   3.2 |  0.07
Modify  | 0.5069     | 1.9213     | 8.1493     | 178.8 | 12.38
Other   |            | 0.5592     |            |       |  3.60

Nlocal:        10.0208 ave          37 max           0 min
Histogram: 17 9 6 6 2 0 1 0 2 5
Nghost:         1930.1 ave        2411 max        1336 min
Histogram: 8 0 0 0 24 0 0 0 0 16
Neighs:              0 ave           0 max           0 min
Histogram: 48 0 0 0 0 0 0 0 0 0

Total # of neighbors = 0
Ave neighs/atom = 0
Ave special neighs/atom = 15.567568
Neighbor list builds = 203
Dangerous builds = 0
Generated 0 of 1 mixed pair_coeff terms from geometric mixing rule
Setting up Verlet run ...
  Unit style    : real
  Current step  : 1220000
  Time step     : 0.05
Per MPI rank memory allocation (min/avg/max) = 13.32 | 13.87 | 14.98 Mbytes
[...]

Performance: 14.238 ns/day, 1.686 hours/ns, 3295.816 timesteps/s, 1.585 Matom-step/s
100.0% CPU use with 48 MPI tasks x 1 OpenMP threads

MPI task timing breakdown:
Section |  min time  |  avg time  |  max time  |%varavg| %total
---------------------------------------------------------------
Pair    | 0.016361   | 0.72894    | 4.0454     | 120.4 |  4.80
Bond    | 0.0052373  | 0.92055    | 4.0297     | 126.5 |  6.07
Neigh   | 0.016904   | 0.018331   | 0.020034   |   0.6 |  0.12
Comm    | 6.4232     | 11.055     | 13.593     |  78.3 | 72.87
Output  | 0.0058243  | 0.010724   | 0.015973   |   3.1 |  0.07
Modify  | 0.48824    | 1.8754     | 7.8533     | 175.6 | 12.36
Other   |            | 0.5615     |            |       |  3.70

Nlocal:        10.0208 ave          53 max           0 min
Histogram: 22 10 7 2 0 3 2 1 0 1
Nghost:        1927.85 ave        2411 max        1320 min
Histogram: 8 0 0 0 24 0 0 0 0 16
Neighs:              0 ave           0 max           0 min
Histogram: 48 0 0 0 0 0 0 0 0 0

Total # of neighbors = 0
Ave neighs/atom = 0
Ave special neighs/atom = 15.567568
Neighbor list builds = 49
Dangerous builds = 0
Generated 0 of 1 mixed pair_coeff terms from geometric mixing rule
Setting up Verlet run ...
  Unit style    : real
  Current step  : 2780000
  Time step     : 0.05
Per MPI rank memory allocation (min/avg/max) = 13.32 | 13.88 | 14.98 Mbytes
   Step          Temp          E_pair         E_mol          TotEng         Press     
   2780000   300.07495      374.06862      18534.329      19337.741     -18.494519    
   2790000   295.87552      371.64271      18508.307      19303.285     -17.179606    
Loop time of 2.99957 on 48 procs for 10000 steps with 481 atoms

Performance: 14.402 ns/day, 1.666 hours/ns, 3333.811 timesteps/s, 1.604 Matom-step/s
100.0% CPU use with 48 MPI tasks x 1 OpenMP threads

MPI task timing breakdown:
Section |  min time  |  avg time  |  max time  |%varavg| %total
---------------------------------------------------------------
Pair    | 0.003323   | 0.14573    | 0.77759    |  53.9 |  4.86
Bond    | 0.0010499  | 0.18417    | 0.81272    |  56.5 |  6.14
Neigh   | 0.0048958  | 0.0053431  | 0.0058811  |   0.4 |  0.18
Comm    | 1.2325     | 2.1856     | 2.7363     |  34.6 | 72.86
Output  | 0.0011146  | 0.0021002  | 0.0033215  |   1.4 |  0.07
Modify  | 0.095953   | 0.36448    | 1.531      |  77.1 | 12.15
Other   |            | 0.1121     |            |       |  3.74

Nlocal:        10.0208 ave          44 max           0 min
Histogram: 20 6 12 2 0 1 0 6 0 1
Nghost:        1928.73 ave        2413 max        1329 min
Histogram: 8 0 0 0 24 0 0 0 0 16
Neighs:              0 ave           0 max           0 min
Histogram: 48 0 0 0 0 0 0 0 0 0

Total # of neighbors = 0
Ave neighs/atom = 0
Ave special neighs/atom = 15.567568
Neighbor list builds = 15
Dangerous builds = 0
Generated 0 of 1 mixed pair_coeff terms from geometric mixing rule
Setting up Verlet run ...
  Unit style    : real
  Current step  : 2790000
  Time step     : 0.05
Per MPI rank memory allocation (min/avg/max) = 13.32 | 13.88 | 14.98 Mbytes
   Step          Temp          E_pair         E_mol          TotEng         Press     
   2790000   295.87552      371.64271      18508.307      19303.285     -17.179606    
   2800000   291.23688      370.60328      18533.916      19321.218     -43.3475      
   2810000   315.4077       383.34406      18521.866      19356.492      204.78402    
   2820000   322.15938      370.94746      18529.398      19361.287      28.200873    
   2830000   308.39817      356.26203      18538.106      19335.621     -342.94583    
   2840000   292.12158      375.82044      18512.677      19306.462      292.26872    
Loop time of 15.7712 on 48 procs for 50000 steps with 481 atoms

Performance: 13.696 ns/day, 1.752 hours/ns, 3170.330 timesteps/s, 1.525 Matom-step/s
100.0% CPU use with 48 MPI tasks x 1 OpenMP threads

MPI task timing breakdown:
Section |  min time  |  avg time  |  max time  |%varavg| %total
---------------------------------------------------------------
Pair    | 0.016846   | 0.72784    | 4.0747     | 119.7 |  4.61
Bond    | 0.0052417  | 0.92049    | 4.3428     | 126.7 |  5.84
Neigh   | 0.019504   | 0.021159   | 0.023067   |   0.6 |  0.13
Comm    | 6.4041     | 11.566     | 14.183     |  79.4 | 73.34
Output  | 0.0058416  | 0.010742   | 0.015898   |   3.1 |  0.07
Modify  | 0.48856    | 1.9611     | 8.4147     | 183.4 | 12.43
Other   |            | 0.5634     |            |       |  3.57

Nlocal:        10.0208 ave          47 max           0 min
Histogram: 22 9 3 6 2 1 1 1 1 2
Nghost:        1926.85 ave        2410 max        1326 min
Histogram: 8 0 0 0 24 0 0 0 0 16
Neighs:              0 ave           0 max           0 min
Histogram: 48 0 0 0 0 0 0 0 0 0

Total # of neighbors = 0
Ave neighs/atom = 0
Ave special neighs/atom = 15.567568
Neighbor list builds = 54
Dangerous builds = 0
Generated 0 of 1 mixed pair_coeff terms from geometric mixing rule
Setting up Verlet run ...
  Unit style    : real
  Current step  : 2840000
  Time step     : 0.05
Per MPI rank memory allocation (min/avg/max) = 13.32 | 13.88 | 14.98 Mbytes
   Step          Temp          E_pair         E_mol          TotEng         Press     
   2840000   292.12158      375.82044      18512.677      19306.462      292.26872    
   2850000   300.32244      376.41555      18520.369      19326.483     -6.6156582    
Loop time of 3.28445 on 48 procs for 10000 steps with 481 atoms

Performance: 13.153 ns/day, 1.825 hours/ns, 3044.649 timesteps/s, 1.464 Matom-step/s
100.0% CPU use with 48 MPI tasks x 1 OpenMP threads

MPI task timing breakdown:
Section |  min time  |  avg time  |  max time  |%varavg| %total
---------------------------------------------------------------
Pair    | 0.0034822  | 0.1456     | 0.8163     |  53.3 |  4.43
Bond    | 0.0010532  | 0.18418    | 0.92163    |  57.2 |  5.61
Neigh   | 0.0065925  | 0.007137   | 0.0077396  |   0.4 |  0.22
Comm    | 1.2925     | 2.4244     | 2.9607     |  35.6 | 73.81
Output  | 0.0011745  | 0.0021658  | 0.0032137  |   1.4 |  0.07
Modify  | 0.097675   | 0.40873    | 1.8011     |  84.0 | 12.44
Other   |            | 0.1123     |            |       |  3.42

Nlocal:        10.0208 ave          45 max           0 min
Histogram: 21 6 7 6 1 1 1 1 2 2
Nghost:        1932.73 ave        2417 max        1330 min
Histogram: 8 0 0 0 24 0 0 0 0 16
Neighs:              0 ave           0 max           0 min
Histogram: 48 0 0 0 0 0 0 0 0 0

Total # of neighbors = 0
Ave neighs/atom = 0
Ave special neighs/atom = 15.567568
Neighbor list builds = 17
Dangerous builds = 0
Generated 0 of 1 mixed pair_coeff terms from geometric mixing rule
Setting up Verlet run ...
  Unit style    : real
  Current step  : 2850000
  Time step     : 0.05
Per MPI rank memory allocation (min/avg/max) = 13.32 | 13.88 | 14.98 Mbytes
   Step          Temp          E_pair         E_mol          TotEng         Press     
   2850000   300.32244      376.41555      18520.369      19326.483     -6.6156582    
   2860000   299.65809      369.90787      18549.603      19348.258     -57.16898     
   2870000   305.96945      361.11054      18530.717      19329.605     -225.43605    
   2880000   296.49629      371.86368      18513.911      19309.998      70.18338     
   2890000   293.09158      375.22614      18506.213      19300.791     -8.0044389    
   2900000   286.48144      366.63927      18511.178      19287.712     -133.43733    
Loop time of 16.016 on 48 procs for 50000 steps with 481 atoms

Performance: 13.487 ns/day, 1.780 hours/ns, 3121.880 timesteps/s, 1.502 Matom-step/s
100.0% CPU use with 48 MPI tasks x 1 OpenMP threads

MPI task timing breakdown:
Section |  min time  |  avg time  |  max time  |%varavg| %total
---------------------------------------------------------------
Pair    | 0.016913   | 0.7278     | 3.8761     | 119.3 |  4.54
Bond    | 0.0052718  | 0.92037    | 4.1715     | 126.4 |  5.75
Neigh   | 0.025541   | 0.027601   | 0.030057   |   0.7 |  0.17
Comm    | 6.6356     | 11.778     | 14.592     |  81.0 | 73.54
Output  | 0.0058096  | 0.010728   | 0.015759   |   3.1 |  0.07
Modify  | 0.48192    | 1.9899     | 8.7272     | 189.4 | 12.42
Other   |            | 0.5615     |            |       |  3.51

Nlocal:        10.0208 ave          41 max           0 min
Histogram: 21 5 11 2 1 0 1 2 4 1
Nghost:         1926.1 ave        2402 max        1338 min
Histogram: 8 0 0 0 24 0 0 0 0 16
Neighs:              0 ave           0 max           0 min
Histogram: 48 0 0 0 0 0 0 0 0 0

Total # of neighbors = 0
Ave neighs/atom = 0
Ave special neighs/atom = 15.567568
Neighbor list builds = 69
Dangerous builds = 0
Generated 0 of 1 mixed pair_coeff terms from geometric mixing rule
Setting up Verlet run ...
  Unit style    : real
  Current step  : 2900000
  Time step     : 0.05
Per MPI rank memory allocation (min/avg/max) = 13.32 | 13.88 | 14.98 Mbytes
   Step          Temp          E_pair         E_mol          TotEng         Press     
   2900000   286.48144      366.63927      18511.178      19287.712     -133.43733    
   2910000   302.24047      368.09872      18521.416      19321.957     -148.60974    
Loop time of 3.13594 on 48 procs for 10000 steps with 481 atoms

Performance: 13.776 ns/day, 1.742 hours/ns, 3188.835 timesteps/s, 1.534 Matom-step/s
100.0% CPU use with 48 MPI tasks x 1 OpenMP threads

MPI task timing breakdown:
Section |  min time  |  avg time  |  max time  |%varavg| %total
---------------------------------------------------------------
Pair    | 0.0033776  | 0.14579    | 0.81348    |  53.3 |  4.65
Bond    | 0.0010427  | 0.18404    | 0.82425    |  56.3 |  5.87
Neigh   | 0.0064221  | 0.0069729  | 0.0076076  |   0.4 |  0.22
Comm    | 1.322      | 2.2964     | 2.8122     |  35.4 | 73.23
Output  | 0.0011351  | 0.0021152  | 0.0031655  |   1.4 |  0.07
Modify  | 0.095753   | 0.38801    | 1.6502     |  81.5 | 12.37
Other   |            | 0.1126     |            |       |  3.59

Nlocal:        10.0208 ave          45 max           0 min
Histogram: 22 2 14 2 0 2 2 2 1 1
Nghost:        1928.85 ave        2404 max        1328 min
Histogram: 8 0 0 0 24 0 0 0 0 16
Neighs:              0 ave           0 max           0 min
Histogram: 48 0 0 0 0 0 0 0 0 0

Total # of neighbors = 0
Ave neighs/atom = 0
Ave special neighs/atom = 15.567568
Neighbor list builds = 18
Dangerous builds = 0
Generated 0 of 1 mixed pair_coeff terms from geometric mixing rule
Setting up Verlet run ...
  Unit style    : real
  Current step  : 2910000
  Time step     : 0.05
Per MPI rank memory allocation (min/avg/max) = 13.32 | 13.88 | 14.98 Mbytes
   Step          Temp          E_pair         E_mol          TotEng         Press     
   2910000   302.24047      368.09872      18521.416      19321.957     -148.60974    
   2920000   304.02223      372.86479      18514.941      19322.797      108.75257    
   2930000   299.4095       377.10218      18522.784      19328.278      147.60417    
   2940000   291.10894      374.14818      18485.188      19275.852      76.732566    
   2950000   288.5495       368.65836      18501.771      19283.282     -86.023652    
   2960000   288.98878      363.13575      18528.942      19305.56      -360.56725    
Loop time of 15.8243 on 48 procs for 50000 steps with 481 atoms

Performance: 13.650 ns/day, 1.758 hours/ns, 3159.695 timesteps/s, 1.520 Matom-step/s
100.0% CPU use with 48 MPI tasks x 1 OpenMP threads

MPI task timing breakdown:
Section |  min time  |  avg time  |  max time  |%varavg| %total
---------------------------------------------------------------
Pair    | 0.017154   | 0.72852    | 3.8215     | 119.5 |  4.60
Bond    | 0.005254   | 0.92084    | 4.2167     | 127.1 |  5.82
Neigh   | 0.027177   | 0.029339   | 0.031916   |   0.8 |  0.19
Comm    | 6.5637     | 11.586     | 14.157     |  79.7 | 73.22
Output  | 0.0059091  | 0.010813   | 0.015809   |   3.1 |  0.07
Modify  | 0.49291    | 1.9852     | 8.5421     | 182.9 | 12.55
Other   |            | 0.5635     |            |       |  3.56

Nlocal:        10.0208 ave          52 max           0 min
Histogram: 23 8 7 3 2 0 2 0 2 1
Nghost:         1932.1 ave        2418 max        1321 min
Histogram: 8 0 0 0 24 0 0 0 0 16
Neighs:              0 ave           0 max           0 min
Histogram: 48 0 0 0 0 0 0 0 0 0

Total # of neighbors = 0
Ave neighs/atom = 0
Ave special neighs/atom = 15.567568
Neighbor list builds = 75
Dangerous builds = 0
Generated 0 of 1 mixed pair_coeff terms from geometric mixing rule
Setting up Verlet run ...
  Unit style    : real
  Current step  : 2960000
  Time step     : 0.05
Per MPI rank memory allocation (min/avg/max) = 13.32 | 13.88 | 14.98 Mbytes
   Step          Temp          E_pair         E_mol          TotEng         Press     
   2960000   288.98878      363.13575      18528.942      19305.56      -360.56725    
   2970000   291.7926       368.93014      18520.531      19306.955     -125.46622    
Loop time of 3.18099 on 48 procs for 10000 steps with 481 atoms

Performance: 13.581 ns/day, 1.767 hours/ns, 3143.674 timesteps/s, 1.512 Matom-step/s
100.0% CPU use with 48 MPI tasks x 1 OpenMP threads

MPI task timing breakdown:
Section |  min time  |  avg time  |  max time  |%varavg| %total
---------------------------------------------------------------
Pair    | 0.0032987  | 0.14562    | 0.76756    |  53.6 |  4.58
Bond    | 0.0010489  | 0.18419    | 0.84087    |  57.0 |  5.79
Neigh   | 0.0040278  | 0.004356   | 0.0047601  |   0.3 |  0.14
Comm    | 1.3204     | 2.328      | 2.8904     |  36.5 | 73.19
Output  | 0.0011721  | 0.0021426  | 0.0031795  |   1.4 |  0.07
Modify  | 0.10026    | 0.40447    | 1.7311     |  84.0 | 12.72
Other   |            | 0.1122     |            |       |  3.53

Nlocal:        10.0208 ave          47 max           0 min
Histogram: 21 8 7 4 1 3 0 1 2 1
Nghost:        1923.73 ave        2406 max        1326 min
Histogram: 8 0 0 0 24 0 0 0 0 16
Neighs:              0 ave           0 max           0 min
Histogram: 48 0 0 0 0 0 0 0 0 0

Total # of neighbors = 0
Ave neighs/atom = 0
Ave special neighs/atom = 15.567568
Neighbor list builds = 11
Dangerous builds = 0
Generated 0 of 1 mixed pair_coeff terms from geometric mixing rule
Setting up Verlet run ...
  Unit style    : real
  Current step  : 2970000
  Time step     : 0.05
Per MPI rank memory allocation (min/avg/max) = 13.32 | 13.88 | 14.98 Mbytes
   Step          Temp          E_pair         E_mol          TotEng         Press     
   2970000   291.7926       368.93014      18520.531      19306.955     -125.46622    
   2980000   322.29394      388.99061      18523.222      19373.347      276.82936    
   2990000   299.64269      368.80062      18551.979      19349.505     -218.77723    
   3000000   295.71826      375.28834      18509.842      19308.241      159.43634    
   3010000   303.00008      373.03054      18532.72       19339.279     -28.276627    
   3020000   299.00232      365.84021      18535.715      19329.364     -227.34888    
Loop time of 15.4917 on 48 procs for 50000 steps with 481 atoms

Performance: 13.943 ns/day, 1.721 hours/ns, 3227.533 timesteps/s, 1.552 Matom-step/s
100.0% CPU use with 48 MPI tasks x 1 OpenMP threads

MPI task timing breakdown:
Section |  min time  |  avg time  |  max time  |%varavg| %total
---------------------------------------------------------------
Pair    | 0.017071   | 0.72753    | 3.7952     | 119.0 |  4.70
Bond    | 0.0052629  | 0.92013    | 4.1502     | 127.0 |  5.94
Neigh   | 0.019898   | 0.021494   | 0.023467   |   0.7 |  0.14
Comm    | 6.3592     | 11.334     | 14.044     |  78.6 | 73.16
Output  | 0.0059171  | 0.010827   | 0.01587    |   3.1 |  0.07
Modify  | 0.49045    | 1.9165     | 8.1175     | 179.1 | 12.37
Other   |            | 0.5617     |            |       |  3.63

Nlocal:        10.0208 ave          46 max           0 min
Histogram: 22 9 3 5 3 0 3 0 0 3
Nghost:        1927.73 ave        2408 max        1328 min
Histogram: 8 0 0 0 24 0 0 0 0 16
Neighs:              0 ave           0 max           0 min
Histogram: 48 0 0 0 0 0 0 0 0 0

Total # of neighbors = 0
Ave neighs/atom = 0
Ave special neighs/atom = 15.567568
Neighbor list builds = 56
Dangerous builds = 0
Generated 0 of 1 mixed pair_coeff terms from geometric mixing rule
Setting up Verlet run ...
  Unit style    : real
  Current step  : 3020000
  Time step     : 0.05
Per MPI rank memory allocation (min/avg/max) = 13.32 | 13.88 | 14.98 Mbytes
   Step          Temp          E_pair         E_mol          TotEng         Press     
   3020000   299.00232      365.84021      18535.715      19329.364     -227.34888    
   3030000   295.30155      382.83361      18519.126      19324.474      257.76347    
Loop time of 3.11702 on 48 procs for 10000 steps with 481 atoms

Performance: 13.859 ns/day, 1.732 hours/ns, 3208.197 timesteps/s, 1.543 Matom-step/s
100.0% CPU use with 48 MPI tasks x 1 OpenMP threads

MPI task timing breakdown:
Section |  min time  |  avg time  |  max time  |%varavg| %total
---------------------------------------------------------------
Pair    | 0.0033916  | 0.14567    | 0.76514    |  52.8 |  4.67
Bond    | 0.0010453  | 0.18405    | 0.85376    |  57.2 |  5.90
Neigh   | 0.0034808  | 0.0038038  | 0.0041685  |   0.3 |  0.12
Comm    | 1.2786     | 2.2761     | 2.7864     |  34.9 | 73.02
Output  | 0.0012004  | 0.0021916  | 0.0032356  |   1.4 |  0.07
Modify  | 0.10156    | 0.39216    | 1.6286     |  79.2 | 12.58
Other   |            | 0.1131     |            |       |  3.63

Nlocal:        10.0208 ave          41 max           0 min
Histogram: 24 5 4 4 3 0 3 1 1 3
Nghost:        1934.23 ave        2416 max        1332 min
Histogram: 8 0 0 0 24 0 0 0 0 16
Neighs:              0 ave           0 max           0 min
Histogram: 48 0 0 0 0 0 0 0 0 0

Total # of neighbors = 0
Ave neighs/atom = 0
Ave special neighs/atom = 15.567568
Neighbor list builds = 10
Dangerous builds = 0
Generated 0 of 1 mixed pair_coeff terms from geometric mixing rule
Setting up Verlet run ...
  Unit style    : real
  Current step  : 3030000
  Time step     : 0.05
Per MPI rank memory allocation (min/avg/max) = 13.32 | 13.88 | 14.98 Mbytes
   Step          Temp          E_pair         E_mol          TotEng         Press     
   3030000   295.30155      382.83361      18519.126      19324.474      257.76347    
   3040000   287.03751      363.90772      18501.557      19276.155     -212.53291    
   3050000   288.92028      361.36453      18510.149      19284.897     -320.79789    
   3060000   288.04513      381.0321       18515.225      19308.389      126.50992    
   3070000   300.80774      373.31595      18515.844      19319.552      74.924986    
   3080000   294.83973      374.365        18509.388      19305.606      57.961096    
Loop time of 15.1977 on 48 procs for 50000 steps with 481 atoms

Performance: 14.213 ns/day, 1.689 hours/ns, 3289.973 timesteps/s, 1.582 Matom-step/s
100.0% CPU use with 48 MPI tasks x 1 OpenMP threads

MPI task timing breakdown:
Section |  min time  |  avg time  |  max time  |%varavg| %total
---------------------------------------------------------------
Pair    | 0.0167     | 0.72818    | 3.8817     | 119.0 |  4.79
Bond    | 0.0052273  | 0.91969    | 4.3157     | 127.3 |  6.05
Neigh   | 0.021969   | 0.023817   | 0.026057   |   0.7 |  0.16
Comm    | 6.27       | 11.069     | 13.639     |  76.8 | 72.83
Output  | 0.0056947  | 0.010986   | 0.016451   |   3.4 |  0.07
Modify  | 0.49174    | 1.8845     | 7.7793     | 171.1 | 12.40
Other   |            | 0.5615     |            |       |  3.69

Nlocal:        10.0208 ave          40 max           0 min
Histogram: 19 6 8 6 1 0 1 2 3 2
Nghost:         1930.1 ave        2415 max        1333 min
Histogram: 8 0 0 0 24 0 0 0 0 16
Neighs:              0 ave           0 max           0 min
Histogram: 48 0 0 0 0 0 0 0 0 0

Total # of neighbors = 0
Ave neighs/atom = 0
Ave special neighs/atom = 15.567568
Neighbor list builds = 64
Dangerous builds = 0
Total wall time: 0:15:56
