LAMMPS (27 Jun 2024)
OMP_NUM_THREADS environment is not set. Defaulting to 1 thread. (src/comm.cpp:98)
  using 1 OpenMP thread(s) per MPI task
Reading data file ...
  orthogonal box = (-30 -30 -30) to (30 30 30)
  4 by 4 by 4 MPI processor grid
  reading atoms ...
  480 atoms
  reading velocities ...
  480 velocities
  scanning bonds ...
  2 = max bonds/atom
  scanning angles ...
  3 = max angles/atom
  scanning dihedrals ...
  8 = max dihedrals/atom
  scanning impropers ...
  2 = max impropers/atom
  orthogonal box = (-30 -30 -30) to (30 30 30)
  4 by 4 by 4 MPI processor grid
  reading bonds ...
  676 bonds
  reading angles ...
  1268 angles
  reading dihedrals ...
  2394 dihedrals
  reading impropers ...
  396 impropers
Finding 1-2 1-3 1-4 neighbors ...
  special bond factors lj:    0        0        0       
  special bond factors coul:  0        0        0       
     3 = max # of 1-2 neighbors
     6 = max # of 1-3 neighbors
    18 = max # of 1-4 neighbors
    18 = max # of special neighbors
  special bonds CPU = 0.002 seconds
  read_data CPU = 0.050 seconds
Finding 1-2 1-3 1-4 neighbors ...
  special bond factors lj:    0        0        0.5     
  special bond factors coul:  0        0        0       
     3 = max # of 1-2 neighbors
     6 = max # of 1-3 neighbors
    18 = max # of 1-4 neighbors
    18 = max # of special neighbors
  special bonds CPU = 0.002 seconds
Created 1 atoms
  using lattice units in orthogonal box = (-30 -30 -30) to (30 30 30)
  create_atoms CPU = 0.000 seconds
480 atoms in group C
1 atoms in group H2

CITE-CITE-CITE-CITE-CITE-CITE-CITE-CITE-CITE-CITE-CITE-CITE-CITE

Your simulation uses code contributions which should be cited:
- Type Label Framework: https://doi.org/10.1021/acs.jpcb.3c08419
The log file lists these citations in BibTeX format.

CITE-CITE-CITE-CITE-CITE-CITE-CITE-CITE-CITE-CITE-CITE-CITE-CITE

Generated 0 of 1 mixed pair_coeff terms from geometric mixing rule
Neighbor list info ...
  update: every = 1 steps, delay = 3 steps, check = yes
  max neighbors/atom: 6000, page size: 100000
  master list distance cutoff = 31
  ghost atom cutoff = 31
  binsize = 15.5, bins = 4 4 4
  4 neighbor lists, perpetual/occasional/extra = 4 0 0
  (1) pair lj/cut, perpetual, skip trim from (4)
      attributes: half, newton on, cut 15
      pair build: skip/trim
      stencil: none
      bin: none
  (2) pair sg, perpetual, skip trim from (4)
      attributes: half, newton on, cut 16
      pair build: skip/trim
      stencil: none
      bin: none
  (3) pair cb, perpetual, skip from (4)
      attributes: half, newton on
      pair build: skip
      stencil: none
      bin: none
  (4) neighbor class addition, perpetual
      attributes: half, newton on
      pair build: half/bin/newton
      stencil: half/bin/3d
      bin: standard
Setting up Verlet run ...
  Unit style    : real
  Current step  : 0
  Time step     : 0.05
Per MPI rank memory allocation (min/avg/max) = 13.29 | 13.4 | 13.93 Mbytes
   Step          Temp          E_pair         E_mol          TotEng         Press          Volume    
         0   300            308.5124       19603.922      20341.671     -432.43506      216000       
     10000   308.71881      373.71132      18568.425      19383.847     -313.89117      172136.83    
     20000   319.74694      375.11214      18539.114      19371.717     -417.40409      126541.73    
Loop time of 7.22705 on 64 procs for 20000 steps with 481 atoms

Performance: 11.955 ns/day, 2.008 hours/ns, 2767.382 timesteps/s, 1.331 Matom-step/s
99.8% CPU use with 64 MPI tasks x 1 OpenMP threads

MPI task timing breakdown:
Section |  min time  |  avg time  |  max time  |%varavg| %total
---------------------------------------------------------------
Pair    | 0.13591    | 0.44898    | 2.2365     |  69.4 |  6.21
Bond    | 0.003913   | 0.35649    | 1.7525     | 102.4 |  4.93
Neigh   | 0.017224   | 0.02008    | 0.022261   |   1.0 |  0.28
Comm    | 2.5257     | 4.1564     | 5.1242     |  39.9 | 57.51
Output  | 0.0036291  | 0.010921   | 0.019221   |   4.8 |  0.15
Modify  | 0.7366     | 1.9253     | 3.8625     |  67.7 | 26.64
Other   |            | 0.3089     |            |       |  4.27

Nlocal:        7.51562 ave          36 max           0 min
Histogram: 41 7 0 0 0 1 2 9 3 1
Nghost:        1804.95 ave        2371 max        1288 min
Histogram: 16 0 0 0 32 0 0 0 0 16
Neighs:              0 ave           0 max           0 min
Histogram: 64 0 0 0 0 0 0 0 0 0

Total # of neighbors = 0
Ave neighs/atom = 0
Ave special neighs/atom = 15.567568
Neighbor list builds = 52
Dangerous builds = 0
Generated 0 of 1 mixed pair_coeff terms from geometric mixing rule
Setting up Verlet run ...
  Unit style    : real
  Current step  : 20000
  Time step     : 0.05
Per MPI rank memory allocation (min/avg/max) = 13.32 | 13.62 | 14.95 Mbytes
   Step          Temp          E_pair         E_mol          TotEng         Press     
     20000   319.74694      375.11214      18539.114      19371.717     -417.40409    
     30000   287.59828      350.74733      18590.099      19352.339     -1271.3824    
Loop time of 3.6641 on 64 procs for 10000 steps with 481 atoms

Performance: 11.790 ns/day, 2.036 hours/ns, 2729.180 timesteps/s, 1.313 Matom-step/s
99.9% CPU use with 64 MPI tasks x 1 OpenMP threads

MPI task timing breakdown:
Section |  min time  |  avg time  |  max time  |%varavg| %total
---------------------------------------------------------------
Pair    | 0.0033956  | 0.14141    | 1.1023     |  66.3 |  3.86
Bond    | 0.0010761  | 0.16504    | 0.95531    |  67.7 |  4.50
Neigh   | 0.033664   | 0.03791    | 0.039742   |   0.8 |  1.03
Comm    | 1.2914     | 2.7518     | 3.3527     |  38.8 | 75.10
Output  | 0.0015915  | 0.0042204  | 0.0072672  |   2.8 |  0.12
Modify  | 0.12409    | 0.43896    | 1.9502     |  85.3 | 11.98
Other   |            | 0.1248     |            |       |  3.41

Nlocal:        7.51562 ave          36 max           0 min
Histogram: 42 5 1 1 0 3 5 0 4 3
Nghost:        1806.92 ave        2378 max        1288 min
Histogram: 16 0 0 0 32 0 0 0 0 16
Neighs:              0 ave           0 max           0 min
Histogram: 64 0 0 0 0 0 0 0 0 0

Total # of neighbors = 0
Ave neighs/atom = 0
Ave special neighs/atom = 15.567568
Neighbor list builds = 77
Dangerous builds = 0
Generated 0 of 1 mixed pair_coeff terms from geometric mixing rule
Setting up Verlet run ...
  Unit style    : real
  Current step  : 30000
  Time step     : 0.05
Per MPI rank memory allocation (min/avg/max) = 13.32 | 13.62 | 14.95 Mbytes
   Step          Temp          E_pair         E_mol          TotEng         Press     
     30000   287.59828      350.74733      18590.099      19352.339     -1271.3824    
     40000   296.11769      421.47852      18519.387      19364.547      622.91352    
     50000   294.72442      401.44298      18549.162      19372.294      252.08242    
     60000   280.90679      378.40568      18576.237      19356.561     -329.65596    
     70000   291.19853      377.32332      18553.126      19347.093     -418.35579    
     80000   310.28634      398.34351      18531.529      19373.827      305.51592    
Loop time of 18.0642 on 64 procs for 50000 steps with 481 atoms

Performance: 11.957 ns/day, 2.007 hours/ns, 2767.898 timesteps/s, 1.331 Matom-step/s
100.0% CPU use with 64 MPI tasks x 1 OpenMP threads

MPI task timing breakdown:
Section |  min time  |  avg time  |  max time  |%varavg| %total
---------------------------------------------------------------
Pair    | 0.017335   | 0.6881     | 5.387      | 145.2 |  3.81
Bond    | 0.0053897  | 0.82392    | 4.9668     | 152.6 |  4.56
Neigh   | 0.10215    | 0.11539    | 0.12178    |   1.5 |  0.64
Comm    | 6.2293     | 13.644     | 16.613     |  86.0 | 75.53
Output  | 0.0079344  | 0.018392   | 0.029334   |   5.1 |  0.10
Modify  | 0.59797    | 2.1577     | 9.57       | 188.7 | 11.94
Other   |            | 0.6165     |            |       |  3.41

Nlocal:        7.51562 ave          33 max           0 min
Histogram: 41 7 0 0 0 0 4 4 1 7
Nghost:         1822.3 ave        2416 max        1291 min
Histogram: 16 0 0 0 32 0 0 0 0 16
Neighs:              0 ave           0 max           0 min
Histogram: 64 0 0 0 0 0 0 0 0 0

Total # of neighbors = 0
Ave neighs/atom = 0
Ave special neighs/atom = 15.567568
Neighbor list builds = 234
Dangerous builds = 0
Generated 0 of 1 mixed pair_coeff terms from geometric mixing rule
Setting up Verlet run ...
  Unit style    : real
  Current step  : 80000
  Time step     : 0.05
Per MPI rank memory allocation (min/avg/max) = 13.32 | 13.62 | 14.95 Mbytes
   Step          Temp          E_pair         E_mol          TotEng         Press     
     80000   310.28634      398.34351      18531.529      19373.827      305.51592    
     90000   298.6903       385.36633      18546.26       19358.989     -126.96873    
Loop time of 3.49045 on 64 procs for 10000 steps with 481 atoms

Performance: 12.377 ns/day, 1.939 hours/ns, 2864.962 timesteps/s, 1.378 Matom-step/s
100.0% CPU use with 64 MPI tasks x 1 OpenMP threads

MPI task timing breakdown:
Section |  min time  |  avg time  |  max time  |%varavg| %total
---------------------------------------------------------------
Pair    | 0.0034888  | 0.13655    | 1.0125     |  63.7 |  3.91
Bond    | 0.0010819  | 0.16363    | 0.93985    |  67.5 |  4.69
Neigh   | 0.007345   | 0.0082949  | 0.0087937  |   0.4 |  0.24
Comm    | 1.2647     | 2.6473     | 3.2197     |  37.4 | 75.84
Output  | 0.0016212  | 0.0033679  | 0.0051306  |   1.9 |  0.10
Modify  | 0.1171     | 0.40867    | 1.8064     |  81.8 | 11.71
Other   |            | 0.1226     |            |       |  3.51

Nlocal:        7.51562 ave          33 max           0 min
Histogram: 43 3 2 0 0 0 2 5 4 5
Nghost:         1819.3 ave        2412 max        1292 min
Histogram: 16 0 0 0 32 0 0 0 0 16
Neighs:              0 ave           0 max           0 min
Histogram: 64 0 0 0 0 0 0 0 0 0

Total # of neighbors = 0
Ave neighs/atom = 0
Ave special neighs/atom = 15.567568
Neighbor list builds = 17
Dangerous builds = 0
Generated 0 of 1 mixed pair_coeff terms from geometric mixing rule
Setting up Verlet run ...
  Unit style    : real
  Current step  : 90000
  Time step     : 0.05
Per MPI rank memory allocation (min/avg/max) = 13.32 | 13.62 | 14.95 Mbytes
   Step          Temp          E_pair         E_mol          TotEng         Press     
     90000   298.6903       385.36633      18546.26       19358.989     -126.96873    
    100000   304.4704       383.0348       18526.25       19344.917     -279.62113    
    110000   292.28938      392.30185      18552.372      19362.878      124.18148    
    120000   318.14175      390.01053      18535.814      19381.018      117.39259    
    130000   320.88908      374.47302      18536.291      19369.888     -221.09238    
    140000   287.95931      372.01014      18533.643      19317.662     -425.9699     
Loop time of 16.2927 on 64 procs for 50000 steps with 481 atoms

Performance: 13.257 ns/day, 1.810 hours/ns, 3068.854 timesteps/s, 1.476 Matom-step/s
100.0% CPU use with 64 MPI tasks x 1 OpenMP threads

MPI task timing breakdown:
Section |  min time  |  avg time  |  max time  |%varavg| %total
---------------------------------------------------------------
Pair    | 0.017245   | 0.65798    | 4.4194     | 138.7 |  4.04
Bond    | 0.005363   | 0.79132    | 3.9504     | 146.8 |  4.86
Neigh   | 0.033342   | 0.03853    | 0.041893   |   1.0 |  0.24
Comm    | 6.59       | 12.321     | 14.861     |  78.1 | 75.62
Output  | 0.0077049  | 0.015479   | 0.02324    |   4.0 |  0.10
Modify  | 0.61356    | 1.8496     | 7.9014     | 166.1 | 11.35
Other   |            | 0.6189     |            |       |  3.80

Nlocal:        7.51562 ave          36 max           0 min
Histogram: 43 4 1 0 0 2 3 5 4 2
Nghost:        1815.92 ave        2398 max        1293 min
Histogram: 16 0 0 0 32 0 0 0 0 16
Neighs:              0 ave           0 max           0 min
Histogram: 64 0 0 0 0 0 0 0 0 0

Total # of neighbors = 0
Ave neighs/atom = 0
Ave special neighs/atom = 15.567568
Neighbor list builds = 86
Dangerous builds = 0
Generated 0 of 1 mixed pair_coeff terms from geometric mixing rule
Setting up Verlet run ...
  Unit style    : real
  Current step  : 140000
  Time step     : 0.05
Per MPI rank memory allocation (min/avg/max) = 13.32 | 13.62 | 14.95 Mbytes
   Step          Temp          E_pair         E_mol          TotEng         Press     
    140000   287.95931      372.01014      18533.643      19317.662     -425.9699     
    150000   302.39261      391.50154      18515.167      19339.328      111.82544    
Loop time of 3.18931 on 64 procs for 10000 steps with 481 atoms

Performance: 13.545 ns/day, 1.772 hours/ns, 3135.478 timesteps/s, 1.508 Matom-step/s
100.0% CPU use with 64 MPI tasks x 1 OpenMP threads

MPI task timing breakdown:
Section |  min time  |  avg time  |  max time  |%varavg| %total
---------------------------------------------------------------
Pair    | 0.003322   | 0.13145    | 0.93897    |  62.8 |  4.12
Bond    | 0.0010701  | 0.15787    | 0.84091    |  65.9 |  4.95
Neigh   | 0.0045624  | 0.0052523  | 0.0056766  |   0.4 |  0.16
Comm    | 1.1629     | 2.4145     | 2.9104     |  34.6 | 75.71
Output  | 0.0014932  | 0.0029882  | 0.0044985  |   1.7 |  0.09
Modify  | 0.11943    | 0.35399    | 1.4849     |  72.3 | 11.10
Other   |            | 0.1233     |            |       |  3.86

Nlocal:        7.51562 ave          34 max           0 min
Histogram: 41 6 1 0 0 1 4 3 2 6
Nghost:        1824.45 ave        2416 max        1290 min
Histogram: 16 0 0 0 32 0 0 0 0 16
Neighs:              0 ave           0 max           0 min
Histogram: 64 0 0 0 0 0 0 0 0 0

Total # of neighbors = 0
Ave neighs/atom = 0
Ave special neighs/atom = 15.567568
Neighbor list builds = 12
Dangerous builds = 0
Generated 0 of 1 mixed pair_coeff terms from geometric mixing rule
Setting up Verlet run ...
  Unit style    : real
  Current step  : 150000
  Time step     : 0.05
Per MPI rank memory allocation (min/avg/max) = 13.32 | 13.62 | 14.95 Mbytes
   Step          Temp          E_pair         E_mol          TotEng         Press     
    150000   302.39261      391.50154      18515.167      19339.328      111.82544    
    160000   301.78685      387.8574       18539.15       19358.801     -53.25355     
    170000   304.49525      393.65396      18532.438      19361.761      138.41872    
    180000   295.79585      379.14872      18515.698      19318.068     -220.34509    
    190000   285.10311      387.91429      18520.84       19316.676     -115.11298    
    200000   298.37588      389.23963      18523.899      19340.052     -37.652502    
Loop time of 16.0517 on 64 procs for 50000 steps with 481 atoms

Performance: 13.457 ns/day, 1.784 hours/ns, 3114.932 timesteps/s, 1.498 Matom-step/s
100.0% CPU use with 64 MPI tasks x 1 OpenMP threads

MPI task timing breakdown:
Section |  min time  |  avg time  |  max time  |%varavg| %total
---------------------------------------------------------------
Pair    | 0.017299   | 0.66035    | 4.4643     | 139.1 |  4.11
Bond    | 0.0053874  | 0.79352    | 4.0937     | 147.3 |  4.94
Neigh   | 0.017237   | 0.019873   | 0.021598   |   0.8 |  0.12
Comm    | 6.0995     | 12.126     | 14.624     |  77.2 | 75.54
Output  | 0.0075649  | 0.014821   | 0.022018   |   3.8 |  0.09
Modify  | 0.6336     | 1.8188     | 7.6108     | 159.3 | 11.33
Other   |            | 0.6186     |            |       |  3.85

Nlocal:        7.51562 ave          39 max           0 min
Histogram: 42 5 1 0 1 6 2 3 2 2
Nghost:        1823.23 ave        2414 max        1285 min
Histogram: 16 0 0 0 32 0 0 0 0 16
Neighs:              0 ave           0 max           0 min
Histogram: 64 0 0 0 0 0 0 0 0 0

Total # of neighbors = 0
Ave neighs/atom = 0
Ave special neighs/atom = 15.567568
Neighbor list builds = 45
Dangerous builds = 0
Generated 0 of 1 mixed pair_coeff terms from geometric mixing rule
Setting up Verlet run ...
  Unit style    : real
  Current step  : 200000
  Time step     : 0.05
Per MPI rank memory allocation (min/avg/max) = 13.32 | 13.62 | 14.95 Mbytes
   Step          Temp          E_pair         E_mol          TotEng         Press     
    200000   298.37588      389.23963      18523.899      19340.052     -37.652502    
    210000   307.43845      390.75098      18543.112      19373.743      76.266674    
Loop time of 3.13968 on 64 procs for 10000 steps with 481 atoms

Performance: 13.759 ns/day, 1.744 hours/ns, 3185.035 timesteps/s, 1.532 Matom-step/s
100.0% CPU use with 64 MPI tasks x 1 OpenMP threads

MPI task timing breakdown:
Section |  min time  |  avg time  |  max time  |%varavg| %total
---------------------------------------------------------------
Pair    | 0.0034114  | 0.13236    | 0.88368    |  62.0 |  4.22
Bond    | 0.0010581  | 0.15884    | 0.79048    |  65.9 |  5.06
Neigh   | 0.0034151  | 0.0039594  | 0.004306   |   0.3 |  0.13
Comm    | 1.2092     | 2.3574     | 2.8532     |  34.4 | 75.08
Output  | 0.0014844  | 0.0029266  | 0.0044095  |   1.7 |  0.09
Modify  | 0.11805    | 0.36046    | 1.4861     |  69.3 | 11.48
Other   |            | 0.1238     |            |       |  3.94

Nlocal:        7.51562 ave          39 max           0 min
Histogram: 41 7 0 0 2 6 0 4 1 3
Nghost:        1819.77 ave        2415 max        1285 min
Histogram: 16 0 0 0 32 0 0 0 0 16
Neighs:              0 ave           0 max           0 min
Histogram: 64 0 0 0 0 0 0 0 0 0

Total # of neighbors = 0
Ave neighs/atom = 0
Ave special neighs/atom = 15.567568
Neighbor list builds = 9
Dangerous builds = 0
Generated 0 of 1 mixed pair_coeff terms from geometric mixing rule
Setting up Verlet run ...
  Unit style    : real
  Current step  : 210000
  Time step     : 0.05
Per MPI rank memory allocation (min/avg/max) = 13.32 | 13.62 | 14.95 Mbytes
   Step          Temp          E_pair         E_mol          TotEng         Press     
    210000   307.43845      390.75098      18543.112      19373.743      76.266674    
    220000   309.26989      395.63061      18528.528      19366.658      167.21755    
    230000   300.4269       381.09752      18540.274      19351.219     -115.19474    
    240000   296.09226      383.66162      18542.344      19349.651     -7.3219985    
    250000   278.18942      382.30917      18505.746      19286.085     -99.109521    
    260000   326.87786      387.83026      18505.697      19361.22       47.692184    
Loop time of 16.0498 on 64 procs for 50000 steps with 481 atoms

Performance: 13.458 ns/day, 1.783 hours/ns, 3115.296 timesteps/s, 1.498 Matom-step/s
100.0% CPU use with 64 MPI tasks x 1 OpenMP threads

MPI task timing breakdown:
Section |  min time  |  avg time  |  max time  |%varavg| %total
---------------------------------------------------------------
Pair    | 0.017328   | 0.66389    | 4.5078     | 140.0 |  4.14
Bond    | 0.0052968  | 0.79395    | 3.9386     | 147.1 |  4.95
Neigh   | 0.026257   | 0.030525   | 0.033214   |   0.9 |  0.19
Comm    | 6.1937     | 12.118     | 14.623     |  77.8 | 75.51
Output  | 0.0076232  | 0.014867   | 0.02198    |   3.8 |  0.09
Modify  | 0.62539    | 1.8088     | 7.7066     | 161.0 | 11.27
Other   |            | 0.6194     |            |       |  3.86

Nlocal:        7.51562 ave          32 max           0 min
Histogram: 40 8 0 0 0 0 1 4 4 7
Nghost:        1823.23 ave        2415 max        1292 min
Histogram: 16 0 0 0 32 0 0 0 0 16
Neighs:              0 ave           0 max           0 min
Histogram: 64 0 0 0 0 0 0 0 0 0

Total # of neighbors = 0
Ave neighs/atom = 0
Ave special neighs/atom = 15.567568
Neighbor list builds = 69
Dangerous builds = 0
Generated 0 of 1 mixed pair_coeff terms from geometric mixing rule
Setting up Verlet run ...
  Unit style    : real
  Current step  : 260000
  Time step     : 0.05
Per MPI rank memory allocation (min/avg/max) = 13.32 | 13.62 | 14.95 Mbytes
   Step          Temp          E_pair         E_mol          TotEng         Press     
    260000   326.87786      387.83026      18505.697      19361.22       47.692184    
    270000   298.63831      380.59442      18548.666      19356.549     -383.9189     
Loop time of 3.23284 on 64 procs for 10000 steps with 481 atoms

Performance: 13.363 ns/day, 1.796 hours/ns, 3093.251 timesteps/s, 1.488 Matom-step/s
100.0% CPU use with 64 MPI tasks x 1 OpenMP threads

MPI task timing breakdown:
Section |  min time  |  avg time  |  max time  |%varavg| %total
---------------------------------------------------------------
Pair    | 0.0032129  | 0.13322    | 0.921      |  63.0 |  4.12
Bond    | 0.0010609  | 0.15965    | 0.817      |  66.3 |  4.94
Neigh   | 0.0078223  | 0.0090135  | 0.0098147  |   0.5 |  0.28
Comm    | 1.211      | 2.4389     | 2.9469     |  35.1 | 75.44
Output  | 0.0014867  | 0.0028898  | 0.0043097  |   1.7 |  0.09
Modify  | 0.12074    | 0.36594    | 1.5689     |  73.2 | 11.32
Other   |            | 0.1233     |            |       |  3.81

Nlocal:        7.51562 ave          35 max           0 min
Histogram: 41 6 1 0 0 0 3 5 7 1
Nghost:        1820.98 ave        2415 max        1289 min
Histogram: 16 0 0 0 32 0 0 0 0 16
Neighs:              0 ave           0 max           0 min
Histogram: 64 0 0 0 0 0 0 0 0 0

Total # of neighbors = 0
Ave neighs/atom = 0
Ave special neighs/atom = 15.567568
Neighbor list builds = 20
Dangerous builds = 0
Generated 0 of 1 mixed pair_coeff terms from geometric mixing rule
Setting up Verlet run ...
  Unit style    : real
  Current step  : 270000
  Time step     : 0.05
Per MPI rank memory allocation (min/avg/max) = 13.32 | 13.62 | 14.95 Mbytes
   Step          Temp          E_pair         E_mol          TotEng         Press     
    270000   298.63831      380.59442      18548.666      19356.549     -383.9189     
    280000   293.97098      387.76442      18487.159      19295.534     -2.5571593    
    290000   289.15261      386.20434      18504.726      19304.647     -158.30039    
    300000   304.7507       380.54669      18513.432      19330.013     -280.25813    
    310000   298.95767      387.8443       18538.542      19354.132      18.519209    
    320000   298.02948      393.17793      18530.586      19350.182      176.28       
Loop time of 16.7788 on 64 procs for 50000 steps with 481 atoms

Performance: 12.873 ns/day, 1.864 hours/ns, 2979.959 timesteps/s, 1.433 Matom-step/s
100.0% CPU use with 64 MPI tasks x 1 OpenMP threads

MPI task timing breakdown:
Section |  min time  |  avg time  |  max time  |%varavg| %total
---------------------------------------------------------------
Pair    | 0.017752   | 0.67108    | 4.5395     | 141.7 |  4.00
Bond    | 0.005455   | 0.79996    | 4.0537     | 148.5 |  4.77
Neigh   | 0.041461   | 0.047679   | 0.051264   |   1.1 |  0.28
Comm    | 6.7292     | 12.697     | 15.331     |  80.4 | 75.67
Output  | 0.007626   | 0.014745   | 0.02174    |   3.7 |  0.09
Modify  | 0.63884    | 1.9311     | 8.448      | 172.1 | 11.51
Other   |            | 0.6169     |            |       |  3.68

Nlocal:        7.51562 ave          37 max           0 min
Histogram: 42 5 1 0 1 2 1 5 5 2
Nghost:        1823.98 ave        2420 max        1294 min
Histogram: 16 0 0 0 32 0 0 0 0 16
Neighs:              0 ave           0 max           0 min
Histogram: 64 0 0 0 0 0 0 0 0 0

Total # of neighbors = 0
Ave neighs/atom = 0
Ave special neighs/atom = 15.567568
Neighbor list builds = 102
Dangerous builds = 0
Generated 0 of 1 mixed pair_coeff terms from geometric mixing rule
Setting up Verlet run ...
  Unit style    : real
  Current step  : 320000
  Time step     : 0.05
Per MPI rank memory allocation (min/avg/max) = 13.32 | 13.62 | 14.95 Mbytes
   Step          Temp          E_pair         E_mol          TotEng         Press     
    320000   298.02948      393.17793      18530.586      19350.182      176.28       
    330000   300.27141      385.89528      18527.178      19342.699     -33.94338     
Loop time of 3.3607 on 64 procs for 10000 steps with 481 atoms

Performance: 12.854 ns/day, 1.867 hours/ns, 2975.574 timesteps/s, 1.431 Matom-step/s
100.0% CPU use with 64 MPI tasks x 1 OpenMP threads

MPI task timing breakdown:
Section |  min time  |  avg time  |  max time  |%varavg| %total
---------------------------------------------------------------
Pair    | 0.003515   | 0.13419    | 0.90734    |  63.9 |  3.99
Bond    | 0.0010737  | 0.1593     | 0.81114    |  66.2 |  4.74
Neigh   | 0.0089626  | 0.010253   | 0.010954   |   0.5 |  0.31
Comm    | 1.3708     | 2.5486     | 3.0742     |  35.9 | 75.83
Output  | 0.0015086  | 0.0029234  | 0.0043424  |   1.6 |  0.09
Modify  | 0.1246     | 0.38117    | 1.6888     |  77.3 | 11.34
Other   |            | 0.1243     |            |       |  3.70

Nlocal:        7.51562 ave          36 max           0 min
Histogram: 43 5 0 0 0 4 3 1 5 3
Nghost:        1822.77 ave        2415 max        1288 min
Histogram: 16 0 0 0 32 0 0 0 0 16
Neighs:              0 ave           0 max           0 min
Histogram: 64 0 0 0 0 0 0 0 0 0

Total # of neighbors = 0
Ave neighs/atom = 0
Ave special neighs/atom = 15.567568
Neighbor list builds = 22
Dangerous builds = 0
Generated 0 of 1 mixed pair_coeff terms from geometric mixing rule
Setting up Verlet run ...
  Unit style    : real
  Current step  : 330000
  Time step     : 0.05
Per MPI rank memory allocation (min/avg/max) = 13.32 | 13.62 | 14.95 Mbytes
   Step          Temp          E_pair         E_mol          TotEng         Press     
    330000   300.27141      385.89528      18527.178      19342.699     -33.94338     
    340000   282.23208      388.83378      18479.647      19272.295      92.809901    
    350000   304.12741      387.31448      18515.411      19337.867     -63.888972    
    360000   299.2924       379.06831      18543.906      19351.198     -183.09911    
    370000   315.58319      392.65617      18523.414      19367.603      141.47278    
    380000   309.94514      381.16523      18520.62       19345.251     -151.64889    
Loop time of 16.9975 on 64 procs for 50000 steps with 481 atoms

Performance: 12.708 ns/day, 1.889 hours/ns, 2941.611 timesteps/s, 1.415 Matom-step/s
100.0% CPU use with 64 MPI tasks x 1 OpenMP threads

MPI task timing breakdown:
Section |  min time  |  avg time  |  max time  |%varavg| %total
---------------------------------------------------------------
Pair    | 0.017483   | 0.67256    | 4.623      | 141.7 |  3.96
Bond    | 0.0053744  | 0.79964    | 4.1605     | 148.1 |  4.70
Neigh   | 0.031259   | 0.035788   | 0.038449   |   0.9 |  0.21
Comm    | 6.8975     | 12.892     | 15.556     |  80.6 | 75.85
Output  | 0.0076351  | 0.014717   | 0.021708   |   3.7 |  0.09
Modify  | 0.63861    | 1.9666     | 8.6832     | 175.9 | 11.57
Other   |            | 0.6162     |            |       |  3.63

Nlocal:        7.51562 ave          36 max           0 min
Histogram: 41 7 0 0 0 0 5 6 3 2
Nghost:        1822.77 ave        2419 max        1288 min
Histogram: 16 0 0 0 32 0 0 0 0 16
Neighs:              0 ave           0 max           0 min
Histogram: 64 0 0 0 0 0 0 0 0 0

Total # of neighbors = 0
Ave neighs/atom = 0
Ave special neighs/atom = 15.567568
Neighbor list builds = 76
Dangerous builds = 0
Generated 0 of 1 mixed pair_coeff terms from geometric mixing rule
Setting up Verlet run ...
  Unit style    : real
  Current step  : 380000
  Time step     : 0.05
Per MPI rank memory allocation (min/avg/max) = 13.32 | 13.62 | 14.95 Mbytes
   Step          Temp          E_pair         E_mol          TotEng         Press     
    380000   309.94514      381.16523      18520.62       19345.251     -151.64889    
    390000   305.79544      385.49147      18512.32       19335.341     -36.338939    
Loop time of 3.19321 on 64 procs for 10000 steps with 481 atoms

Performance: 13.529 ns/day, 1.774 hours/ns, 3131.641 timesteps/s, 1.506 Matom-step/s
100.0% CPU use with 64 MPI tasks x 1 OpenMP threads

MPI task timing breakdown:
Section |  min time  |  avg time  |  max time  |%varavg| %total
---------------------------------------------------------------
Pair    | 0.0034456  | 0.13138    | 0.89614    |  61.8 |  4.11
Bond    | 0.0010564  | 0.15753    | 0.79732    |  65.1 |  4.93
Neigh   | 0.0037169  | 0.0043654  | 0.0046922  |   0.4 |  0.14
Comm    | 1.2311     | 2.4052     | 2.9056     |  34.2 | 75.32
Output  | 0.0015367  | 0.0029332  | 0.0043337  |   1.6 |  0.09
Modify  | 0.12884    | 0.36661    | 1.5276     |  70.6 | 11.48
Other   |            | 0.1252     |            |       |  3.92

Nlocal:        7.51562 ave          34 max           0 min
Histogram: 40 8 0 0 0 0 5 3 2 6
Nghost:        1817.61 ave        2406 max        1290 min
Histogram: 16 0 0 0 32 0 0 0 0 16
Neighs:              0 ave           0 max           0 min
Histogram: 64 0 0 0 0 0 0 0 0 0

Total # of neighbors = 0
Ave neighs/atom = 0
Ave special neighs/atom = 15.567568
Neighbor list builds = 10
Dangerous builds = 0
Generated 0 of 1 mixed pair_coeff terms from geometric mixing rule
Setting up Verlet run ...
  Unit style    : real
  Current step  : 390000
  Time step     : 0.05
Per MPI rank memory allocation (min/avg/max) = 13.32 | 13.62 | 14.95 Mbytes
   Step          Temp          E_pair         E_mol          TotEng         Press     
    390000   305.79544      385.49147      18512.32       19335.341     -36.338939    
    400000   299.20204      393.74037      18542.44       19364.276      193.39182    
    410000   312.17041      388.07548      18528.775      19363.501     -18.595072    
    420000   291.31624      384.3527       18556.597      19357.761     -232.2325     
    430000   283.90452      380.69219      18510.871      19297.771     -192.32097    
    440000   288.48812      383.55479      18557.607      19353.927     -203.72243    
Loop time of 16.163 on 64 procs for 50000 steps with 481 atoms

Performance: 13.364 ns/day, 1.796 hours/ns, 3093.486 timesteps/s, 1.488 Matom-step/s
100.0% CPU use with 64 MPI tasks x 1 OpenMP threads

MPI task timing breakdown:
Section |  min time  |  avg time  |  max time  |%varavg| %total
---------------------------------------------------------------
Pair    | 0.017439   | 0.66211    | 4.3717     | 138.6 |  4.10
Bond    | 0.0053048  | 0.79151    | 3.8506     | 146.1 |  4.90
Neigh   | 0.019853   | 0.022958   | 0.024909   |   0.8 |  0.14
Comm    | 6.5573     | 12.222     | 14.765     |  77.4 | 75.62
Output  | 0.0075681  | 0.014602   | 0.021525   |   3.7 |  0.09
Modify  | 0.61229    | 1.8308     | 7.8404     | 163.7 | 11.33
Other   |            | 0.6186     |            |       |  3.83

Nlocal:        7.51562 ave          33 max           0 min
Histogram: 41 6 1 0 0 2 1 3 4 6
Nghost:        1820.52 ave        2408 max        1291 min
Histogram: 16 0 0 0 32 0 0 0 0 16
Neighs:              0 ave           0 max           0 min
Histogram: 64 0 0 0 0 0 0 0 0 0

Total # of neighbors = 0
Ave neighs/atom = 0
Ave special neighs/atom = 15.567568
Neighbor list builds = 51
Dangerous builds = 0
Generated 0 of 1 mixed pair_coeff terms from geometric mixing rule
Setting up Verlet run ...
  Unit style    : real
  Current step  : 440000
  Time step     : 0.05
Per MPI rank memory allocation (min/avg/max) = 13.32 | 13.62 | 14.95 Mbytes
   Step          Temp          E_pair         E_mol          TotEng         Press     
    440000   288.48812      383.55479      18557.607      19353.927     -203.72243    
    450000   318.81886      384.17466      18524.59       19364.927     -37.659976    
Loop time of 3.36382 on 64 procs for 10000 steps with 481 atoms

Performance: 12.843 ns/day, 1.869 hours/ns, 2972.810 timesteps/s, 1.430 Matom-step/s
100.0% CPU use with 64 MPI tasks x 1 OpenMP threads

MPI task timing breakdown:
Section |  min time  |  avg time  |  max time  |%varavg| %total
---------------------------------------------------------------
Pair    | 0.0034798  | 0.1337     | 0.924      |  62.9 |  3.97
Bond    | 0.0010563  | 0.1596     | 0.8445     |  66.0 |  4.74
Neigh   | 0.0065334  | 0.0075216  | 0.0081257  |   0.4 |  0.22
Comm    | 1.3204     | 2.5533     | 3.082      |  36.0 | 75.90
Output  | 0.0015483  | 0.0029438  | 0.0043574  |   1.6 |  0.09
Modify  | 0.12151    | 0.38335    | 1.7003     |  78.9 | 11.40
Other   |            | 0.1234     |            |       |  3.67

Nlocal:        7.51562 ave          38 max           0 min
Histogram: 44 3 1 0 0 3 4 4 4 1
Nghost:        1818.83 ave        2408 max        1287 min
Histogram: 16 0 0 0 32 0 0 0 0 16
Neighs:              0 ave           0 max           0 min
Histogram: 64 0 0 0 0 0 0 0 0 0

Total # of neighbors = 0
Ave neighs/atom = 0
Ave special neighs/atom = 15.567568
Neighbor list builds = 16
Dangerous builds = 0
Generated 0 of 1 mixed pair_coeff terms from geometric mixing rule
Setting up Verlet run ...
  Unit style    : real
  Current step  : 450000
  Time step     : 0.05
Per MPI rank memory allocation (min/avg/max) = 13.32 | 13.62 | 14.95 Mbytes
   Step          Temp          E_pair         E_mol          TotEng         Press     
    450000   318.81886      384.17466      18524.59       19364.927     -37.659976    
    460000   306.30109      379.52614      18522.262      19340.041     -248.66418    
    470000   302.5105       390.74691      18527.267      19350.843      50.106795    
    480000   323.03708      391.02406      18523.252      19376.474      65.195977    
    490000   305.80616      385.57855      18539.748      19362.871     -219.13737    
    500000   307.04174      387.67231      18528.214      19355.198      16.376257    
Loop time of 16.6361 on 64 procs for 50000 steps with 481 atoms

Performance: 12.984 ns/day, 1.848 hours/ns, 3005.507 timesteps/s, 1.446 Matom-step/s
100.0% CPU use with 64 MPI tasks x 1 OpenMP threads

MPI task timing breakdown:
Section |  min time  |  avg time  |  max time  |%varavg| %total
---------------------------------------------------------------
Pair    | 0.016986   | 0.6688     | 4.4794     | 140.5 |  4.02
Bond    | 0.0053221  | 0.79989    | 3.9981     | 147.8 |  4.81
Neigh   | 0.029528   | 0.034046   | 0.036826   |   0.9 |  0.20
Comm    | 6.7529     | 12.603     | 15.214     |  79.6 | 75.76
Output  | 0.0076583  | 0.014815   | 0.021833   |   3.7 |  0.09
Modify  | 0.61913    | 1.9006     | 8.3232     | 171.2 | 11.42
Other   |            | 0.6152     |            |       |  3.70

Nlocal:        7.51562 ave          33 max           0 min
Histogram: 42 5 1 0 0 0 2 5 5 4
Nghost:         1823.7 ave        2419 max        1291 min
Histogram: 16 0 0 0 32 0 0 0 0 16
Neighs:              0 ave           0 max           0 min
Histogram: 64 0 0 0 0 0 0 0 0 0

Total # of neighbors = 0
Ave neighs/atom = 0
Ave special neighs/atom = 15.567568
Neighbor list builds = 74
Dangerous builds = 0
Generated 0 of 1 mixed pair_coeff terms from geometric mixing rule
Setting up Verlet run ...
  Unit style    : real
  Current step  : 500000
  Time step     : 0.05
Per MPI rank memory allocation (min/avg/max) = 13.32 | 13.62 | 14.95 Mbytes
   Step          Temp          E_pair         E_mol          TotEng         Press     
    500000   307.04174      387.67231      18528.214      19355.198      16.376257    
    510000   285.48077      383.28205      18491.276      19283.021     -44.72972     
Loop time of 3.3534 on 64 procs for 10000 steps with 481 atoms

Performance: 12.882 ns/day, 1.863 hours/ns, 2982.052 timesteps/s, 1.434 Matom-step/s
100.0% CPU use with 64 MPI tasks x 1 OpenMP threads

MPI task timing breakdown:
Section |  min time  |  avg time  |  max time  |%varavg| %total
---------------------------------------------------------------
Pair    | 0.0034827  | 0.13339    | 0.91235    |  62.6 |  3.98
Bond    | 0.0010709  | 0.16031    | 0.80726    |  66.4 |  4.78
Neigh   | 0.0076364  | 0.0088981  | 0.0095923  |   0.5 |  0.27
Comm    | 1.3441     | 2.5357     | 3.0566     |  35.6 | 75.62
Output  | 0.0015679  | 0.0029612  | 0.004377   |   1.6 |  0.09
Modify  | 0.13227    | 0.38833    | 1.682      |  76.4 | 11.58
Other   |            | 0.1238     |            |       |  3.69

Nlocal:        7.51562 ave          36 max           0 min
Histogram: 42 5 1 0 0 2 4 4 3 3
Nghost:        1816.77 ave        2404 max        1290 min
Histogram: 16 0 0 0 32 0 0 0 0 16
Neighs:              0 ave           0 max           0 min
Histogram: 64 0 0 0 0 0 0 0 0 0

Total # of neighbors = 0
Ave neighs/atom = 0
Ave special neighs/atom = 15.567568
Neighbor list builds = 19
Dangerous builds = 0
Generated 0 of 1 mixed pair_coeff terms from geometric mixing rule
Setting up Verlet run ...
  Unit style    : real
  Current step  : 510000
  Time step     : 0.05
Per MPI rank memory allocation (min/avg/max) = 13.32 | 13.62 | 14.95 Mbytes
   Step          Temp          E_pair         E_mol          TotEng         Press     
    510000   285.48077      383.28205      18491.276      19283.021     -44.72972     
    520000   314.57076      374.64685      18540.731      19365.462     -242.36761    
    530000   321.78402      385.03717      18527.464      19372.906      44.840372    
    540000   305.098        395.32359      18561.71       19393.564      226.13233    
    550000   307.33403      382.98813      18543.266      19365.984     -182.40048    
    560000   291.04358      386.72327      18542.065      19345.21      -47.836742    
Loop time of 16.8821 on 64 procs for 50000 steps with 481 atoms

Performance: 12.795 ns/day, 1.876 hours/ns, 2961.722 timesteps/s, 1.425 Matom-step/s
100.0% CPU use with 64 MPI tasks x 1 OpenMP threads

MPI task timing breakdown:
Section |  min time  |  avg time  |  max time  |%varavg| %total
---------------------------------------------------------------
Pair    | 0.017497   | 0.66447    | 4.5803     | 140.5 |  3.94
Bond    | 0.0053808  | 0.79662    | 4.0601     | 147.6 |  4.72
Neigh   | 0.054915   | 0.063127   | 0.068047   |   1.2 |  0.37
Comm    | 6.8018     | 12.765     | 15.431     |  80.3 | 75.62
Output  | 0.0077246  | 0.014845   | 0.021861   |   3.7 |  0.09
Modify  | 0.6129     | 1.9612     | 8.4432     | 174.7 | 11.62
Other   |            | 0.6164     |            |       |  3.65

Nlocal:        7.51562 ave          35 max           0 min
Histogram: 42 4 2 0 0 1 5 2 4 4
Nghost:        1821.08 ave        2418 max        1291 min
Histogram: 16 0 0 0 32 0 0 0 0 16
Neighs:              0 ave           0 max           0 min
Histogram: 64 0 0 0 0 0 0 0 0 0

Total # of neighbors = 0
Ave neighs/atom = 0
Ave special neighs/atom = 15.567568
Neighbor list builds = 134
Dangerous builds = 0
Generated 0 of 1 mixed pair_coeff terms from geometric mixing rule
Setting up Verlet run ...
  Unit style    : real
  Current step  : 560000
  Time step     : 0.05
Per MPI rank memory allocation (min/avg/max) = 13.32 | 13.62 | 14.95 Mbytes
   Step          Temp          E_pair         E_mol          TotEng         Press     
    560000   291.04358      386.72327      18542.065      19345.21      -47.836742    
    570000   312.27991      382.37561      18545.722      19374.904     -171.96998    
Loop time of 3.38271 on 64 procs for 10000 steps with 481 atoms

Performance: 12.771 ns/day, 1.879 hours/ns, 2956.214 timesteps/s, 1.422 Matom-step/s
100.0% CPU use with 64 MPI tasks x 1 OpenMP threads

MPI task timing breakdown:
Section |  min time  |  avg time  |  max time  |%varavg| %total
---------------------------------------------------------------
Pair    | 0.0035307  | 0.13294    | 0.9095     |  63.0 |  3.93
Bond    | 0.0010481  | 0.15939    | 0.79494    |  66.0 |  4.71
Neigh   | 0.01014    | 0.011764   | 0.012801   |   0.6 |  0.35
Comm    | 1.383      | 2.5563     | 3.09       |  36.0 | 75.57
Output  | 0.0015294  | 0.0029255  | 0.0043348  |   1.6 |  0.09
Modify  | 0.12322    | 0.39295    | 1.706      |  78.4 | 11.62
Other   |            | 0.1264     |            |       |  3.74

Nlocal:        7.51562 ave          36 max           0 min
Histogram: 42 6 0 0 1 4 2 2 2 5
Nghost:         1825.2 ave        2419 max        1288 min
Histogram: 16 0 0 0 32 0 0 0 0 16
Neighs:              0 ave           0 max           0 min
Histogram: 64 0 0 0 0 0 0 0 0 0

Total # of neighbors = 0
Ave neighs/atom = 0
Ave special neighs/atom = 15.567568
Neighbor list builds = 26
Dangerous builds = 0
Generated 0 of 1 mixed pair_coeff terms from geometric mixing rule
Setting up Verlet run ...
  Unit style    : real
  Current step  : 570000
  Time step     : 0.05
Per MPI rank memory allocation (min/avg/max) = 13.32 | 13.62 | 14.95 Mbytes
   Step          Temp          E_pair         E_mol          TotEng         Press     
    570000   312.27991      382.37561      18545.722      19374.904     -171.96998    
    580000   318.6263       387.16556      18528.399      19371.452     -211.03961    
    590000   288.82365      393.4548       18521.355      19328.056      69.920163    
    600000   302.9592       386.24576      18525.494      19345.211     -109.805      
    610000   313.56878      387.21338      18556.633      19392.497      71.247028    
    620000   301.75817      387.32437      18547.773      19366.85       114.42859    
Loop time of 16.7137 on 64 procs for 50000 steps with 481 atoms

Performance: 12.924 ns/day, 1.857 hours/ns, 2991.555 timesteps/s, 1.439 Matom-step/s
100.0% CPU use with 64 MPI tasks x 1 OpenMP threads

MPI task timing breakdown:
Section |  min time  |  avg time  |  max time  |%varavg| %total
---------------------------------------------------------------
Pair    | 0.01745    | 0.66541    | 4.4892     | 140.7 |  3.98
Bond    | 0.0052569  | 0.7946     | 4.0592     | 147.5 |  4.75
Neigh   | 0.067094   | 0.077575   | 0.084241   |   1.4 |  0.46
Comm    | 6.8056     | 12.621     | 15.228     |  79.4 | 75.51
Output  | 0.0076833  | 0.014884   | 0.02194    |   3.7 |  0.09
Modify  | 0.63649    | 1.9189     | 8.2625     | 171.1 | 11.48
Other   |            | 0.6214     |            |       |  3.72

Nlocal:        7.51562 ave          37 max           0 min
Histogram: 41 6 1 0 0 4 1 5 4 2
Nghost:        1822.66 ave        2409 max        1288 min
Histogram: 16 0 0 0 32 0 0 0 0 16
Neighs:              0 ave           0 max           0 min
Histogram: 64 0 0 0 0 0 0 0 0 0

Total # of neighbors = 0
Ave neighs/atom = 0
Ave special neighs/atom = 15.567568
Neighbor list builds = 171
Dangerous builds = 0
Generated 0 of 1 mixed pair_coeff terms from geometric mixing rule
Setting up Verlet run ...
  Unit style    : real
  Current step  : 620000
  Time step     : 0.05
Per MPI rank memory allocation (min/avg/max) = 13.32 | 13.62 | 14.95 Mbytes
   Step          Temp          E_pair         E_mol          TotEng         Press     
    620000   301.75817      387.32437      18547.773      19366.85       114.42859    
    630000   290.25961      383.30144      18543.659      19342.26      -271.117      
Loop time of 3.34087 on 64 procs for 10000 steps with 481 atoms

Performance: 12.931 ns/day, 1.856 hours/ns, 2993.230 timesteps/s, 1.440 Matom-step/s
100.0% CPU use with 64 MPI tasks x 1 OpenMP threads

MPI task timing breakdown:
Section |  min time  |  avg time  |  max time  |%varavg| %total
---------------------------------------------------------------
Pair    | 0.0034262  | 0.13365    | 0.9056     |  63.6 |  4.00
Bond    | 0.0010483  | 0.15841    | 0.84168    |  66.2 |  4.74
Neigh   | 0.012295   | 0.014296   | 0.015449   |   0.6 |  0.43
Comm    | 1.3389     | 2.5238     | 3.0503     |  35.8 | 75.54
Output  | 0.0015365  | 0.0029784  | 0.0044301  |   1.7 |  0.09
Modify  | 0.12088    | 0.38346    | 1.6638     |  76.7 | 11.48
Other   |            | 0.1243     |            |       |  3.72

Nlocal:        7.51562 ave          39 max           0 min
Histogram: 43 2 3 0 2 1 5 5 2 1
Nghost:         1816.2 ave        2397 max        1286 min
Histogram: 16 0 0 0 32 0 0 0 0 16
Neighs:              0 ave           0 max           0 min
Histogram: 64 0 0 0 0 0 0 0 0 0

Total # of neighbors = 0
Ave neighs/atom = 0
Ave special neighs/atom = 15.567568
Neighbor list builds = 31
Dangerous builds = 0
Generated 0 of 1 mixed pair_coeff terms from geometric mixing rule
Setting up Verlet run ...
  Unit style    : real
  Current step  : 630000
  Time step     : 0.05
Per MPI rank memory allocation (min/avg/max) = 13.32 | 13.62 | 14.95 Mbytes
   Step          Temp          E_pair         E_mol          TotEng         Press     
    630000   290.25961      383.30144      18543.659      19342.26      -271.117      
    640000   292.4306       389.51174      18522.907      19330.825      64.674479    
    650000   285.83404      383.53154      18523.025      19315.524     -197.4389     
    660000   290.76688      383.37393      18504.348      19303.748     -138.72396    
    670000   301.77859      389.26797      18530.445      19351.494     -36.243832    
    680000   302.51987      388.09893      18540.196      19361.137      61.6442      
Loop time of 16.4264 on 64 procs for 50000 steps with 481 atoms

Performance: 13.150 ns/day, 1.825 hours/ns, 3043.882 timesteps/s, 1.464 Matom-step/s
100.0% CPU use with 64 MPI tasks x 1 OpenMP threads

MPI task timing breakdown:
Section |  min time  |  avg time  |  max time  |%varavg| %total
---------------------------------------------------------------
Pair    | 0.017725   | 0.66321    | 4.3995     | 139.4 |  4.04
Bond    | 0.0053412  | 0.79277    | 4.36       | 147.6 |  4.83
Neigh   | 0.041025   | 0.047498   | 0.051576   |   1.1 |  0.29
Comm    | 6.7497     | 12.402     | 14.988     |  78.4 | 75.50
Output  | 0.0077671  | 0.014911   | 0.021928   |   3.7 |  0.09
Modify  | 0.61118    | 1.8886     | 8.0339     | 167.0 | 11.50
Other   |            | 0.6174     |            |       |  3.76

Nlocal:        7.51562 ave          34 max           0 min
Histogram: 43 2 3 0 0 1 2 5 4 4
Nghost:        1822.77 ave        2416 max        1290 min
Histogram: 16 0 0 0 32 0 0 0 0 16
Neighs:              0 ave           0 max           0 min
Histogram: 64 0 0 0 0 0 0 0 0 0

Total # of neighbors = 0
Ave neighs/atom = 0
Ave special neighs/atom = 15.567568
Neighbor list builds = 104
Dangerous builds = 0
Generated 0 of 1 mixed pair_coeff terms from geometric mixing rule
Setting up Verlet run ...
  Unit style    : real
  Current step  : 680000
  Time step     : 0.05
Per MPI rank memory allocation (min/avg/max) = 13.32 | 13.62 | 14.95 Mbytes
   Step          Temp          E_pair         E_mol          TotEng         Press     
    680000   302.51987      388.09893      18540.196      19361.137      61.6442      
    690000   301.75977      382.21863      18562.495      19376.468     -262.20111    
Loop time of 3.20598 on 64 procs for 10000 steps with 481 atoms

Performance: 13.475 ns/day, 1.781 hours/ns, 3119.173 timesteps/s, 1.500 Matom-step/s
100.0% CPU use with 64 MPI tasks x 1 OpenMP threads

MPI task timing breakdown:
Section |  min time  |  avg time  |  max time  |%varavg| %total
---------------------------------------------------------------
Pair    | 0.0034088  | 0.13288    | 0.8783     |  62.2 |  4.14
Bond    | 0.0010865  | 0.1595     | 0.83614    |  66.3 |  4.98
Neigh   | 0.0059278  | 0.0068698  | 0.0074468  |   0.4 |  0.21
Comm    | 1.255      | 2.4231     | 2.923      |  34.8 | 75.58
Output  | 0.0015004  | 0.0029093  | 0.0043489  |   1.7 |  0.09
Modify  | 0.12513    | 0.35807    | 1.5376     |  72.6 | 11.17
Other   |            | 0.1227     |            |       |  3.83

Nlocal:        7.51562 ave          33 max           0 min
Histogram: 42 5 1 0 0 1 3 3 2 7
Nghost:        1816.39 ave        2399 max        1291 min
Histogram: 16 0 0 0 32 0 0 0 0 16
Neighs:              0 ave           0 max           0 min
Histogram: 64 0 0 0 0 0 0 0 0 0

Total # of neighbors = 0
Ave neighs/atom = 0
Ave special neighs/atom = 15.567568
Neighbor list builds = 15
Dangerous builds = 0
Generated 0 of 1 mixed pair_coeff terms from geometric mixing rule
Setting up Verlet run ...
  Unit style    : real
  Current step  : 690000
  Time step     : 0.05
Per MPI rank memory allocation (min/avg/max) = 13.32 | 13.62 | 14.95 Mbytes
   Step          Temp          E_pair         E_mol          TotEng         Press     
    690000   301.75977      382.21863      18562.495      19376.468     -262.20111    
    700000   311.96464      390.41133      18518.655      19355.422      169.65168    
    710000   291.09213      392.52458      18514.384      19323.4        85.901862    
    720000   296.71439      383.40434      18520.213      19328.153     -152.63738    
    730000   315.39146      374.58419      18579.834      19405.677     -266.57108    
    740000   305.81848      384.29809      18532.82       19354.68      -227.31616    
Loop time of 16.506 on 64 procs for 50000 steps with 481 atoms

Performance: 13.086 ns/day, 1.834 hours/ns, 3029.194 timesteps/s, 1.457 Matom-step/s
100.0% CPU use with 64 MPI tasks x 1 OpenMP threads

MPI task timing breakdown:
Section |  min time  |  avg time  |  max time  |%varavg| %total
---------------------------------------------------------------
Pair    | 0.018372   | 0.66393    | 4.5683     | 140.5 |  4.02
Bond    | 0.0054349  | 0.79567    | 4.2029     | 148.7 |  4.82
Neigh   | 0.045227   | 0.052216   | 0.056554   |   1.2 |  0.32
Comm    | 6.471      | 12.484     | 15.09      |  79.2 | 75.64
Output  | 0.007623   | 0.014728   | 0.021713   |   3.7 |  0.09
Modify  | 0.59739    | 1.8817     | 8.0162     | 168.8 | 11.40
Other   |            | 0.6134     |            |       |  3.72

Nlocal:        7.51562 ave          34 max           0 min
Histogram: 42 3 3 0 0 1 3 4 4 4
Nghost:           1822 ave        2416 max        1290 min
Histogram: 16 0 0 0 32 0 0 0 0 16
Neighs:              0 ave           0 max           0 min
Histogram: 64 0 0 0 0 0 0 0 0 0

Total # of neighbors = 0
Ave neighs/atom = 0
Ave special neighs/atom = 15.567568
Neighbor list builds = 114
Dangerous builds = 0
Generated 0 of 1 mixed pair_coeff terms from geometric mixing rule
Setting up Verlet run ...
  Unit style    : real
  Current step  : 740000
  Time step     : 0.05
Per MPI rank memory allocation (min/avg/max) = 13.32 | 13.62 | 14.95 Mbytes
   Step          Temp          E_pair         E_mol          TotEng         Press     
    740000   305.81848      384.29809      18532.82       19354.68      -227.31616    
    750000   298.80973      397.37391      18508.433      19333.34       186.54386    
Loop time of 3.28168 on 64 procs for 10000 steps with 481 atoms

Performance: 13.164 ns/day, 1.823 hours/ns, 3047.218 timesteps/s, 1.466 Matom-step/s
100.0% CPU use with 64 MPI tasks x 1 OpenMP threads

MPI task timing breakdown:
Section |  min time  |  avg time  |  max time  |%varavg| %total
---------------------------------------------------------------
Pair    | 0.0036414  | 0.13247    | 0.94708    |  63.3 |  4.04
Bond    | 0.0010876  | 0.15831    | 0.85271    |  66.4 |  4.82
Neigh   | 0.0087867  | 0.010118   | 0.01098    |   0.5 |  0.31
Comm    | 1.2044     | 2.4856     | 3.0008     |  35.5 | 75.74
Output  | 0.001532   | 0.002935   | 0.0043596  |   1.6 |  0.09
Modify  | 0.11811    | 0.36939    | 1.6046     |  75.5 | 11.26
Other   |            | 0.1228     |            |       |  3.74

Nlocal:        7.51562 ave          36 max           0 min
Histogram: 41 6 1 0 0 1 6 2 4 3
Nghost:        1824.64 ave        2420 max        1289 min
Histogram: 16 0 0 0 32 0 0 0 0 16
Neighs:              0 ave           0 max           0 min
Histogram: 64 0 0 0 0 0 0 0 0 0

Total # of neighbors = 0
Ave neighs/atom = 0
Ave special neighs/atom = 15.567568
Neighbor list builds = 22
Dangerous builds = 0
Generated 0 of 1 mixed pair_coeff terms from geometric mixing rule
Setting up Verlet run ...
  Unit style    : real
  Current step  : 750000
  Time step     : 0.05
Per MPI rank memory allocation (min/avg/max) = 13.32 | 13.62 | 14.95 Mbytes
   Step          Temp          E_pair         E_mol          TotEng         Press     
    750000   298.80973      397.37391      18508.433      19333.34       186.54386    
    760000   291.86567      384.33881      18520.325      19322.262     -137.37574    
    770000   282.34212      382.56207      18529.429      19315.963     -174.09918    
    780000   288.60718      384.00111      18517.963      19314.9       -96.543106    
    790000   309.77402      389.95785      18518.452      19351.631      31.043438    
    800000   308.73551      382.74323      18522.706      19347.184     -49.573019    
Loop time of 16.792 on 64 procs for 50000 steps with 481 atoms

Performance: 12.863 ns/day, 1.866 hours/ns, 2977.614 timesteps/s, 1.432 Matom-step/s
100.0% CPU use with 64 MPI tasks x 1 OpenMP threads

MPI task timing breakdown:
Section |  min time  |  avg time  |  max time  |%varavg| %total
---------------------------------------------------------------
Pair    | 0.018253   | 0.66005    | 4.6235     | 140.1 |  3.93
Bond    | 0.0054126  | 0.79202    | 4.0993     | 147.9 |  4.72
Neigh   | 0.037517   | 0.043308   | 0.046954   |   1.0 |  0.26
Comm    | 6.6595     | 12.74      | 15.378     |  80.0 | 75.87
Output  | 0.0077271  | 0.014843   | 0.021864   |   3.7 |  0.09
Modify  | 0.59171    | 1.9279     | 8.3464     | 174.5 | 11.48
Other   |            | 0.6143     |            |       |  3.66

Nlocal:        7.51562 ave          38 max           0 min
Histogram: 40 8 0 0 2 2 3 4 1 4
Nghost:        1816.66 ave        2399 max        1287 min
Histogram: 16 0 0 0 32 0 0 0 0 16
Neighs:              0 ave           0 max           0 min
Histogram: 64 0 0 0 0 0 0 0 0 0

Total # of neighbors = 0
Ave neighs/atom = 0
Ave special neighs/atom = 15.567568
Neighbor list builds = 93
Dangerous builds = 0
Generated 0 of 1 mixed pair_coeff terms from geometric mixing rule
Setting up Verlet run ...
  Unit style    : real
  Current step  : 800000
  Time step     : 0.05
Per MPI rank memory allocation (min/avg/max) = 13.32 | 13.62 | 14.95 Mbytes
   Step          Temp          E_pair         E_mol          TotEng         Press     
    800000   308.73551      382.74323      18522.706      19347.184     -49.573019    
    810000   305.36129      393.28314      18518.379      19348.57       176.77964    
Loop time of 3.26101 on 64 procs for 10000 steps with 481 atoms

Performance: 13.247 ns/day, 1.812 hours/ns, 3066.533 timesteps/s, 1.475 Matom-step/s
100.0% CPU use with 64 MPI tasks x 1 OpenMP threads

MPI task timing breakdown:
Section |  min time  |  avg time  |  max time  |%varavg| %total
---------------------------------------------------------------
Pair    | 0.003381   | 0.13264    | 0.87371    |  62.3 |  4.07
Bond    | 0.0010798  | 0.15869    | 0.83028    |  65.6 |  4.87
Neigh   | 0.008452   | 0.0098223  | 0.010664   |   0.5 |  0.30
Comm    | 1.3269     | 2.4615     | 2.9795     |  34.9 | 75.48
Output  | 0.0014968  | 0.0028975  | 0.0043173  |   1.6 |  0.09
Modify  | 0.12026    | 0.37299    | 1.5753     |  73.4 | 11.44
Other   |            | 0.1224     |            |       |  3.75

Nlocal:        7.51562 ave          34 max           0 min
Histogram: 41 6 1 0 0 1 4 3 1 7
Nghost:        1825.77 ave        2419 max        1291 min
Histogram: 16 0 0 0 32 0 0 0 0 16
Neighs:              0 ave           0 max           0 min
Histogram: 64 0 0 0 0 0 0 0 0 0

Total # of neighbors = 0
Ave neighs/atom = 0
Ave special neighs/atom = 15.567568
Neighbor list builds = 22
Dangerous builds = 0
Generated 0 of 1 mixed pair_coeff terms from geometric mixing rule
Setting up Verlet run ...
  Unit style    : real
  Current step  : 810000
  Time step     : 0.05
Per MPI rank memory allocation (min/avg/max) = 13.32 | 13.62 | 14.95 Mbytes
   Step          Temp          E_pair         E_mol          TotEng         Press     
    810000   305.36129      393.28314      18518.379      19348.57       176.77964    
    820000   280.70867      388.99819      18493.871      19284.504     -53.3911      
    830000   309.20869      378.20264      18536.005      19356.62      -274.23346    
    840000   311.75306      386.19268      18536.796      19369.042      74.595764    
    850000   299.74517      392.43451      18558.403      19379.71       80.862789    
    860000   295.16122      388.20747      18553.984      19364.505      16.65748     
Loop time of 16.415 on 64 procs for 50000 steps with 481 atoms

Performance: 13.159 ns/day, 1.824 hours/ns, 3045.998 timesteps/s, 1.465 Matom-step/s
100.0% CPU use with 64 MPI tasks x 1 OpenMP threads

MPI task timing breakdown:
Section |  min time  |  avg time  |  max time  |%varavg| %total
---------------------------------------------------------------
Pair    | 0.016696   | 0.66065    | 4.6479     | 139.9 |  4.02
Bond    | 0.0053903  | 0.79342    | 4.1436     | 147.9 |  4.83
Neigh   | 0.039524   | 0.045722   | 0.049727   |   1.1 |  0.28
Comm    | 6.2764     | 12.417     | 14.995     |  78.9 | 75.64
Output  | 0.0077154  | 0.014787   | 0.021773   |   3.7 |  0.09
Modify  | 0.60201    | 1.8698     | 8.0087     | 168.2 | 11.39
Other   |            | 0.614      |            |       |  3.74

Nlocal:        7.51562 ave          35 max           0 min
Histogram: 43 2 3 0 1 2 2 2 4 5
Nghost:        1820.89 ave        2409 max        1289 min
Histogram: 16 0 0 0 32 0 0 0 0 16
Neighs:              0 ave           0 max           0 min
Histogram: 64 0 0 0 0 0 0 0 0 0

Total # of neighbors = 0
Ave neighs/atom = 0
Ave special neighs/atom = 15.567568
Neighbor list builds = 101
Dangerous builds = 0
Generated 0 of 1 mixed pair_coeff terms from geometric mixing rule
Setting up Verlet run ...
  Unit style    : real
  Current step  : 860000
  Time step     : 0.05
Per MPI rank memory allocation (min/avg/max) = 13.32 | 13.62 | 14.95 Mbytes
   Step          Temp          E_pair         E_mol          TotEng         Press     
    860000   295.16122      388.20747      18553.984      19364.505      16.65748     
    870000   292.47523      383.10079      18538.415      19339.986     -384.85888    
Loop time of 3.28223 on 64 procs for 10000 steps with 481 atoms

Performance: 13.162 ns/day, 1.823 hours/ns, 3046.713 timesteps/s, 1.465 Matom-step/s
100.0% CPU use with 64 MPI tasks x 1 OpenMP threads

MPI task timing breakdown:
Section |  min time  |  avg time  |  max time  |%varavg| %total
---------------------------------------------------------------
Pair    | 0.0034297  | 0.13247    | 0.87687    |  62.5 |  4.04
Bond    | 0.0010753  | 0.15815    | 0.83762    |  65.8 |  4.82
Neigh   | 0.0074411  | 0.0086311  | 0.0093849  |   0.5 |  0.26
Comm    | 1.3513     | 2.4815     | 2.9999     |  35.2 | 75.60
Output  | 0.0015483  | 0.0029737  | 0.0044053  |   1.7 |  0.09
Modify  | 0.11793    | 0.3757     | 1.5948     |  75.1 | 11.45
Other   |            | 0.1228     |            |       |  3.74

Nlocal:        7.51562 ave          35 max           0 min
Histogram: 41 6 1 0 1 1 3 4 3 4
Nghost:         1816.2 ave        2402 max        1289 min
Histogram: 16 0 0 0 32 0 0 0 0 16
Neighs:              0 ave           0 max           0 min
Histogram: 64 0 0 0 0 0 0 0 0 0

Total # of neighbors = 0
Ave neighs/atom = 0
Ave special neighs/atom = 15.567568
Neighbor list builds = 19
Dangerous builds = 0
Generated 0 of 1 mixed pair_coeff terms from geometric mixing rule
Setting up Verlet run ...
  Unit style    : real
  Current step  : 870000
  Time step     : 0.05
Per MPI rank memory allocation (min/avg/max) = 13.32 | 13.62 | 14.95 Mbytes
   Step          Temp          E_pair         E_mol          TotEng         Press     
    870000   292.47523      383.10079      18538.415      19339.986     -384.85888    
    880000   321.43447      392.60307      18521.558      19374.066      78.056542    
    890000   310.74761      391.51099      18577.479      19413.604     -32.975046    
    900000   305.50356      380.65308      18535.171      19352.935     -253.72876    
    910000   298.624        399.92241      18517.896      19345.086      243.40234    
    920000   283.14137      397.85387      18560.681      19363.65       164.07891    
Loop time of 16.7347 on 64 procs for 50000 steps with 481 atoms

Performance: 12.907 ns/day, 1.859 hours/ns, 2987.800 timesteps/s, 1.437 Matom-step/s
100.0% CPU use with 64 MPI tasks x 1 OpenMP threads

MPI task timing breakdown:
Section |  min time  |  avg time  |  max time  |%varavg| %total
---------------------------------------------------------------
Pair    | 0.016484   | 0.66663    | 4.3975     | 140.5 |  3.98
Bond    | 0.0053583  | 0.79356    | 4.3136     | 147.9 |  4.74
Neigh   | 0.044181   | 0.051027   | 0.05538    |   1.1 |  0.30
Comm    | 6.7856     | 12.664     | 15.312     |  80.2 | 75.67
Output  | 0.0076792  | 0.014835   | 0.021911   |   3.7 |  0.09
Modify  | 0.58453    | 1.9301     | 8.322      | 173.7 | 11.53
Other   |            | 0.6148     |            |       |  3.67

Nlocal:        7.51562 ave          36 max           0 min
Histogram: 42 5 1 0 1 3 3 2 2 5
Nghost:        1827.92 ave        2426 max        1288 min
Histogram: 16 0 0 0 32 0 0 0 0 16
Neighs:              0 ave           0 max           0 min
Histogram: 64 0 0 0 0 0 0 0 0 0

Total # of neighbors = 0
Ave neighs/atom = 0
Ave special neighs/atom = 15.567568
Neighbor list builds = 110
Dangerous builds = 0
Generated 0 of 1 mixed pair_coeff terms from geometric mixing rule
Setting up Verlet run ...
  Unit style    : real
  Current step  : 920000
  Time step     : 0.05
Per MPI rank memory allocation (min/avg/max) = 13.32 | 13.62 | 14.95 Mbytes
   Step          Temp          E_pair         E_mol          TotEng         Press     
    920000   283.14137      397.85387      18560.681      19363.65       164.07891    
    930000   324.18767      382.02939      18530.872      19376.745     -225.92449    
Loop time of 3.2977 on 64 procs for 10000 steps with 481 atoms

Performance: 13.100 ns/day, 1.832 hours/ns, 3032.413 timesteps/s, 1.459 Matom-step/s
100.0% CPU use with 64 MPI tasks x 1 OpenMP threads

MPI task timing breakdown:
Section |  min time  |  avg time  |  max time  |%varavg| %total
---------------------------------------------------------------
Pair    | 0.0033293  | 0.13316    | 0.86992    |  62.3 |  4.04
Bond    | 0.001057   | 0.1595     | 0.82717    |  66.1 |  4.84
Neigh   | 0.0054281  | 0.0063388  | 0.0068824  |   0.4 |  0.19
Comm    | 1.3879     | 2.4961     | 3.0164     |  35.4 | 75.69
Output  | 0.0015197  | 0.0029347  | 0.0043537  |   1.6 |  0.09
Modify  | 0.1201     | 0.37703    | 1.6161     |  75.9 | 11.43
Other   |            | 0.1226     |            |       |  3.72

Nlocal:        7.51562 ave          38 max           0 min
Histogram: 41 7 0 0 0 3 5 2 5 1
Nghost:        1818.83 ave        2412 max        1286 min
Histogram: 16 0 0 0 32 0 0 0 0 16
Neighs:              0 ave           0 max           0 min
Histogram: 64 0 0 0 0 0 0 0 0 0

Total # of neighbors = 0
Ave neighs/atom = 0
Ave special neighs/atom = 15.567568
Neighbor list builds = 14
Dangerous builds = 0
Generated 0 of 1 mixed pair_coeff terms from geometric mixing rule
Setting up Verlet run ...
  Unit style    : real
  Current step  : 930000
  Time step     : 0.05
Per MPI rank memory allocation (min/avg/max) = 13.32 | 13.62 | 14.95 Mbytes
   Step          Temp          E_pair         E_mol          TotEng         Press     
    930000   324.18767      382.02939      18530.872      19376.745     -225.92449    
    940000   304.33669      384.5654       18499.062      19319.069      64.574836    
    950000   280.34932      390.72656      18527.261      19319.108     -147.01523    
    960000   298.24607      395.37946      18513.504      19335.61       81.293851    
    970000   317.18299      395.75639      18495.183      19344.762      164.51951    
    980000   295.51252      378.821        18518.557      19320.194     -332.73366    
Loop time of 16.4946 on 64 procs for 50000 steps with 481 atoms

Performance: 13.095 ns/day, 1.833 hours/ns, 3031.303 timesteps/s, 1.458 Matom-step/s
100.0% CPU use with 64 MPI tasks x 1 OpenMP threads

MPI task timing breakdown:
Section |  min time  |  avg time  |  max time  |%varavg| %total
---------------------------------------------------------------
Pair    | 0.016974   | 0.67356    | 4.4957     | 139.8 |  4.08
Bond    | 0.0053108  | 0.80021    | 4.0542     | 148.0 |  4.85
Neigh   | 0.048283   | 0.056189   | 0.061032   |   1.2 |  0.34
Comm    | 6.5088     | 12.468     | 15.038     |  79.1 | 75.59
Output  | 0.007618   | 0.014788   | 0.021799   |   3.7 |  0.09
Modify  | 0.63044    | 1.8683     | 8.0991     | 168.5 | 11.33
Other   |            | 0.6136     |            |       |  3.72

Nlocal:        7.51562 ave          40 max           0 min
Histogram: 42 5 1 1 1 3 3 3 3 2
Nghost:        1818.17 ave        2411 max        1288 min
Histogram: 16 0 0 0 32 0 0 0 0 16
Neighs:              0 ave           0 max           0 min
Histogram: 64 0 0 0 0 0 0 0 0 0

Total # of neighbors = 0
Ave neighs/atom = 0
Ave special neighs/atom = 15.567568
Neighbor list builds = 125
Dangerous builds = 0
Generated 0 of 1 mixed pair_coeff terms from geometric mixing rule
Setting up Verlet run ...
  Unit style    : real
  Current step  : 980000
  Time step     : 0.05
Per MPI rank memory allocation (min/avg/max) = 13.32 | 13.62 | 14.95 Mbytes
   Step          Temp          E_pair         E_mol          TotEng         Press     
    980000   295.51252      378.821        18518.557      19320.194     -332.73366    
    990000   307.56938      390.34436      18522.561      19352.972     -72.068022    
Loop time of 3.31929 on 64 procs for 10000 steps with 481 atoms

Performance: 13.015 ns/day, 1.844 hours/ns, 3012.690 timesteps/s, 1.449 Matom-step/s
100.0% CPU use with 64 MPI tasks x 1 OpenMP threads

MPI task timing breakdown:
Section |  min time  |  avg time  |  max time  |%varavg| %total
---------------------------------------------------------------
Pair    | 0.0034621  | 0.13573    | 0.94513    |  63.3 |  4.09
Bond    | 0.0010606  | 0.16014    | 0.83779    |  66.4 |  4.82
Neigh   | 0.012237   | 0.014157   | 0.01536    |   0.6 |  0.43
Comm    | 1.2463     | 2.5129     | 3.0246     |  35.6 | 75.70
Output  | 0.0014919  | 0.0029334  | 0.0043788  |   1.7 |  0.09
Modify  | 0.12596    | 0.37071    | 1.642      |  75.8 | 11.17
Other   |            | 0.1228     |            |       |  3.70

Nlocal:        7.51562 ave          34 max           0 min
Histogram: 41 6 1 0 0 1 1 6 6 2
Nghost:        1817.52 ave        2401 max        1290 min
Histogram: 16 0 0 0 32 0 0 0 0 16
Neighs:              0 ave           0 max           0 min
Histogram: 64 0 0 0 0 0 0 0 0 0

Total # of neighbors = 0
Ave neighs/atom = 0
Ave special neighs/atom = 15.567568
Neighbor list builds = 31
Dangerous builds = 0
Generated 0 of 1 mixed pair_coeff terms from geometric mixing rule
Setting up Verlet run ...
  Unit style    : real
  Current step  : 990000
  Time step     : 0.05
Per MPI rank memory allocation (min/avg/max) = 13.32 | 13.62 | 14.95 Mbytes
   Step          Temp          E_pair         E_mol          TotEng         Press     
    990000   307.56938      390.34436      18522.561      19352.972     -72.068022    
   1000000   304.39726      401.87404      18528.044      19365.446      95.821695    
   1010000   320.1031       384.50966      18542.288      19384.798     -205.5343     
   1020000   300.54466      387.55136      18545.822      19363.39      -256.30996    
   1030000   303.58128      397.35372      18489.484      19321.198      67.669665    
   1040000   293.79814      392.23095      18524.637      19337.232     -61.617125    
Loop time of 16.6148 on 64 procs for 50000 steps with 481 atoms

Performance: 13.000 ns/day, 1.846 hours/ns, 3009.367 timesteps/s, 1.448 Matom-step/s
100.0% CPU use with 64 MPI tasks x 1 OpenMP threads

MPI task timing breakdown:
Section |  min time  |  avg time  |  max time  |%varavg| %total
---------------------------------------------------------------
Pair    | 0.017239   | 0.68218    | 4.618      | 141.8 |  4.11
Bond    | 0.0052751  | 0.80189    | 4.2078     | 148.7 |  4.83
Neigh   | 0.059248   | 0.068917   | 0.07467    |   1.4 |  0.41
Comm    | 6.4072     | 12.523     | 15.132     |  79.8 | 75.37
Output  | 0.0077262  | 0.01486    | 0.021883   |   3.7 |  0.09
Modify  | 0.62167    | 1.9108     | 8.205      | 167.2 | 11.50
Other   |            | 0.6132     |            |       |  3.69

Nlocal:        7.51562 ave          36 max           0 min
Histogram: 41 6 1 0 1 2 3 2 4 4
Nghost:        1820.89 ave        2413 max        1289 min
Histogram: 16 0 0 0 32 0 0 0 0 16
Neighs:              0 ave           0 max           0 min
Histogram: 64 0 0 0 0 0 0 0 0 0

Total # of neighbors = 0
Ave neighs/atom = 0
Ave special neighs/atom = 15.567568
Neighbor list builds = 151
Dangerous builds = 0
Generated 0 of 1 mixed pair_coeff terms from geometric mixing rule
Setting up Verlet run ...
  Unit style    : real
  Current step  : 1040000
  Time step     : 0.05
Per MPI rank memory allocation (min/avg/max) = 13.32 | 13.62 | 14.95 Mbytes
   Step          Temp          E_pair         E_mol          TotEng         Press     
   1040000   293.79814      392.23095      18524.637      19337.232     -61.617125    
   1050000   307.18594      388.99514      18516.453      19344.966     -171.0501     
Loop time of 3.30484 on 64 procs for 10000 steps with 481 atoms

Performance: 13.072 ns/day, 1.836 hours/ns, 3025.863 timesteps/s, 1.455 Matom-step/s
100.0% CPU use with 64 MPI tasks x 1 OpenMP threads

MPI task timing breakdown:
Section |  min time  |  avg time  |  max time  |%varavg| %total
---------------------------------------------------------------
Pair    | 0.0034889  | 0.13466    | 0.92597    |  63.5 |  4.07
Bond    | 0.0010606  | 0.15921    | 0.84076    |  66.6 |  4.82
Neigh   | 0.012804   | 0.014969   | 0.016292   |   0.7 |  0.45
Comm    | 1.2641     | 2.5017     | 3.0158     |  35.5 | 75.70
Output  | 0.0015247  | 0.0029612  | 0.0057831  |   1.7 |  0.09
Modify  | 0.11988    | 0.36734    | 1.6302     |  75.3 | 11.12
Other   |            | 0.124      |            |       |  3.75

Nlocal:        7.51562 ave          36 max           0 min
Histogram: 43 4 1 0 2 2 3 1 4 4
Nghost:        1817.33 ave        2406 max        1288 min
Histogram: 16 0 0 0 32 0 0 0 0 16
Neighs:              0 ave           0 max           0 min
Histogram: 64 0 0 0 0 0 0 0 0 0

Total # of neighbors = 0
Ave neighs/atom = 0
Ave special neighs/atom = 15.567568
Neighbor list builds = 33
Dangerous builds = 0
Generated 0 of 1 mixed pair_coeff terms from geometric mixing rule
Setting up Verlet run ...
  Unit style    : real
  Current step  : 1050000
  Time step     : 0.05
Per MPI rank memory allocation (min/avg/max) = 13.32 | 13.62 | 14.95 Mbytes
   Step          Temp          E_pair         E_mol          TotEng         Press     
   1050000   307.18594      388.99514      18516.453      19344.966     -171.0501     
   1060000   305.61912      394.07143      18528.864      19360.212     -0.77541102   
   1070000   289.12759      383.88399      18502.946      19300.51      -278.37098    
   1080000   298.54307      377.53167      18530.765      19335.449     -331.54714    
   1090000   307.76947      393.3691       18515.803      19349.526      164.93556    
   1100000   308.77132      390.00642      18526.385      19358.178      96.548191    
Loop time of 16.6657 on 64 procs for 50000 steps with 481 atoms

Performance: 12.961 ns/day, 1.852 hours/ns, 3000.176 timesteps/s, 1.443 Matom-step/s
100.0% CPU use with 64 MPI tasks x 1 OpenMP threads

MPI task timing breakdown:
Section |  min time  |  avg time  |  max time  |%varavg| %total
---------------------------------------------------------------
Pair    | 0.017189   | 0.67368    | 4.6154     | 141.8 |  4.04
Bond    | 0.005281   | 0.79461    | 4.1902     | 148.4 |  4.77
Neigh   | 0.055641   | 0.064394   | 0.06979    |   1.3 |  0.39
Comm    | 6.5833     | 12.608     | 15.224     |  80.1 | 75.65
Output  | 0.0077052  | 0.014801   | 0.021791   |   3.7 |  0.09
Modify  | 0.61096    | 1.8923     | 8.2567     | 172.0 | 11.35
Other   |            | 0.6175     |            |       |  3.70

Nlocal:        7.51562 ave          39 max           0 min
Histogram: 40 8 0 0 1 2 6 5 1 1
Nghost:        1821.17 ave        2417 max        1285 min
Histogram: 16 0 0 0 32 0 0 0 0 16
Neighs:              0 ave           0 max           0 min
Histogram: 64 0 0 0 0 0 0 0 0 0

Total # of neighbors = 0
Ave neighs/atom = 0
Ave special neighs/atom = 15.567568
Neighbor list builds = 140
Dangerous builds = 0
Generated 0 of 1 mixed pair_coeff terms from geometric mixing rule
Setting up Verlet run ...
  Unit style    : real
  Current step  : 1100000
  Time step     : 0.05
Per MPI rank memory allocation (min/avg/max) = 13.32 | 13.62 | 14.95 Mbytes
   Step          Temp          E_pair         E_mol          TotEng         Press     
   1100000   308.77132      390.00642      18526.385      19358.178      96.548191    
   1110000   310.72158      389.87844      18534.761      19369.217      26.082798    
Loop time of 3.50202 on 64 procs for 10000 steps with 481 atoms

Performance: 12.336 ns/day, 1.946 hours/ns, 2855.498 timesteps/s, 1.373 Matom-step/s
100.0% CPU use with 64 MPI tasks x 1 OpenMP threads

MPI task timing breakdown:
Section |  min time  |  avg time  |  max time  |%varavg| %total
---------------------------------------------------------------
Pair    | 0.0035092  | 0.13514    | 0.95692    |  63.8 |  3.86
Bond    | 0.0010558  | 0.15923    | 0.84636    |  66.7 |  4.55
Neigh   | 0.011928   | 0.013713   | 0.014808   |   0.6 |  0.39
Comm    | 1.4067     | 2.6541     | 3.2099     |  37.3 | 75.79
Output  | 0.0015593  | 0.0029768  | 0.004401   |   1.6 |  0.09
Modify  | 0.11962    | 0.41357    | 1.8122     |  82.9 | 11.81
Other   |            | 0.1232     |            |       |  3.52

Nlocal:        7.51562 ave          40 max           0 min
Histogram: 42 6 0 0 2 1 6 2 4 1
Nghost:        1818.64 ave        2408 max        1284 min
Histogram: 16 0 0 0 32 0 0 0 0 16
Neighs:              0 ave           0 max           0 min
Histogram: 64 0 0 0 0 0 0 0 0 0

Total # of neighbors = 0
Ave neighs/atom = 0
Ave special neighs/atom = 15.567568
Neighbor list builds = 28
Dangerous builds = 0
Generated 0 of 1 mixed pair_coeff terms from geometric mixing rule
Setting up Verlet run ...
  Unit style    : real
  Current step  : 1110000
  Time step     : 0.05
Per MPI rank memory allocation (min/avg/max) = 13.32 | 13.62 | 14.95 Mbytes
   Step          Temp          E_pair         E_mol          TotEng         Press     
   1110000   310.72158      389.87844      18534.761      19369.217      26.082798    
   1120000   300.04776      393.18529      18526.581      19349.072      22.203708    
   1130000   301.53821      389.90401      18523.918      19345.26      -114.73076    
   1140000   297.56464      385.54965      18538.529      19349.831     -154.92154    
   1150000   295.97526      402.08842      18543.124      19368.691      250.78982    
   1160000   302.22509      386.69285      18559.805      19378.918     -212.59511    
Loop time of 16.7009 on 64 procs for 50000 steps with 481 atoms

Performance: 12.933 ns/day, 1.856 hours/ns, 2993.848 timesteps/s, 1.440 Matom-step/s
100.0% CPU use with 64 MPI tasks x 1 OpenMP threads

MPI task timing breakdown:
Section |  min time  |  avg time  |  max time  |%varavg| %total
---------------------------------------------------------------
Pair    | 0.017705   | 0.67672    | 4.3808     | 140.4 |  4.05
Bond    | 0.0052978  | 0.79668    | 4.2437     | 147.6 |  4.77
Neigh   | 0.063797   | 0.074174   | 0.080443   |   1.4 |  0.44
Comm    | 6.9993     | 12.592     | 15.211     |  79.4 | 75.39
Output  | 0.0077095  | 0.014941   | 0.022046   |   3.7 |  0.09
Modify  | 0.61831    | 1.9341     | 8.2742     | 168.8 | 11.58
Other   |            | 0.6127     |            |       |  3.67

Nlocal:        7.51562 ave          35 max           0 min
Histogram: 41 6 1 0 0 0 7 1 2 6
Nghost:        1819.95 ave        2410 max        1289 min
Histogram: 16 0 0 0 32 0 0 0 0 16
Neighs:              0 ave           0 max           0 min
Histogram: 64 0 0 0 0 0 0 0 0 0

Total # of neighbors = 0
Ave neighs/atom = 0
Ave special neighs/atom = 15.567568
Neighbor list builds = 162
Dangerous builds = 0
Generated 0 of 1 mixed pair_coeff terms from geometric mixing rule
Setting up Verlet run ...
  Unit style    : real
  Current step  : 1160000
  Time step     : 0.05
Per MPI rank memory allocation (min/avg/max) = 13.32 | 13.62 | 14.95 Mbytes
   Step          Temp          E_pair         E_mol          TotEng         Press     
   1160000   302.22509      386.69285      18559.805      19378.918     -212.59511    
   1170000   302.70455      380.17478      18531.372      19344.653     -286.81766    
Loop time of 3.29227 on 64 procs for 10000 steps with 481 atoms

Performance: 13.122 ns/day, 1.829 hours/ns, 3037.417 timesteps/s, 1.461 Matom-step/s
100.0% CPU use with 64 MPI tasks x 1 OpenMP threads

MPI task timing breakdown:
Section |  min time  |  avg time  |  max time  |%varavg| %total
---------------------------------------------------------------
Pair    | 0.0034865  | 0.13489    | 0.90402    |  62.5 |  4.10
Bond    | 0.0010454  | 0.15797    | 0.84197    |  65.6 |  4.80
Neigh   | 0.011989   | 0.013951   | 0.015112   |   0.6 |  0.42
Comm    | 1.3155     | 2.4918     | 3.0009     |  35.1 | 75.69
Output  | 0.0015018  | 0.0029034  | 0.0043146  |   1.6 |  0.09
Modify  | 0.12455    | 0.36728    | 1.6104     |  75.3 | 11.16
Other   |            | 0.1235     |            |       |  3.75

Nlocal:        7.51562 ave          37 max           0 min
Histogram: 40 7 1 0 1 4 2 3 2 4
Nghost:        1813.67 ave        2398 max        1290 min
Histogram: 16 0 0 0 32 0 0 0 0 16
Neighs:              0 ave           0 max           0 min
Histogram: 64 0 0 0 0 0 0 0 0 0

Total # of neighbors = 0
Ave neighs/atom = 0
Ave special neighs/atom = 15.567568
Neighbor list builds = 31
Dangerous builds = 0
Generated 0 of 1 mixed pair_coeff terms from geometric mixing rule
Setting up Verlet run ...
  Unit style    : real
  Current step  : 1170000
  Time step     : 0.05
Per MPI rank memory allocation (min/avg/max) = 13.32 | 13.62 | 14.95 Mbytes
   Step          Temp          E_pair         E_mol          TotEng         Press     
   1170000   302.70455      380.17478      18531.372      19344.653     -286.81766    
   1180000   285.90328      389.52657      18531.521      19330.114     -182.99713    
   1190000   293.2762       389.60315      18506.636      19315.855     -196.0516     
   1200000   282.78003      402.34959      18496.134      19303.082      164.73224    
   1210000   270.84841      391.65799      18542.159      19321.344     -51.314209    
   1220000   292.3942       385.31795      18535.888      19339.56      -231.63202    
Loop time of 16.524 on 64 procs for 50000 steps with 481 atoms

Performance: 13.072 ns/day, 1.836 hours/ns, 3025.899 timesteps/s, 1.455 Matom-step/s
100.0% CPU use with 64 MPI tasks x 1 OpenMP threads

MPI task timing breakdown:
Section |  min time  |  avg time  |  max time  |%varavg| %total
---------------------------------------------------------------
Pair    | 0.018257   | 0.67731    | 4.5549     | 140.0 |  4.10
Bond    | 0.005281   | 0.79493    | 4.2755     | 147.5 |  4.81
Neigh   | 0.065112   | 0.075771   | 0.082291   |   1.4 |  0.46
Comm    | 6.4898     | 12.469     | 15.012     |  78.5 | 75.46
Output  | 0.0076609  | 0.014817   | 0.021791   |   3.7 |  0.09
Modify  | 0.64011    | 1.8734     | 8.0929     | 165.6 | 11.34
Other   |            | 0.6193     |            |       |  3.75

Nlocal:        7.51562 ave          36 max           0 min
Histogram: 42 5 1 0 0 2 3 5 4 2
Nghost:        1817.33 ave        2407 max        1291 min
Histogram: 16 0 0 0 32 0 0 0 0 16
Neighs:              0 ave           0 max           0 min
Histogram: 64 0 0 0 0 0 0 0 0 0

Total # of neighbors = 0
Ave neighs/atom = 0
Ave special neighs/atom = 15.567568
Neighbor list builds = 169
Dangerous builds = 0
Generated 0 of 1 mixed pair_coeff terms from geometric mixing rule
Setting up Verlet run ...
  Unit style    : real
  Current step  : 1220000
  Time step     : 0.05
Per MPI rank memory allocation (min/avg/max) = 13.32 | 13.62 | 14.95 Mbytes
[...]

Performance: 11.421 ns/day, 2.101 hours/ns, 2643.866 timesteps/s, 1.272 Matom-step/s
100.0% CPU use with 64 MPI tasks x 1 OpenMP threads

MPI task timing breakdown:
Section |  min time  |  avg time  |  max time  |%varavg| %total
---------------------------------------------------------------
Pair    | 0.01721    | 0.73065    | 6.1482     | 166.6 |  3.86
Bond    | 0.0055039  | 0.78559    | 4.1411     | 148.1 |  4.15
Neigh   | 0.037464   | 0.042448   | 0.04587    |   1.1 |  0.22
Comm    | 7.6611     | 14.556     | 17.419     |  84.2 | 76.97
Output  | 0.007564   | 0.015662   | 0.023331   |   4.0 |  0.08
Modify  | 0.68995    | 2.173      | 9.4382     | 184.7 | 11.49
Other   |            | 0.6081     |            |       |  3.22

Nlocal:        7.51562 ave          43 max           0 min
Histogram: 44 3 1 3 0 3 6 1 2 1
Nghost:        1821.17 ave        2415 max        1281 min
Histogram: 16 0 0 0 32 0 0 0 0 16
Neighs:              0 ave           0 max           0 min
Histogram: 64 0 0 0 0 0 0 0 0 0

Total # of neighbors = 0
Ave neighs/atom = 0
Ave special neighs/atom = 15.567568
Neighbor list builds = 85
Dangerous builds = 0
Generated 0 of 1 mixed pair_coeff terms from geometric mixing rule
Setting up Verlet run ...
  Unit style    : real
  Current step  : 2780000
  Time step     : 0.05
Per MPI rank memory allocation (min/avg/max) = 13.32 | 13.62 | 14.95 Mbytes
   Step          Temp          E_pair         E_mol          TotEng         Press     
   2780000   297.75855      387.06486      18569.953      19383.047      47.197235    
   2790000   310.9204       377.44864      18545.662      19367.973     -282.27318    
Loop time of 3.69575 on 64 procs for 10000 steps with 481 atoms

Performance: 11.689 ns/day, 2.053 hours/ns, 2705.808 timesteps/s, 1.301 Matom-step/s
100.0% CPU use with 64 MPI tasks x 1 OpenMP threads

MPI task timing breakdown:
Section |  min time  |  avg time  |  max time  |%varavg| %total
---------------------------------------------------------------
Pair    | 0.0034016  | 0.14583    | 1.1541     |  73.8 |  3.95
Bond    | 0.0010607  | 0.15683    | 0.82977    |  66.2 |  4.24
Neigh   | 0.0054015  | 0.0061755  | 0.0067243  |   0.5 |  0.17
Comm    | 1.5246     | 2.8556     | 3.4        |  37.0 | 77.27
Output  | 0.0014711  | 0.0039827  | 0.0064758  |   2.9 |  0.11
Modify  | 0.13539    | 0.40508    | 1.8054     |  80.2 | 10.96
Other   |            | 0.1223     |            |       |  3.31

Nlocal:        7.51562 ave          36 max           0 min
Histogram: 43 4 1 0 1 1 4 1 6 3
Nghost:        1816.67 ave        2399 max        1291 min
Histogram: 16 0 0 0 32 0 0 0 0 16
Neighs:              0 ave           0 max           0 min
Histogram: 64 0 0 0 0 0 0 0 0 0

Total # of neighbors = 0
Ave neighs/atom = 0
Ave special neighs/atom = 15.567568
Neighbor list builds = 13
Dangerous builds = 0
Generated 0 of 1 mixed pair_coeff terms from geometric mixing rule
Setting up Verlet run ...
  Unit style    : real
  Current step  : 2790000
  Time step     : 0.05
Per MPI rank memory allocation (min/avg/max) = 13.32 | 13.62 | 14.95 Mbytes
   Step          Temp          E_pair         E_mol          TotEng         Press     
   2790000   310.9204       377.44864      18545.662      19367.973     -282.27318    
   2800000   299.49886      389.43529      18534.257      19352.212      137.47334    
   2810000   284.29526      374.34536      18557.148      19338.26      -321.92537    
   2820000   294.11121      383.13933      18513.279      19317.229     -119.59089    
   2830000   307.07684      381.7824       18512.974      19334.118      21.976865    
   2840000   300.8746       383.86027      18517.377      19331.725      16.311489    
Loop time of 18.8563 on 64 procs for 50000 steps with 481 atoms

Performance: 11.455 ns/day, 2.095 hours/ns, 2651.628 timesteps/s, 1.275 Matom-step/s
100.0% CPU use with 64 MPI tasks x 1 OpenMP threads

MPI task timing breakdown:
Section |  min time  |  avg time  |  max time  |%varavg| %total
---------------------------------------------------------------
Pair    | 0.017197   | 0.72968    | 5.9545     | 165.8 |  3.87
Bond    | 0.0053993  | 0.78689    | 4.3253     | 148.7 |  4.17
Neigh   | 0.048786   | 0.055342   | 0.059841   |   1.3 |  0.29
Comm    | 7.9611     | 14.503     | 17.345     |  84.2 | 76.91
Output  | 0.0078326  | 0.015898   | 0.023543   |   4.0 |  0.08
Modify  | 0.69999    | 2.156      | 9.355      | 183.4 | 11.43
Other   |            | 0.6099     |            |       |  3.23

Nlocal:        7.51562 ave          37 max           0 min
Histogram: 43 4 1 0 2 1 2 7 1 3
Nghost:        1818.73 ave        2409 max        1287 min
Histogram: 16 0 0 0 32 0 0 0 0 16
Neighs:              0 ave           0 max           0 min
Histogram: 64 0 0 0 0 0 0 0 0 0

Total # of neighbors = 0
Ave neighs/atom = 0
Ave special neighs/atom = 15.567568
Neighbor list builds = 110
Dangerous builds = 0
Generated 0 of 1 mixed pair_coeff terms from geometric mixing rule
Setting up Verlet run ...
  Unit style    : real
  Current step  : 2840000
  Time step     : 0.05
Per MPI rank memory allocation (min/avg/max) = 13.32 | 13.62 | 14.95 Mbytes
   Step          Temp          E_pair         E_mol          TotEng         Press     
   2840000   300.8746       383.86027      18517.377      19331.725      16.311489    
   2850000   313.3554       390.85806      18515.375      19354.578      213.43858    
Loop time of 3.74375 on 64 procs for 10000 steps with 481 atoms

Performance: 11.539 ns/day, 2.080 hours/ns, 2671.118 timesteps/s, 1.285 Matom-step/s
100.0% CPU use with 64 MPI tasks x 1 OpenMP threads

MPI task timing breakdown:
Section |  min time  |  avg time  |  max time  |%varavg| %total
---------------------------------------------------------------
Pair    | 0.0033376  | 0.14558    | 1.1868     |  73.4 |  3.89
Bond    | 0.0010797  | 0.15709    | 0.87504    |  66.2 |  4.20
Neigh   | 0.0087381  | 0.010035   | 0.010885   |   0.6 |  0.27
Comm    | 1.5717     | 2.889      | 3.4382     |  37.5 | 77.17
Output  | 0.0014795  | 0.0030703  | 0.0046308  |   1.8 |  0.08
Modify  | 0.13867    | 0.41449    | 1.8419     |  82.4 | 11.07
Other   |            | 0.1244     |            |       |  3.32

Nlocal:        7.51562 ave          40 max           0 min
Histogram: 43 4 1 0 2 2 3 6 2 1
Nghost:         1822.2 ave        2417 max        1284 min
Histogram: 16 0 0 0 32 0 0 0 0 16
Neighs:              0 ave           0 max           0 min
Histogram: 64 0 0 0 0 0 0 0 0 0

Total # of neighbors = 0
Ave neighs/atom = 0
Ave special neighs/atom = 15.567568
Neighbor list builds = 21
Dangerous builds = 0
Generated 0 of 1 mixed pair_coeff terms from geometric mixing rule
Setting up Verlet run ...
  Unit style    : real
  Current step  : 2850000
  Time step     : 0.05
Per MPI rank memory allocation (min/avg/max) = 13.32 | 13.62 | 14.95 Mbytes
   Step          Temp          E_pair         E_mol          TotEng         Press     
   2850000   313.3554       390.85806      18515.375      19354.578      213.43858    
   2860000   301.4216       389.15454      18525.592      19346.017      69.817506    
   2870000   298.03788      380.10166      18528.437      19334.968     -82.010113    
   2880000   289.15598      390.11183      18521.383      19325.216      55.028874    
   2890000   287.65067      399.77691      18491.272      19302.616      435.596      
   2900000   283.84027      382.80043      18542.551      19331.467     -69.813379    
Loop time of 18.6568 on 64 procs for 50000 steps with 481 atoms

Performance: 11.578 ns/day, 2.073 hours/ns, 2679.988 timesteps/s, 1.289 Matom-step/s
100.0% CPU use with 64 MPI tasks x 1 OpenMP threads

MPI task timing breakdown:
Section |  min time  |  avg time  |  max time  |%varavg| %total
---------------------------------------------------------------
Pair    | 0.017127   | 0.72259    | 5.7601     | 162.8 |  3.87
Bond    | 0.0053343  | 0.7831     | 4.3336     | 147.8 |  4.20
Neigh   | 0.034512   | 0.039403   | 0.042778   |   1.2 |  0.21
Comm    | 8.0927     | 14.414     | 17.171     |  82.8 | 77.26
Output  | 0.0075945  | 0.015588   | 0.023223   |   4.0 |  0.08
Modify  | 0.68752    | 2.0705     | 9.071      | 182.5 | 11.10
Other   |            | 0.6114     |            |       |  3.28

Nlocal:        7.51562 ave          41 max           0 min
Histogram: 43 4 2 0 1 3 4 3 3 1
Nghost:        1817.98 ave        2409 max        1290 min
Histogram: 16 0 0 0 32 0 0 0 0 16
Neighs:              0 ave           0 max           0 min
Histogram: 64 0 0 0 0 0 0 0 0 0

Total # of neighbors = 0
Ave neighs/atom = 0
Ave special neighs/atom = 15.567568
Neighbor list builds = 81
Dangerous builds = 0
Generated 0 of 1 mixed pair_coeff terms from geometric mixing rule
Setting up Verlet run ...
  Unit style    : real
  Current step  : 2900000
  Time step     : 0.05
Per MPI rank memory allocation (min/avg/max) = 13.32 | 13.62 | 14.95 Mbytes
   Step          Temp          E_pair         E_mol          TotEng         Press     
   2900000   283.84027      382.80043      18542.551      19331.467     -69.813379    
   2910000   290.19961      381.102        18555.392      19351.708     -178.2578     
Loop time of 3.87825 on 64 procs for 10000 steps with 481 atoms

Performance: 11.139 ns/day, 2.155 hours/ns, 2578.480 timesteps/s, 1.240 Matom-step/s
100.0% CPU use with 64 MPI tasks x 1 OpenMP threads

MPI task timing breakdown:
Section |  min time  |  avg time  |  max time  |%varavg| %total
---------------------------------------------------------------
Pair    | 0.0033193  | 0.14627    | 1.2637     |  75.3 |  3.77
Bond    | 0.0010743  | 0.15742    | 0.86784    |  67.1 |  4.06
Neigh   | 0.0044304  | 0.0050159  | 0.0054272  |   0.4 |  0.13
Comm    | 1.5861     | 3.012      | 3.5863     |  39.2 | 77.66
Output  | 0.0014971  | 0.0030741  | 0.0046269  |   1.8 |  0.08
Modify  | 0.13822    | 0.43323    | 1.9909     |  88.4 | 11.17
Other   |            | 0.1213     |            |       |  3.13

Nlocal:        7.51562 ave          39 max           0 min
Histogram: 42 5 1 0 1 6 1 3 3 2
Nghost:        1817.05 ave        2402 max        1286 min
Histogram: 16 0 0 0 32 0 0 0 0 16
Neighs:              0 ave           0 max           0 min
Histogram: 64 0 0 0 0 0 0 0 0 0

Total # of neighbors = 0
Ave neighs/atom = 0
Ave special neighs/atom = 15.567568
Neighbor list builds = 10
Dangerous builds = 0
Generated 0 of 1 mixed pair_coeff terms from geometric mixing rule
Setting up Verlet run ...
  Unit style    : real
  Current step  : 2910000
  Time step     : 0.05
Per MPI rank memory allocation (min/avg/max) = 13.32 | 13.62 | 14.95 Mbytes
   Step          Temp          E_pair         E_mol          TotEng         Press     
   2910000   290.19961      381.102        18555.392      19351.708     -178.2578     
   2920000   282.1146       384.88484      18528.869      19317.4       -111.16361    
   2930000   300.74319      384.52266      18517.647      19332.47      -71.723787    
   2940000   315.77109      390.02678      18511.004      19352.832      89.290205    
   2950000   320.32574      386.09959      18535.682      19380.1       -25.507792    
   2960000   294.07867      382.76208      18524.193      19327.72      -44.00729     
Loop time of 19.1174 on 64 procs for 50000 steps with 481 atoms

Performance: 11.299 ns/day, 2.124 hours/ns, 2615.425 timesteps/s, 1.258 Matom-step/s
100.0% CPU use with 64 MPI tasks x 1 OpenMP threads

MPI task timing breakdown:
Section |  min time  |  avg time  |  max time  |%varavg| %total
---------------------------------------------------------------
Pair    | 0.016827   | 0.72653    | 6.1324     | 165.5 |  3.80
Bond    | 0.0053723  | 0.78807    | 4.6213     | 149.6 |  4.12
Neigh   | 0.024467   | 0.027758   | 0.030088   |   1.0 |  0.15
Comm    | 7.833      | 14.796     | 17.629     |  85.7 | 77.40
Output  | 0.007637   | 0.015615   | 0.023236   |   4.0 |  0.08
Modify  | 0.70178    | 2.154      | 9.6534     | 190.7 | 11.27
Other   |            | 0.6092     |            |       |  3.19

Nlocal:        7.51562 ave          34 max           0 min
Histogram: 42 4 2 0 0 1 2 5 4 4
Nghost:        1822.39 ave        2417 max        1292 min
Histogram: 16 0 0 0 32 0 0 0 0 16
Neighs:              0 ave           0 max           0 min
Histogram: 64 0 0 0 0 0 0 0 0 0

Total # of neighbors = 0
Ave neighs/atom = 0
Ave special neighs/atom = 15.567568
Neighbor list builds = 55
Dangerous builds = 0
Generated 0 of 1 mixed pair_coeff terms from geometric mixing rule
Setting up Verlet run ...
  Unit style    : real
  Current step  : 2960000
  Time step     : 0.05
Per MPI rank memory allocation (min/avg/max) = 13.32 | 13.62 | 14.95 Mbytes
   Step          Temp          E_pair         E_mol          TotEng         Press     
   2960000   294.07867      382.76208      18524.193      19327.72      -44.00729     
   2970000   310.8865       389.95166      18486.298      19321.063      11.609854    
Loop time of 3.8075 on 64 procs for 10000 steps with 481 atoms

Performance: 11.346 ns/day, 2.115 hours/ns, 2626.395 timesteps/s, 1.263 Matom-step/s
100.0% CPU use with 64 MPI tasks x 1 OpenMP threads

MPI task timing breakdown:
Section |  min time  |  avg time  |  max time  |%varavg| %total
---------------------------------------------------------------
Pair    | 0.0034997  | 0.14555    | 1.1646     |  74.2 |  3.82
Bond    | 0.0010621  | 0.15711    | 0.86017    |  66.9 |  4.13
Neigh   | 0.0078083  | 0.0088368  | 0.0095912  |   0.6 |  0.23
Comm    | 1.5739     | 2.9231     | 3.5072     |  37.7 | 76.77
Output  | 0.0015721  | 0.0031508  | 0.004709   |   1.8 |  0.08
Modify  | 0.14167    | 0.44813    | 1.9088     |  82.3 | 11.77
Other   |            | 0.1216     |            |       |  3.19

Nlocal:        7.51562 ave          35 max           0 min
Histogram: 43 2 3 0 0 2 3 2 6 3
Nghost:        1820.52 ave        2413 max        1289 min
Histogram: 16 0 0 0 32 0 0 0 0 16
Neighs:              0 ave           0 max           0 min
Histogram: 64 0 0 0 0 0 0 0 0 0

Total # of neighbors = 0
Ave neighs/atom = 0
Ave special neighs/atom = 15.567568
Neighbor list builds = 18
Dangerous builds = 0
Generated 0 of 1 mixed pair_coeff terms from geometric mixing rule
Setting up Verlet run ...
  Unit style    : real
  Current step  : 2970000
  Time step     : 0.05
Per MPI rank memory allocation (min/avg/max) = 13.32 | 13.62 | 14.95 Mbytes
   Step          Temp          E_pair         E_mol          TotEng         Press     
   2970000   310.8865       389.95166      18486.298      19321.063      11.609854    
   2980000   299.42439      383.77863      18532.352      19344.543     -70.089724    
   2990000   306.35399      377.09582      18548.435      19363.859     -372.29788    
   3000000   308.92579      382.09243      18504.595      19328.695     -152.31226    
   3010000   281.27098      384.5087       18526.666      19313.614     -23.618111    
   3020000   296.183        378.36701      18505.33       19307.473     -108.47752    
Loop time of 18.8934 on 64 procs for 50000 steps with 481 atoms

Performance: 11.433 ns/day, 2.099 hours/ns, 2646.429 timesteps/s, 1.273 Matom-step/s
100.0% CPU use with 64 MPI tasks x 1 OpenMP threads

MPI task timing breakdown:
Section |  min time  |  avg time  |  max time  |%varavg| %total
---------------------------------------------------------------
Pair    | 0.017788   | 0.7269     | 5.8006     | 164.6 |  3.85
Bond    | 0.0054265  | 0.78684    | 4.2287     | 149.1 |  4.16
Neigh   | 0.039747   | 0.045352   | 0.049207   |   1.2 |  0.24
Comm    | 7.966      | 14.579     | 17.396     |  84.8 | 77.16
Output  | 0.0074613  | 0.015406   | 0.022988   |   4.0 |  0.08
Modify  | 0.69639    | 2.1332     | 9.4306     | 187.2 | 11.29
Other   |            | 0.6072     |            |       |  3.21

Nlocal:        7.51562 ave          37 max           0 min
Histogram: 42 5 1 0 1 1 4 5 4 1
Nghost:        1816.77 ave        2398 max        1291 min
Histogram: 16 0 0 0 32 0 0 0 0 16
Neighs:              0 ave           0 max           0 min
Histogram: 64 0 0 0 0 0 0 0 0 0

Total # of neighbors = 0
Ave neighs/atom = 0
Ave special neighs/atom = 15.567568
Neighbor list builds = 93
Dangerous builds = 0
Generated 0 of 1 mixed pair_coeff terms from geometric mixing rule
Setting up Verlet run ...
  Unit style    : real
  Current step  : 3020000
  Time step     : 0.05
Per MPI rank memory allocation (min/avg/max) = 13.32 | 13.62 | 14.95 Mbytes
   Step          Temp          E_pair         E_mol          TotEng         Press     
   3020000   296.183        378.36701      18505.33       19307.473     -108.47752    
   3030000   299.69755      389.9817       18510.803      19329.589      62.399296    
Loop time of 3.70468 on 64 procs for 10000 steps with 481 atoms

Performance: 11.661 ns/day, 2.058 hours/ns, 2699.292 timesteps/s, 1.298 Matom-step/s
100.0% CPU use with 64 MPI tasks x 1 OpenMP threads

MPI task timing breakdown:
Section |  min time  |  avg time  |  max time  |%varavg| %total
---------------------------------------------------------------
Pair    | 0.0034596  | 0.1451     | 1.1466     |  73.4 |  3.92
Bond    | 0.0010663  | 0.15677    | 0.86256    |  66.6 |  4.23
Neigh   | 0.005037   | 0.0057277  | 0.0062205  |   0.4 |  0.15
Comm    | 1.562      | 2.8622     | 3.4117     |  37.5 | 77.26
Output  | 0.0014611  | 0.0030343  | 0.004574   |   1.8 |  0.08
Modify  | 0.13428    | 0.41082    | 1.8137     |  82.1 | 11.09
Other   |            | 0.1211     |            |       |  3.27

Nlocal:        7.51562 ave          38 max           0 min
Histogram: 40 8 0 1 0 2 4 3 5 1
Nghost:        1817.52 ave        2404 max        1291 min
Histogram: 16 0 0 0 32 0 0 0 0 16
Neighs:              0 ave           0 max           0 min
Histogram: 64 0 0 0 0 0 0 0 0 0

Total # of neighbors = 0
Ave neighs/atom = 0
Ave special neighs/atom = 15.567568
Neighbor list builds = 12
Dangerous builds = 0
Generated 0 of 1 mixed pair_coeff terms from geometric mixing rule
Setting up Verlet run ...
  Unit style    : real
  Current step  : 3030000
  Time step     : 0.05
Per MPI rank memory allocation (min/avg/max) = 13.32 | 13.62 | 14.95 Mbytes
   Step          Temp          E_pair         E_mol          TotEng         Press     
   3030000   299.69755      389.9817       18510.803      19329.589      62.399296    
   3040000   295.42746      378.97448      18538.203      19339.871     -154.50851    
   3050000   304.91993      371.1065       18501.423      19308.806     -204.77225    
   3060000   293.41363      384.79682      18514.54       19319.149     -105.51114    
   3070000   299.09134      373.63201      18533.504      19335.072     -359.82326    
   3080000   302.82188      379.96332      18518.983      19332.22      -247.49056    
Loop time of 18.8818 on 64 procs for 50000 steps with 481 atoms

Performance: 11.440 ns/day, 2.098 hours/ns, 2648.059 timesteps/s, 1.274 Matom-step/s
100.0% CPU use with 64 MPI tasks x 1 OpenMP threads

MPI task timing breakdown:
Section |  min time  |  avg time  |  max time  |%varavg| %total
---------------------------------------------------------------
Pair    | 0.017638   | 0.72652    | 5.9659     | 164.6 |  3.85
Bond    | 0.0053401  | 0.78652    | 4.1244     | 148.4 |  4.17
Neigh   | 0.029393   | 0.033333   | 0.035937   |   1.0 |  0.18
Comm    | 7.7629     | 14.572     | 17.409     |  84.8 | 77.17
Output  | 0.0074414  | 0.015331   | 0.022896   |   4.0 |  0.08
Modify  | 0.69448    | 2.1415     | 9.4384     | 187.8 | 11.34
Other   |            | 0.6066     |            |       |  3.21

Nlocal:        7.51562 ave          34 max           0 min
Histogram: 42 4 2 0 0 1 1 7 4 3
Nghost:        1817.05 ave        2404 max        1293 min
Histogram: 16 0 0 0 32 0 0 0 0 16
Neighs:              0 ave           0 max           0 min
Histogram: 64 0 0 0 0 0 0 0 0 0

Total # of neighbors = 0
Ave neighs/atom = 0
Ave special neighs/atom = 15.567568
Neighbor list builds = 67
Dangerous builds = 0
Total wall time: 0:19:24
