LAMMPS (27 Jun 2024)
OMP_NUM_THREADS environment is not set. Defaulting to 1 thread. (src/comm.cpp:98)
  using 1 OpenMP thread(s) per MPI task
Reading data file ...
  orthogonal box = (-30 -30 -30) to (30 30 30)
  4 by 4 by 4 MPI processor grid
  reading atoms ...
  480 atoms
  reading velocities ...
  480 velocities
  scanning bonds ...
  2 = max bonds/atom
  scanning angles ...
  3 = max angles/atom
  scanning dihedrals ...
  8 = max dihedrals/atom
  scanning impropers ...
  2 = max impropers/atom
  orthogonal box = (-30 -30 -30) to (30 30 30)
  4 by 4 by 4 MPI processor grid
  reading bonds ...
  676 bonds
  reading angles ...
  1268 angles
  reading dihedrals ...
  2394 dihedrals
  reading impropers ...
  396 impropers
Finding 1-2 1-3 1-4 neighbors ...
  special bond factors lj:    0        0        0       
  special bond factors coul:  0        0        0       
     3 = max # of 1-2 neighbors
     6 = max # of 1-3 neighbors
    18 = max # of 1-4 neighbors
    18 = max # of special neighbors
  special bonds CPU = 0.002 seconds
  read_data CPU = 0.051 seconds
Finding 1-2 1-3 1-4 neighbors ...
  special bond factors lj:    0        0        0.5     
  special bond factors coul:  0        0        0       
     3 = max # of 1-2 neighbors
     6 = max # of 1-3 neighbors
    18 = max # of 1-4 neighbors
    18 = max # of special neighbors
  special bonds CPU = 0.001 seconds
Created 1 atoms
  using lattice units in orthogonal box = (-30 -30 -30) to (30 30 30)
  create_atoms CPU = 0.000 seconds
480 atoms in group C
1 atoms in group H2

CITE-CITE-CITE-CITE-CITE-CITE-CITE-CITE-CITE-CITE-CITE-CITE-CITE

Your simulation uses code contributions which should be cited:
- Type Label Framework: https://doi.org/10.1021/acs.jpcb.3c08419
The log file lists these citations in BibTeX format.

CITE-CITE-CITE-CITE-CITE-CITE-CITE-CITE-CITE-CITE-CITE-CITE-CITE

Generated 0 of 1 mixed pair_coeff terms from geometric mixing rule
Neighbor list info ...
  update: every = 1 steps, delay = 3 steps, check = yes
  max neighbors/atom: 6000, page size: 100000
  master list distance cutoff = 31
  ghost atom cutoff = 31
  binsize = 15.5, bins = 4 4 4
  4 neighbor lists, perpetual/occasional/extra = 4 0 0
  (1) pair lj/cut, perpetual, skip trim from (4)
      attributes: half, newton on, cut 15
      pair build: skip/trim
      stencil: none
      bin: none
  (2) pair sg, perpetual, skip trim from (4)
      attributes: half, newton on, cut 16
      pair build: skip/trim
      stencil: none
      bin: none
  (3) pair cb, perpetual, skip from (4)
      attributes: half, newton on
      pair build: skip
      stencil: none
      bin: none
  (4) neighbor class addition, perpetual
      attributes: half, newton on
      pair build: half/bin/newton
      stencil: half/bin/3d
      bin: standard
Setting up Verlet run ...
  Unit style    : real
  Current step  : 0
  Time step     : 0.05
Per MPI rank memory allocation (min/avg/max) = 13.29 | 13.4 | 13.93 Mbytes
   Step          Temp          E_pair         E_mol          TotEng         Press          Volume    
         0   300            308.5124       19603.922      20341.671     -432.43506      216000       
     10000   308.71881      373.71132      18568.425      19383.847     -313.89117      172136.83    
     20000   319.74694      375.11214      18539.114      19371.717     -417.40409      126541.73    
Loop time of 7.29157 on 64 procs for 20000 steps with 481 atoms

Performance: 11.849 ns/day, 2.025 hours/ns, 2742.894 timesteps/s, 1.319 Matom-step/s
99.7% CPU use with 64 MPI tasks x 1 OpenMP threads

MPI task timing breakdown:
Section |  min time  |  avg time  |  max time  |%varavg| %total
---------------------------------------------------------------
Pair    | 0.13591    | 0.44442    | 2.1355     |  71.2 |  6.09
Bond    | 0.0039874  | 0.34858    | 1.9701     | 101.4 |  4.78
Neigh   | 0.020584   | 0.023659   | 0.026423   |   1.0 |  0.32
Comm    | 2.0925     | 4.2209     | 5.1759     |  41.1 | 57.89
Output  | 0.0040324  | 0.011149   | 0.019203   |   4.7 |  0.15
Modify  | 0.7102     | 1.9138     | 3.8869     |  70.6 | 26.25
Other   |            | 0.3291     |            |       |  4.51

Nlocal:        7.51562 ave          36 max           0 min
Histogram: 41 7 0 0 0 1 2 9 3 1
Nghost:        1804.95 ave        2371 max        1288 min
Histogram: 16 0 0 0 32 0 0 0 0 16
Neighs:              0 ave           0 max           0 min
Histogram: 64 0 0 0 0 0 0 0 0 0

Total # of neighbors = 0
Ave neighs/atom = 0
Ave special neighs/atom = 15.567568
Neighbor list builds = 52
Dangerous builds = 0
Generated 0 of 1 mixed pair_coeff terms from geometric mixing rule
Setting up Verlet run ...
  Unit style    : real
  Current step  : 20000
  Time step     : 0.05
Per MPI rank memory allocation (min/avg/max) = 13.32 | 13.62 | 14.95 Mbytes
   Step          Temp          E_pair         E_mol          TotEng         Press     
     20000   319.74694      375.11214      18539.114      19371.717     -417.40409    
     30000   294.64029      350.53553      18619.492      19391.596     -1286.8095    
Loop time of 3.56522 on 64 procs for 10000 steps with 481 atoms

Performance: 12.117 ns/day, 1.981 hours/ns, 2804.873 timesteps/s, 1.349 Matom-step/s
99.9% CPU use with 64 MPI tasks x 1 OpenMP threads

MPI task timing breakdown:
Section |  min time  |  avg time  |  max time  |%varavg| %total
---------------------------------------------------------------
Pair    | 0.0034473  | 0.14246    | 1.1125     |  68.2 |  4.00
Bond    | 0.0010655  | 0.15788    | 0.92619    |  65.9 |  4.43
Neigh   | 0.028312   | 0.031687   | 0.034968   |   0.9 |  0.89
Comm    | 1.2251     | 2.6904     | 3.2425     |  37.4 | 75.46
Output  | 0.0015352  | 0.0041525  | 0.0070343  |   2.7 |  0.12
Modify  | 0.12001    | 0.41043    | 1.8888     |  81.7 | 11.51
Other   |            | 0.1282     |            |       |  3.60

Nlocal:        7.51562 ave          36 max           0 min
Histogram: 42 5 1 1 0 3 5 2 1 4
Nghost:        1807.48 ave        2382 max        1288 min
Histogram: 16 0 0 0 32 0 0 0 0 16
Neighs:              0 ave           0 max           0 min
Histogram: 64 0 0 0 0 0 0 0 0 0

Total # of neighbors = 0
Ave neighs/atom = 0
Ave special neighs/atom = 15.567568
Neighbor list builds = 66
Dangerous builds = 0
Generated 0 of 1 mixed pair_coeff terms from geometric mixing rule
Setting up Verlet run ...
  Unit style    : real
  Current step  : 30000
  Time step     : 0.05
Per MPI rank memory allocation (min/avg/max) = 13.32 | 13.62 | 14.95 Mbytes
   Step          Temp          E_pair         E_mol          TotEng         Press     
     30000   294.64029      350.53553      18619.492      19391.596     -1286.8095    
     40000   294.4637       412.80451      18550.749      19384.869      598.49072    
     50000   297.31346      406.65506      18540.762      19372.81       339.8859     
     60000   286.51911      377.91415      18563.124      19350.986     -570.52796    
     70000   274.32487      395.21245      18534.981      19322.694     -9.9549006    
     80000   298.81365      395.5058       18515.965      19339.01       151.93656    
Loop time of 17.992 on 64 procs for 50000 steps with 481 atoms

Performance: 12.005 ns/day, 1.999 hours/ns, 2779.005 timesteps/s, 1.337 Matom-step/s
100.0% CPU use with 64 MPI tasks x 1 OpenMP threads

MPI task timing breakdown:
Section |  min time  |  avg time  |  max time  |%varavg| %total
---------------------------------------------------------------
Pair    | 0.017005   | 0.70915    | 5.3968     | 156.3 |  3.94
Bond    | 0.0053432  | 0.79259    | 4.3882     | 148.5 |  4.41
Neigh   | 0.098131   | 0.10607    | 0.11676    |   1.5 |  0.59
Comm    | 6.818      | 13.727     | 16.503     |  86.7 | 76.30
Output  | 0.0076259  | 0.017643   | 0.028001   |   4.9 |  0.10
Modify  | 0.6012     | 2.0284     | 9.734      | 193.5 | 11.27
Other   |            | 0.611      |            |       |  3.40

Nlocal:        7.51562 ave          32 max           0 min
Histogram: 41 6 1 0 0 1 0 4 5 6
Nghost:        1819.66 ave        2404 max        1293 min
Histogram: 16 0 0 0 32 0 0 0 0 16
Neighs:              0 ave           0 max           0 min
Histogram: 64 0 0 0 0 0 0 0 0 0

Total # of neighbors = 0
Ave neighs/atom = 0
Ave special neighs/atom = 15.567568
Neighbor list builds = 218
Dangerous builds = 0
Generated 0 of 1 mixed pair_coeff terms from geometric mixing rule
Setting up Verlet run ...
  Unit style    : real
  Current step  : 80000
  Time step     : 0.05
Per MPI rank memory allocation (min/avg/max) = 13.32 | 13.62 | 14.95 Mbytes
   Step          Temp          E_pair         E_mol          TotEng         Press     
     80000   298.81365      395.5058       18515.965      19339.01       151.93656    
     90000   286.6413       377.33157      18569.523      19356.977     -526.82711    
Loop time of 3.66534 on 64 procs for 10000 steps with 481 atoms

Performance: 11.786 ns/day, 2.036 hours/ns, 2728.259 timesteps/s, 1.312 Matom-step/s
100.0% CPU use with 64 MPI tasks x 1 OpenMP threads

MPI task timing breakdown:
Section |  min time  |  avg time  |  max time  |%varavg| %total
---------------------------------------------------------------
Pair    | 0.0033791  | 0.14166    | 1.0522     |  69.3 |  3.86
Bond    | 0.0010581  | 0.15793    | 0.93987    |  66.2 |  4.31
Neigh   | 0.014777   | 0.015899   | 0.017393   |   0.6 |  0.43
Comm    | 1.427      | 2.8022     | 3.3775     |  39.4 | 76.45
Output  | 0.0015276  | 0.0031772  | 0.004852   |   1.9 |  0.09
Modify  | 0.12087    | 0.42246    | 2.0205     |  89.9 | 11.53
Other   |            | 0.122      |            |       |  3.33

Nlocal:        7.51562 ave          35 max           0 min
Histogram: 43 3 2 0 1 1 2 4 6 2
Nghost:           1813 ave        2390 max        1294 min
Histogram: 16 0 0 0 32 0 0 0 0 16
Neighs:              0 ave           0 max           0 min
Histogram: 64 0 0 0 0 0 0 0 0 0

Total # of neighbors = 0
Ave neighs/atom = 0
Ave special neighs/atom = 15.567568
Neighbor list builds = 31
Dangerous builds = 0
Generated 0 of 1 mixed pair_coeff terms from geometric mixing rule
Setting up Verlet run ...
  Unit style    : real
  Current step  : 90000
  Time step     : 0.05
Per MPI rank memory allocation (min/avg/max) = 13.32 | 13.62 | 14.95 Mbytes
   Step          Temp          E_pair         E_mol          TotEng         Press     
     90000   286.6413       377.33157      18569.523      19356.977     -526.82711    
    100000   317.19196      387.13633      18537.81       19378.781      39.044245    
    110000   299.57068      397.35708      18540.109      19366.088      110.35049    
    120000   286.04152      378.49435      18553.333      19341.092     -347.18376    
    130000   284.23234      395.16228      18519.62       19321.459      102.80107    
    140000   301.97047      382.66225      18549.528      19364.246     -204.74137    
Loop time of 17.8951 on 64 procs for 50000 steps with 481 atoms

Performance: 12.070 ns/day, 1.988 hours/ns, 2794.060 timesteps/s, 1.344 Matom-step/s
100.0% CPU use with 64 MPI tasks x 1 OpenMP threads

MPI task timing breakdown:
Section |  min time  |  avg time  |  max time  |%varavg| %total
---------------------------------------------------------------
Pair    | 0.016722   | 0.70716    | 5.4279     | 155.3 |  3.95
Bond    | 0.005331   | 0.78959    | 4.7148     | 148.1 |  4.41
Neigh   | 0.047767   | 0.05172    | 0.056787   |   1.1 |  0.29
Comm    | 6.4275     | 13.685     | 16.481     |  86.6 | 76.47
Output  | 0.0077154  | 0.015318   | 0.022896   |   3.9 |  0.09
Modify  | 0.60215    | 2.0381     | 9.7278     | 193.8 | 11.39
Other   |            | 0.6086     |            |       |  3.40

Nlocal:        7.51562 ave          37 max           0 min
Histogram: 43 3 2 0 2 1 2 5 4 2
Nghost:        1821.08 ave        2415 max        1292 min
Histogram: 16 0 0 0 32 0 0 0 0 16
Neighs:              0 ave           0 max           0 min
Histogram: 64 0 0 0 0 0 0 0 0 0

Total # of neighbors = 0
Ave neighs/atom = 0
Ave special neighs/atom = 15.567568
Neighbor list builds = 104
Dangerous builds = 0
Generated 0 of 1 mixed pair_coeff terms from geometric mixing rule
Setting up Verlet run ...
  Unit style    : real
  Current step  : 140000
  Time step     : 0.05
Per MPI rank memory allocation (min/avg/max) = 13.32 | 13.62 | 14.95 Mbytes
   Step          Temp          E_pair         E_mol          TotEng         Press     
    140000   301.97047      382.66225      18549.528      19364.246     -204.74137    
    150000   291.36233      383.75389      18567.718      19368.35      -57.514922    
Loop time of 3.56728 on 64 procs for 10000 steps with 481 atoms

Performance: 12.110 ns/day, 1.982 hours/ns, 2803.259 timesteps/s, 1.348 Matom-step/s
100.0% CPU use with 64 MPI tasks x 1 OpenMP threads

MPI task timing breakdown:
Section |  min time  |  avg time  |  max time  |%varavg| %total
---------------------------------------------------------------
Pair    | 0.0033761  | 0.14164    | 1.1104     |  69.8 |  3.97
Bond    | 0.0010637  | 0.15799    | 0.97134    |  66.6 |  4.43
Neigh   | 0.0078072  | 0.0084669  | 0.0093202  |   0.4 |  0.24
Comm    | 1.2287     | 2.7293     | 3.2907     |  39.0 | 76.51
Output  | 0.001531   | 0.0031029  | 0.0046053  |   1.8 |  0.09
Modify  | 0.115      | 0.4059     | 1.9356     |  87.2 | 11.38
Other   |            | 0.1209     |            |       |  3.39

Nlocal:        7.51562 ave          37 max           0 min
Histogram: 44 3 1 0 1 0 3 8 3 1
Nghost:        1821.73 ave        2416 max        1293 min
Histogram: 16 0 0 0 32 0 0 0 0 16
Neighs:              0 ave           0 max           0 min
Histogram: 64 0 0 0 0 0 0 0 0 0

Total # of neighbors = 0
Ave neighs/atom = 0
Ave special neighs/atom = 15.567568
Neighbor list builds = 17
Dangerous builds = 0
Generated 0 of 1 mixed pair_coeff terms from geometric mixing rule
Setting up Verlet run ...
  Unit style    : real
  Current step  : 150000
  Time step     : 0.05
Per MPI rank memory allocation (min/avg/max) = 13.32 | 13.62 | 14.95 Mbytes
   Step          Temp          E_pair         E_mol          TotEng         Press     
    150000   291.36233      383.75389      18567.718      19368.35      -57.514922    
    160000   316.63896      398.51819      18537.689      19389.251      247.01929    
    170000   322.60033      375.46848      18560.878      19397.919     -294.08762    
    180000   296.64687      376.77832      18562.789      19364.006     -275.63216    
    190000   305.09234      382.66111      18530.53       19349.714     -100.01237    
    200000   298.9023       396.85652      18534.893      19359.416      211.86532    
Loop time of 17.5828 on 64 procs for 50000 steps with 481 atoms

Performance: 12.285 ns/day, 1.954 hours/ns, 2843.688 timesteps/s, 1.368 Matom-step/s
100.0% CPU use with 64 MPI tasks x 1 OpenMP threads

MPI task timing breakdown:
Section |  min time  |  avg time  |  max time  |%varavg| %total
---------------------------------------------------------------
Pair    | 0.016785   | 0.70675    | 5.4864     | 155.0 |  4.02
Bond    | 0.0053086  | 0.78954    | 4.8933     | 148.4 |  4.49
Neigh   | 0.028269   | 0.030664   | 0.033747   |   0.8 |  0.17
Comm    | 5.9117     | 13.435     | 16.19      |  85.6 | 76.41
Output  | 0.0075339  | 0.014514   | 0.021366   |   3.6 |  0.08
Modify  | 0.5964     | 1.9994     | 9.4435     | 188.9 | 11.37
Other   |            | 0.6069     |            |       |  3.45

Nlocal:        7.51562 ave          36 max           0 min
Histogram: 41 7 0 0 0 2 6 1 2 5
Nghost:        1826.42 ave        2421 max        1288 min
Histogram: 16 0 0 0 32 0 0 0 0 16
Neighs:              0 ave           0 max           0 min
Histogram: 64 0 0 0 0 0 0 0 0 0

Total # of neighbors = 0
Ave neighs/atom = 0
Ave special neighs/atom = 15.567568
Neighbor list builds = 63
Dangerous builds = 0
Generated 0 of 1 mixed pair_coeff terms from geometric mixing rule
Setting up Verlet run ...
  Unit style    : real
  Current step  : 200000
  Time step     : 0.05
Per MPI rank memory allocation (min/avg/max) = 13.32 | 13.62 | 14.95 Mbytes
   Step          Temp          E_pair         E_mol          TotEng         Press     
    200000   298.9023       396.85652      18534.893      19359.416      211.86532    
    210000   314.77995      384.66808      18562.024      19397.076     -297.62364    
Loop time of 3.54265 on 64 procs for 10000 steps with 481 atoms

Performance: 12.194 ns/day, 1.968 hours/ns, 2822.748 timesteps/s, 1.358 Matom-step/s
100.0% CPU use with 64 MPI tasks x 1 OpenMP threads

MPI task timing breakdown:
Section |  min time  |  avg time  |  max time  |%varavg| %total
---------------------------------------------------------------
Pair    | 0.003393   | 0.14184    | 1.1075     |  69.9 |  4.00
Bond    | 0.0010535  | 0.15819    | 0.99391    |  67.1 |  4.47
Neigh   | 0.0046053  | 0.0049916  | 0.0055073  |   0.3 |  0.14
Comm    | 1.185      | 2.7095     | 3.2589     |  39.0 | 76.48
Output  | 0.0015653  | 0.0029042  | 0.0042488  |   1.6 |  0.08
Modify  | 0.12594    | 0.40392    | 1.9214     |  86.1 | 11.40
Other   |            | 0.1213     |            |       |  3.42

Nlocal:        7.51562 ave          37 max           0 min
Histogram: 42 4 2 0 0 4 3 3 2 4
Nghost:        1821.27 ave        2409 max        1287 min
Histogram: 16 0 0 0 32 0 0 0 0 16
Neighs:              0 ave           0 max           0 min
Histogram: 64 0 0 0 0 0 0 0 0 0

Total # of neighbors = 0
Ave neighs/atom = 0
Ave special neighs/atom = 15.567568
Neighbor list builds = 10
Dangerous builds = 0
Generated 0 of 1 mixed pair_coeff terms from geometric mixing rule
Setting up Verlet run ...
  Unit style    : real
  Current step  : 210000
  Time step     : 0.05
Per MPI rank memory allocation (min/avg/max) = 13.32 | 13.62 | 14.95 Mbytes
   Step          Temp          E_pair         E_mol          TotEng         Press     
    210000   314.77995      384.66808      18562.024      19397.076     -297.62364    
    220000   301.08723      391.216        18523.71       19345.718     -55.795173    
    230000   284.7573       394.17789      18536.986      19338.592     -44.683581    
    240000   287.03706      376.74007      18540.852      19328.282     -398.40488    
    250000   312.32054      400.06708      18510.813      19357.745      296.77983    
    260000   305.3936       387.45931      18541.834      19366.247     -114.98353    
Loop time of 17.4743 on 64 procs for 50000 steps with 481 atoms

Performance: 12.361 ns/day, 1.942 hours/ns, 2861.347 timesteps/s, 1.376 Matom-step/s
100.0% CPU use with 64 MPI tasks x 1 OpenMP threads

MPI task timing breakdown:
Section |  min time  |  avg time  |  max time  |%varavg| %total
---------------------------------------------------------------
Pair    | 0.017154   | 0.70873    | 5.3104     | 156.5 |  4.06
Bond    | 0.0052881  | 0.79084    | 4.6667     | 148.7 |  4.53
Neigh   | 0.027482   | 0.02974    | 0.032853   |   0.8 |  0.17
Comm    | 6.2209     | 13.359     | 16.074     |  86.0 | 76.45
Output  | 0.007489   | 0.014275   | 0.020944   |   3.6 |  0.08
Modify  | 0.59976    | 1.9671     | 9.3345     | 188.7 | 11.26
Other   |            | 0.6044     |            |       |  3.46

Nlocal:        7.51562 ave          35 max           0 min
Histogram: 42 5 1 0 0 1 2 5 5 3
Nghost:        1822.39 ave        2418 max        1289 min
Histogram: 16 0 0 0 32 0 0 0 0 16
Neighs:              0 ave           0 max           0 min
Histogram: 64 0 0 0 0 0 0 0 0 0

Total # of neighbors = 0
Ave neighs/atom = 0
Ave special neighs/atom = 15.567568
Neighbor list builds = 62
Dangerous builds = 0
Generated 0 of 1 mixed pair_coeff terms from geometric mixing rule
Setting up Verlet run ...
  Unit style    : real
  Current step  : 260000
  Time step     : 0.05
Per MPI rank memory allocation (min/avg/max) = 13.32 | 13.62 | 14.95 Mbytes
   Step          Temp          E_pair         E_mol          TotEng         Press     
    260000   305.3936       387.45931      18541.834      19366.247     -114.98353    
    270000   298.18105      377.20675      18542.158      19345.999     -339.1162     
Loop time of 3.40338 on 64 procs for 10000 steps with 481 atoms

Performance: 12.693 ns/day, 1.891 hours/ns, 2938.254 timesteps/s, 1.413 Matom-step/s
100.0% CPU use with 64 MPI tasks x 1 OpenMP threads

MPI task timing breakdown:
Section |  min time  |  avg time  |  max time  |%varavg| %total
---------------------------------------------------------------
Pair    | 0.0033016  | 0.14117    | 1.0971     |  69.0 |  4.15
Bond    | 0.0010539  | 0.15725    | 0.92994    |  65.8 |  4.62
Neigh   | 0.0050062  | 0.0054878  | 0.0060551  |   0.4 |  0.16
Comm    | 1.2039     | 2.5837     | 3.1252     |  37.6 | 75.92
Output  | 0.0013995  | 0.0027399  | 0.0040831  |   1.6 |  0.08
Modify  | 0.11792    | 0.39231    | 1.7801     |  81.3 | 11.53
Other   |            | 0.1207     |            |       |  3.55

Nlocal:        7.51562 ave          34 max           0 min
Histogram: 41 6 1 0 0 1 1 7 3 4
Nghost:        1820.89 ave        2411 max        1290 min
Histogram: 16 0 0 0 32 0 0 0 0 16
Neighs:              0 ave           0 max           0 min
Histogram: 64 0 0 0 0 0 0 0 0 0

Total # of neighbors = 0
Ave neighs/atom = 0
Ave special neighs/atom = 15.567568
Neighbor list builds = 12
Dangerous builds = 0
Generated 0 of 1 mixed pair_coeff terms from geometric mixing rule
Setting up Verlet run ...
  Unit style    : real
  Current step  : 270000
  Time step     : 0.05
Per MPI rank memory allocation (min/avg/max) = 13.32 | 13.62 | 14.95 Mbytes
   Step          Temp          E_pair         E_mol          TotEng         Press     
    270000   298.18105      377.20675      18542.158      19345.999     -339.1162     
    280000   283.22928      387.10609      18541.233      19333.58      -109.75707    
    290000   287.90323      387.55502      18530.806      19330.289      47.812254    
    300000   296.42378      377.72757      18550.618      19352.466     -295.65594    
    310000   294.68762      389.22614      18541.928      19352.79      -32.24703     
    320000   287.39597      380.55289      18545.6        19337.356     -292.51416    
Loop time of 17.6419 on 64 procs for 50000 steps with 481 atoms

Performance: 12.244 ns/day, 1.960 hours/ns, 2834.156 timesteps/s, 1.363 Matom-step/s
100.0% CPU use with 64 MPI tasks x 1 OpenMP threads

MPI task timing breakdown:
Section |  min time  |  avg time  |  max time  |%varavg| %total
---------------------------------------------------------------
Pair    | 0.017      | 0.70837    | 5.328      | 154.9 |  4.02
Bond    | 0.0053183  | 0.78729    | 4.6477     | 147.7 |  4.46
Neigh   | 0.030307   | 0.032824   | 0.036307   |   0.9 |  0.19
Comm    | 6.3918     | 13.442     | 16.261     |  86.1 | 76.19
Output  | 0.0073431  | 0.014148   | 0.020791   |   3.6 |  0.08
Modify  | 0.58792    | 2.05       | 9.4348     | 191.0 | 11.62
Other   |            | 0.607      |            |       |  3.44

Nlocal:        7.51562 ave          36 max           0 min
Histogram: 42 5 1 0 1 1 2 6 4 2
Nghost:        1820.14 ave        2414 max        1292 min
Histogram: 16 0 0 0 32 0 0 0 0 16
Neighs:              0 ave           0 max           0 min
Histogram: 64 0 0 0 0 0 0 0 0 0

Total # of neighbors = 0
Ave neighs/atom = 0
Ave special neighs/atom = 15.567568
Neighbor list builds = 68
Dangerous builds = 0
Generated 0 of 1 mixed pair_coeff terms from geometric mixing rule
Setting up Verlet run ...
  Unit style    : real
  Current step  : 320000
  Time step     : 0.05
Per MPI rank memory allocation (min/avg/max) = 13.32 | 13.62 | 14.95 Mbytes
   Step          Temp          E_pair         E_mol          TotEng         Press     
    320000   287.39597      380.55289      18545.6        19337.356     -292.51416    
    330000   283.28908      383.67566      18520.304      19309.307     -190.07291    
Loop time of 3.59694 on 64 procs for 10000 steps with 481 atoms

Performance: 12.010 ns/day, 1.998 hours/ns, 2780.140 timesteps/s, 1.337 Matom-step/s
99.9% CPU use with 64 MPI tasks x 1 OpenMP threads

MPI task timing breakdown:
Section |  min time  |  avg time  |  max time  |%varavg| %total
---------------------------------------------------------------
Pair    | 0.0033069  | 0.14145    | 1.1818     |  69.6 |  3.93
Bond    | 0.001063   | 0.15792    | 0.99662    |  66.8 |  4.39
Neigh   | 0.0040478  | 0.0044139  | 0.0048496  |   0.3 |  0.12
Comm    | 1.1555     | 2.7386     | 3.3217     |  39.5 | 76.14
Output  | 0.001481   | 0.0028168  | 0.0041658  |   1.6 |  0.08
Modify  | 0.11464    | 0.42848    | 1.9716     |  88.1 | 11.91
Other   |            | 0.1232     |            |       |  3.43

Nlocal:        7.51562 ave          34 max           0 min
Histogram: 41 7 0 0 0 1 1 6 4 4
Nghost:         1819.3 ave        2409 max        1291 min
Histogram: 16 0 0 0 32 0 0 0 0 16
Neighs:              0 ave           0 max           0 min
Histogram: 64 0 0 0 0 0 0 0 0 0

Total # of neighbors = 0
Ave neighs/atom = 0
Ave special neighs/atom = 15.567568
Neighbor list builds = 9
Dangerous builds = 0
Generated 0 of 1 mixed pair_coeff terms from geometric mixing rule
Setting up Verlet run ...
  Unit style    : real
  Current step  : 330000
  Time step     : 0.05
Per MPI rank memory allocation (min/avg/max) = 13.32 | 13.62 | 14.95 Mbytes
   Step          Temp          E_pair         E_mol          TotEng         Press     
    330000   283.28908      383.67566      18520.304      19309.307     -190.07291    
    340000   302.67467      392.3411       18546.651      19372.055      54.768824    
    350000   294.4604       388.53392      18566.235      19376.079     -212.72535    
    360000   316.04315      392.74354      18528.26       19373.195      147.4515     
    370000   315.87543      388.55294      18510.885      19351.389      42.943382    
    380000   286.13173      378.65439      18572.183      19360.232     -290.00617    
Loop time of 17.3528 on 64 procs for 50000 steps with 481 atoms

Performance: 12.448 ns/day, 1.928 hours/ns, 2881.387 timesteps/s, 1.386 Matom-step/s
100.0% CPU use with 64 MPI tasks x 1 OpenMP threads

MPI task timing breakdown:
Section |  min time  |  avg time  |  max time  |%varavg| %total
---------------------------------------------------------------
Pair    | 0.016037   | 0.7081     | 5.3045     | 154.3 |  4.08
Bond    | 0.0053235  | 0.7909     | 4.7527     | 148.7 |  4.56
Neigh   | 0.037922   | 0.040996   | 0.045364   |   1.0 |  0.24
Comm    | 6.0126     | 13.217     | 15.934     |  85.4 | 76.17
Output  | 0.0074583  | 0.014261   | 0.020889   |   3.6 |  0.08
Modify  | 0.61082    | 1.9737     | 9.2164     | 186.3 | 11.37
Other   |            | 0.6076     |            |       |  3.50

Nlocal:        7.51562 ave          37 max           0 min
Histogram: 42 5 1 0 0 4 3 3 3 3
Nghost:        1816.67 ave        2413 max        1287 min
Histogram: 16 0 0 0 32 0 0 0 0 16
Neighs:              0 ave           0 max           0 min
Histogram: 64 0 0 0 0 0 0 0 0 0

Total # of neighbors = 0
Ave neighs/atom = 0
Ave special neighs/atom = 15.567568
Neighbor list builds = 86
Dangerous builds = 0
Generated 0 of 1 mixed pair_coeff terms from geometric mixing rule
Setting up Verlet run ...
  Unit style    : real
  Current step  : 380000
  Time step     : 0.05
Per MPI rank memory allocation (min/avg/max) = 13.32 | 13.62 | 14.95 Mbytes
   Step          Temp          E_pair         E_mol          TotEng         Press     
    380000   286.13173      378.65439      18572.183      19360.232     -290.00617    
    390000   307.35054      389.09808      18541.65       19370.502      97.63685     
Loop time of 3.44533 on 64 procs for 10000 steps with 481 atoms

Performance: 12.539 ns/day, 1.914 hours/ns, 2902.479 timesteps/s, 1.396 Matom-step/s
100.0% CPU use with 64 MPI tasks x 1 OpenMP threads

MPI task timing breakdown:
Section |  min time  |  avg time  |  max time  |%varavg| %total
---------------------------------------------------------------
Pair    | 0.0031832  | 0.14158    | 1.0801     |  68.8 |  4.11
Bond    | 0.0010576  | 0.1581     | 0.95987    |  66.4 |  4.59
Neigh   | 0.0063833  | 0.0069546  | 0.0077293  |   0.4 |  0.20
Comm    | 1.1518     | 2.6205     | 3.164      |  38.0 | 76.06
Output  | 0.0014573  | 0.0028115  | 0.0041605  |   1.6 |  0.08
Modify  | 0.12084    | 0.39391    | 1.8119     |  82.4 | 11.43
Other   |            | 0.1215     |            |       |  3.53

Nlocal:        7.51562 ave          37 max           0 min
Histogram: 42 6 0 0 1 3 4 1 5 2
Nghost:         1817.8 ave        2413 max        1287 min
Histogram: 16 0 0 0 32 0 0 0 0 16
Neighs:              0 ave           0 max           0 min
Histogram: 64 0 0 0 0 0 0 0 0 0

Total # of neighbors = 0
Ave neighs/atom = 0
Ave special neighs/atom = 15.567568
Neighbor list builds = 15
Dangerous builds = 0
Generated 0 of 1 mixed pair_coeff terms from geometric mixing rule
Setting up Verlet run ...
  Unit style    : real
  Current step  : 390000
  Time step     : 0.05
Per MPI rank memory allocation (min/avg/max) = 13.32 | 13.62 | 14.95 Mbytes
   Step          Temp          E_pair         E_mol          TotEng         Press     
    390000   307.35054      389.09808      18541.65       19370.502      97.63685     
    400000   327.21612      392.32877      18571.323      19431.829      124.4541     
    410000   294.56442      381.00706      18545.643      19348.11      -215.66778    
    420000   279.63809      391.17562      18547.213      19338.492      32.166855    
    430000   310.58014      377.90957      18555.976      19378.26      -355.48617    
    440000   308.54867      382.13101      18558.756      19382.355     -106.2249     
Loop time of 17.5553 on 64 procs for 50000 steps with 481 atoms

Performance: 12.304 ns/day, 1.951 hours/ns, 2848.148 timesteps/s, 1.370 Matom-step/s
100.0% CPU use with 64 MPI tasks x 1 OpenMP threads

MPI task timing breakdown:
Section |  min time  |  avg time  |  max time  |%varavg| %total
---------------------------------------------------------------
Pair    | 0.016709   | 0.70924    | 5.4744     | 154.8 |  4.04
Bond    | 0.0053029  | 0.79261    | 4.7426     | 149.4 |  4.51
Neigh   | 0.024113   | 0.026074   | 0.028707   |   0.8 |  0.15
Comm    | 6.0725     | 13.349     | 16.162     |  86.6 | 76.04
Output  | 0.0074301  | 0.014318   | 0.020991   |   3.6 |  0.08
Modify  | 0.58986    | 2.057      | 9.4396     | 189.5 | 11.72
Other   |            | 0.6074     |            |       |  3.46

Nlocal:        7.51562 ave          39 max           0 min
Histogram: 42 6 0 1 0 3 2 7 2 1
Nghost:        1818.08 ave        2410 max        1291 min
Histogram: 16 0 0 0 32 0 0 0 0 16
Neighs:              0 ave           0 max           0 min
Histogram: 64 0 0 0 0 0 0 0 0 0

Total # of neighbors = 0
Ave neighs/atom = 0
Ave special neighs/atom = 15.567568
Neighbor list builds = 54
Dangerous builds = 0
Generated 0 of 1 mixed pair_coeff terms from geometric mixing rule
Setting up Verlet run ...
  Unit style    : real
  Current step  : 440000
  Time step     : 0.05
Per MPI rank memory allocation (min/avg/max) = 13.32 | 13.62 | 14.95 Mbytes
   Step          Temp          E_pair         E_mol          TotEng         Press     
    440000   308.54867      382.13101      18558.756      19382.355     -106.2249     
    450000   314.13307      386.39923      18526.023      19361.88      -70.952983    
Loop time of 3.48563 on 64 procs for 10000 steps with 481 atoms

Performance: 12.394 ns/day, 1.936 hours/ns, 2868.923 timesteps/s, 1.380 Matom-step/s
100.0% CPU use with 64 MPI tasks x 1 OpenMP threads

MPI task timing breakdown:
Section |  min time  |  avg time  |  max time  |%varavg| %total
---------------------------------------------------------------
Pair    | 0.0033484  | 0.14154    | 1.0999     |  69.9 |  4.06
Bond    | 0.0010601  | 0.15823    | 0.9386     |  67.2 |  4.54
Neigh   | 0.00755    | 0.0081449  | 0.0090383  |   0.4 |  0.23
Comm    | 1.1915     | 2.644      | 3.2032     |  38.7 | 75.86
Output  | 0.0014847  | 0.0028303  | 0.0041706  |   1.6 |  0.08
Modify  | 0.11932    | 0.40989    | 1.8647     |  83.6 | 11.76
Other   |            | 0.1209     |            |       |  3.47

Nlocal:        7.51562 ave          36 max           0 min
Histogram: 42 6 0 0 0 3 4 1 5 3
Nghost:        1820.23 ave        2413 max        1288 min
Histogram: 16 0 0 0 32 0 0 0 0 16
Neighs:              0 ave           0 max           0 min
Histogram: 64 0 0 0 0 0 0 0 0 0

Total # of neighbors = 0
Ave neighs/atom = 0
Ave special neighs/atom = 15.567568
Neighbor list builds = 17
Dangerous builds = 0
Generated 0 of 1 mixed pair_coeff terms from geometric mixing rule
Setting up Verlet run ...
  Unit style    : real
  Current step  : 450000
  Time step     : 0.05
Per MPI rank memory allocation (min/avg/max) = 13.32 | 13.62 | 14.95 Mbytes
   Step          Temp          E_pair         E_mol          TotEng         Press     
    450000   314.13307      386.39923      18526.023      19361.88      -70.952983    
    460000   309.30424      380.62873      18513.085      19336.263     -20.518       
    470000   326.232        378.97746      18551.634      19397.381     -134.48165    
    480000   301.78278      390.16697      18575.946      19397.9        172.70389    
    490000   310.56278      390.03005      18535.23       19369.609      21.521357    
    500000   304.60605      379.02073      18529.731      19344.579     -248.52475    
Loop time of 17.5294 on 64 procs for 50000 steps with 481 atoms

Performance: 12.322 ns/day, 1.948 hours/ns, 2852.352 timesteps/s, 1.372 Matom-step/s
100.0% CPU use with 64 MPI tasks x 1 OpenMP threads

MPI task timing breakdown:
Section |  min time  |  avg time  |  max time  |%varavg| %total
---------------------------------------------------------------
Pair    | 0.016168   | 0.70727    | 5.3624     | 155.4 |  4.03
Bond    | 0.0052977  | 0.79018    | 4.6088     | 149.3 |  4.51
Neigh   | 0.033229   | 0.035997   | 0.039776   |   0.9 |  0.21
Comm    | 6.2947     | 13.346     | 16.122     |  86.2 | 76.14
Output  | 0.0074573  | 0.014271   | 0.020886   |   3.6 |  0.08
Modify  | 0.6163     | 2.0296     | 9.3472     | 188.6 | 11.58
Other   |            | 0.606      |            |       |  3.46

Nlocal:        7.51562 ave          34 max           0 min
Histogram: 42 4 2 0 0 0 6 2 0 8
Nghost:        1818.55 ave        2403 max        1291 min
Histogram: 16 0 0 0 32 0 0 0 0 16
Neighs:              0 ave           0 max           0 min
Histogram: 64 0 0 0 0 0 0 0 0 0

Total # of neighbors = 0
Ave neighs/atom = 0
Ave special neighs/atom = 15.567568
Neighbor list builds = 75
Dangerous builds = 0
Generated 0 of 1 mixed pair_coeff terms from geometric mixing rule
Setting up Verlet run ...
  Unit style    : real
  Current step  : 500000
  Time step     : 0.05
Per MPI rank memory allocation (min/avg/max) = 13.32 | 13.62 | 14.95 Mbytes
   Step          Temp          E_pair         E_mol          TotEng         Press     
    500000   304.60605      379.02073      18529.731      19344.579     -248.52475    
    510000   295.07586      390.86928      18533.242      19346.303      21.657878    
Loop time of 3.49893 on 64 procs for 10000 steps with 481 atoms

Performance: 12.347 ns/day, 1.944 hours/ns, 2858.014 timesteps/s, 1.375 Matom-step/s
100.0% CPU use with 64 MPI tasks x 1 OpenMP threads

MPI task timing breakdown:
Section |  min time  |  avg time  |  max time  |%varavg| %total
---------------------------------------------------------------
Pair    | 0.0032766  | 0.14154    | 1.0548     |  69.8 |  4.05
Bond    | 0.0010644  | 0.15837    | 0.92834    |  67.0 |  4.53
Neigh   | 0.0057916  | 0.006304   | 0.0069733  |   0.4 |  0.18
Comm    | 1.2741     | 2.6735     | 3.2254     |  38.6 | 76.41
Output  | 0.0015011  | 0.0028642  | 0.0042174  |   1.6 |  0.08
Modify  | 0.11823    | 0.39463    | 1.8632     |  85.0 | 11.28
Other   |            | 0.1217     |            |       |  3.48

Nlocal:        7.51562 ave          36 max           0 min
Histogram: 41 7 0 0 0 3 3 4 2 4
Nghost:        1822.48 ave        2413 max        1289 min
Histogram: 16 0 0 0 32 0 0 0 0 16
Neighs:              0 ave           0 max           0 min
Histogram: 64 0 0 0 0 0 0 0 0 0

Total # of neighbors = 0
Ave neighs/atom = 0
Ave special neighs/atom = 15.567568
Neighbor list builds = 13
Dangerous builds = 0
Generated 0 of 1 mixed pair_coeff terms from geometric mixing rule
Setting up Verlet run ...
  Unit style    : real
  Current step  : 510000
  Time step     : 0.05
Per MPI rank memory allocation (min/avg/max) = 13.32 | 13.62 | 14.95 Mbytes
   Step          Temp          E_pair         E_mol          TotEng         Press     
    510000   295.07586      390.86928      18533.242      19346.303      21.657878    
    520000   309.25983      393.66394      18532.318      19368.467      197.08379    
    530000   286.47188      381.01847      18539.608      19330.507     -137.25295    
    540000   285.86196      391.4965       18516.538      19317.043      234.75721    
    550000   304.94444      386.57592      18528.707      19351.594     -144.56712    
    560000   301.73527      378.55603      18561.386      19371.662     -281.1931     
Loop time of 17.769 on 64 procs for 50000 steps with 481 atoms

Performance: 12.156 ns/day, 1.974 hours/ns, 2813.889 timesteps/s, 1.353 Matom-step/s
100.0% CPU use with 64 MPI tasks x 1 OpenMP threads

MPI task timing breakdown:
Section |  min time  |  avg time  |  max time  |%varavg| %total
---------------------------------------------------------------
Pair    | 0.016662   | 0.70837    | 5.4787     | 154.6 |  3.99
Bond    | 0.0053182  | 0.79154    | 4.6767     | 149.6 |  4.45
Neigh   | 0.043708   | 0.047178   | 0.051873   |   1.0 |  0.27
Comm    | 6.3454     | 13.538     | 16.352     |  87.1 | 76.19
Output  | 0.0074816  | 0.014295   | 0.020925   |   3.6 |  0.08
Modify  | 0.6288     | 2.0642     | 9.5804     | 193.2 | 11.62
Other   |            | 0.6052     |            |       |  3.41

Nlocal:        7.51562 ave          36 max           0 min
Histogram: 40 8 0 0 1 3 2 2 5 3
Nghost:        1818.08 ave        2405 max        1292 min
Histogram: 16 0 0 0 32 0 0 0 0 16
Neighs:              0 ave           0 max           0 min
Histogram: 64 0 0 0 0 0 0 0 0 0

Total # of neighbors = 0
Ave neighs/atom = 0
Ave special neighs/atom = 15.567568
Neighbor list builds = 96
Dangerous builds = 0
Generated 0 of 1 mixed pair_coeff terms from geometric mixing rule
Setting up Verlet run ...
  Unit style    : real
  Current step  : 560000
  Time step     : 0.05
Per MPI rank memory allocation (min/avg/max) = 13.32 | 13.62 | 14.95 Mbytes
   Step          Temp          E_pair         E_mol          TotEng         Press     
    560000   301.73527      378.55603      18561.386      19371.662     -281.1931     
    570000   306.57965      393.97608      18546.81       19379.437      110.21774    
Loop time of 3.58446 on 64 procs for 10000 steps with 481 atoms

Performance: 12.052 ns/day, 1.991 hours/ns, 2789.820 timesteps/s, 1.342 Matom-step/s
100.0% CPU use with 64 MPI tasks x 1 OpenMP threads

MPI task timing breakdown:
Section |  min time  |  avg time  |  max time  |%varavg| %total
---------------------------------------------------------------
Pair    | 0.0032975  | 0.14201    | 1.1655     |  69.1 |  3.96
Bond    | 0.0010629  | 0.15925    | 1.0075     |  67.6 |  4.44
Neigh   | 0.0081397  | 0.0088114  | 0.0097119  |   0.4 |  0.25
Comm    | 1.1611     | 2.7301     | 3.3015     |  39.3 | 76.16
Output  | 0.0014656  | 0.0028059  | 0.0041443  |   1.6 |  0.08
Modify  | 0.12451    | 0.42009    | 1.9491     |  87.2 | 11.72
Other   |            | 0.1214     |            |       |  3.39

Nlocal:        7.51562 ave          35 max           0 min
Histogram: 44 1 3 0 0 0 7 1 4 4
Nghost:        1819.77 ave        2411 max        1289 min
Histogram: 16 0 0 0 32 0 0 0 0 16
Neighs:              0 ave           0 max           0 min
Histogram: 64 0 0 0 0 0 0 0 0 0

Total # of neighbors = 0
Ave neighs/atom = 0
Ave special neighs/atom = 15.567568
Neighbor list builds = 18
Dangerous builds = 0
Generated 0 of 1 mixed pair_coeff terms from geometric mixing rule
Setting up Verlet run ...
  Unit style    : real
  Current step  : 570000
  Time step     : 0.05
Per MPI rank memory allocation (min/avg/max) = 13.32 | 13.62 | 14.95 Mbytes
   Step          Temp          E_pair         E_mol          TotEng         Press     
    570000   306.57965      393.97608      18546.81       19379.437      110.21774    
    580000   293.68568      385.98202      18522.581      19328.765     -167.2303     
    590000   303.58228      382.86727      18517.883      19335.113     -141.28454    
    600000   315.39098      385.17822      18529.129      19365.565     -81.354671    
    610000   310.07214      396.44073      18542.256      19382.344      48.572773    
    620000   320.98923      390.92022      18518.419      19368.607     -17.236922    
Loop time of 17.7372 on 64 procs for 50000 steps with 481 atoms

Performance: 12.178 ns/day, 1.971 hours/ns, 2818.934 timesteps/s, 1.356 Matom-step/s
100.0% CPU use with 64 MPI tasks x 1 OpenMP threads

MPI task timing breakdown:
Section |  min time  |  avg time  |  max time  |%varavg| %total
---------------------------------------------------------------
Pair    | 0.016654   | 0.70828    | 5.7043     | 154.2 |  3.99
Bond    | 0.0053102  | 0.79219    | 4.8473     | 150.1 |  4.47
Neigh   | 0.048856   | 0.052983   | 0.058447   |   1.1 |  0.30
Comm    | 5.8846     | 13.531     | 16.315     |  86.1 | 76.29
Output  | 0.0075099  | 0.014344   | 0.021029   |   3.6 |  0.08
Modify  | 0.59653    | 2.0304     | 9.5653     | 190.2 | 11.45
Other   |            | 0.6078     |            |       |  3.43

Nlocal:        7.51562 ave          35 max           0 min
Histogram: 44 0 4 0 1 1 4 1 5 4
Nghost:        1821.55 ave        2410 max        1289 min
Histogram: 16 0 0 0 32 0 0 0 0 16
Neighs:              0 ave           0 max           0 min
Histogram: 64 0 0 0 0 0 0 0 0 0

Total # of neighbors = 0
Ave neighs/atom = 0
Ave special neighs/atom = 15.567568
Neighbor list builds = 109
Dangerous builds = 0
Generated 0 of 1 mixed pair_coeff terms from geometric mixing rule
Setting up Verlet run ...
  Unit style    : real
  Current step  : 620000
  Time step     : 0.05
Per MPI rank memory allocation (min/avg/max) = 13.32 | 13.62 | 14.95 Mbytes
   Step          Temp          E_pair         E_mol          TotEng         Press     
    620000   320.98923      390.92022      18518.419      19368.607     -17.236922    
    630000   317.08316      384.37997      18518.662      19356.721     -172.17831    
Loop time of 3.5211 on 64 procs for 10000 steps with 481 atoms

Performance: 12.269 ns/day, 1.956 hours/ns, 2840.019 timesteps/s, 1.366 Matom-step/s
100.0% CPU use with 64 MPI tasks x 1 OpenMP threads

MPI task timing breakdown:
Section |  min time  |  avg time  |  max time  |%varavg| %total
---------------------------------------------------------------
Pair    | 0.0034067  | 0.14166    | 1.0874     |  69.3 |  4.02
Bond    | 0.0010559  | 0.15803    | 0.94163    |  66.7 |  4.49
Neigh   | 0.010593   | 0.011479   | 0.012689   |   0.5 |  0.33
Comm    | 1.2263     | 2.6773     | 3.2321     |  38.4 | 76.04
Output  | 0.0015085  | 0.00285    | 0.0041909  |   1.6 |  0.08
Modify  | 0.12328    | 0.40845    | 1.8585     |  83.7 | 11.60
Other   |            | 0.1213     |            |       |  3.44

Nlocal:        7.51562 ave          33 max           0 min
Histogram: 43 2 3 0 0 1 1 5 4 5
Nghost:        1821.08 ave        2411 max        1291 min
Histogram: 16 0 0 0 32 0 0 0 0 16
Neighs:              0 ave           0 max           0 min
Histogram: 64 0 0 0 0 0 0 0 0 0

Total # of neighbors = 0
Ave neighs/atom = 0
Ave special neighs/atom = 15.567568
Neighbor list builds = 24
Dangerous builds = 0
Generated 0 of 1 mixed pair_coeff terms from geometric mixing rule
Setting up Verlet run ...
  Unit style    : real
  Current step  : 630000
  Time step     : 0.05
Per MPI rank memory allocation (min/avg/max) = 13.32 | 13.62 | 14.95 Mbytes
   Step          Temp          E_pair         E_mol          TotEng         Press     
    630000   317.08316      384.37997      18518.662      19356.721     -172.17831    
    640000   289.12843      394.01995      18505.947      19313.649      205.77212    
    650000   287.41727      381.44673      18548.511      19341.192     -164.80187    
    660000   304.63851      391.0806       18548.942      19375.896      70.329264    
    670000   304.89248      384.75902      18541.389      19362.385     -10.201577    
    680000   293.99685      383.19936      18525.022      19328.869     -170.55194    
Loop time of 17.7173 on 64 procs for 50000 steps with 481 atoms

Performance: 12.192 ns/day, 1.969 hours/ns, 2822.107 timesteps/s, 1.357 Matom-step/s
100.0% CPU use with 64 MPI tasks x 1 OpenMP threads

MPI task timing breakdown:
Section |  min time  |  avg time  |  max time  |%varavg| %total
---------------------------------------------------------------
Pair    | 0.016802   | 0.70798    | 5.7297     | 155.2 |  4.00
Bond    | 0.0052828  | 0.79104    | 4.8967     | 149.8 |  4.46
Neigh   | 0.031013   | 0.033563   | 0.037064   |   0.9 |  0.19
Comm    | 5.815      | 13.499     | 16.305     |  86.9 | 76.19
Output  | 0.0073944  | 0.014123   | 0.020729   |   3.5 |  0.08
Modify  | 0.59766    | 2.0641     | 9.5802     | 191.5 | 11.65
Other   |            | 0.6077     |            |       |  3.43

Nlocal:        7.51562 ave          39 max           0 min
Histogram: 43 5 0 0 1 3 5 3 2 2
Nghost:        1824.64 ave        2416 max        1285 min
Histogram: 16 0 0 0 32 0 0 0 0 16
Neighs:              0 ave           0 max           0 min
Histogram: 64 0 0 0 0 0 0 0 0 0

Total # of neighbors = 0
Ave neighs/atom = 0
Ave special neighs/atom = 15.567568
Neighbor list builds = 69
Dangerous builds = 0
Generated 0 of 1 mixed pair_coeff terms from geometric mixing rule
Setting up Verlet run ...
  Unit style    : real
  Current step  : 680000
  Time step     : 0.05
Per MPI rank memory allocation (min/avg/max) = 13.32 | 13.62 | 14.95 Mbytes
   Step          Temp          E_pair         E_mol          TotEng         Press     
    680000   293.99685      383.19936      18525.022      19328.869     -170.55194    
    690000   294.08584      386.13706      18530.479      19337.391      59.590598    
Loop time of 3.56078 on 64 procs for 10000 steps with 481 atoms

Performance: 12.132 ns/day, 1.978 hours/ns, 2808.371 timesteps/s, 1.351 Matom-step/s
100.0% CPU use with 64 MPI tasks x 1 OpenMP threads

MPI task timing breakdown:
Section |  min time  |  avg time  |  max time  |%varavg| %total
---------------------------------------------------------------
Pair    | 0.0034011  | 0.14206    | 1.1631     |  69.6 |  3.99
Bond    | 0.0010666  | 0.15855    | 0.98918    |  67.2 |  4.45
Neigh   | 0.0068698  | 0.0074782  | 0.0082578  |   0.4 |  0.21
Comm    | 1.1542     | 2.7142     | 3.2791     |  38.8 | 76.23
Output  | 0.0014669  | 0.0028374  | 0.0042143  |   1.6 |  0.08
Modify  | 0.11727    | 0.41357    | 1.9263     |  85.3 | 11.61
Other   |            | 0.1221     |            |       |  3.43

Nlocal:        7.51562 ave          36 max           0 min
Histogram: 44 3 1 0 0 3 2 3 6 2
Nghost:        1827.64 ave        2426 max        1288 min
Histogram: 16 0 0 0 32 0 0 0 0 16
Neighs:              0 ave           0 max           0 min
Histogram: 64 0 0 0 0 0 0 0 0 0

Total # of neighbors = 0
Ave neighs/atom = 0
Ave special neighs/atom = 15.567568
Neighbor list builds = 15
Dangerous builds = 0
Generated 0 of 1 mixed pair_coeff terms from geometric mixing rule
Setting up Verlet run ...
  Unit style    : real
  Current step  : 690000
  Time step     : 0.05
Per MPI rank memory allocation (min/avg/max) = 13.32 | 13.62 | 14.95 Mbytes
   Step          Temp          E_pair         E_mol          TotEng         Press     
    690000   294.08584      386.13706      18530.479      19337.391      59.590598    
    700000   284.46558      381.04025      18554.867      19342.917     -167.00039    
    710000   319.17916      385.5732       18539.431      19381.682     -41.582899    
    720000   314.4954       396.87554      18547.757      19394.609      64.922543    
    730000   320.8021       381.76915      18530.044      19370.813     -233.24438    
    740000   299.78113      385.58736      18538.425      19352.936     -1.398214     
Loop time of 17.5398 on 64 procs for 50000 steps with 481 atoms

Performance: 12.315 ns/day, 1.949 hours/ns, 2850.658 timesteps/s, 1.371 Matom-step/s
100.0% CPU use with 64 MPI tasks x 1 OpenMP threads

MPI task timing breakdown:
Section |  min time  |  avg time  |  max time  |%varavg| %total
---------------------------------------------------------------
Pair    | 0.016487   | 0.71152    | 5.6023     | 154.8 |  4.06
Bond    | 0.0053028  | 0.79379    | 4.7631     | 150.2 |  4.53
Neigh   | 0.041588   | 0.045091   | 0.049716   |   1.0 |  0.26
Comm    | 5.8931     | 13.371     | 16.128     |  86.1 | 76.23
Output  | 0.0074094  | 0.014226   | 0.020844   |   3.6 |  0.08
Modify  | 0.61593    | 1.9959     | 9.3778     | 188.7 | 11.38
Other   |            | 0.6084     |            |       |  3.47

Nlocal:        7.51562 ave          34 max           0 min
Histogram: 43 2 3 0 0 1 2 5 3 5
Nghost:        1816.86 ave        2404 max        1291 min
Histogram: 16 0 0 0 32 0 0 0 0 16
Neighs:              0 ave           0 max           0 min
Histogram: 64 0 0 0 0 0 0 0 0 0

Total # of neighbors = 0
Ave neighs/atom = 0
Ave special neighs/atom = 15.567568
Neighbor list builds = 94
Dangerous builds = 0
Generated 0 of 1 mixed pair_coeff terms from geometric mixing rule
Setting up Verlet run ...
  Unit style    : real
  Current step  : 740000
  Time step     : 0.05
Per MPI rank memory allocation (min/avg/max) = 13.32 | 13.62 | 14.95 Mbytes
   Step          Temp          E_pair         E_mol          TotEng         Press     
    740000   299.78113      385.58736      18538.425      19352.936     -1.398214     
    750000   309.25754      382.03646      18509.4        19333.919     -139.92019    
Loop time of 3.55796 on 64 procs for 10000 steps with 481 atoms

Performance: 12.142 ns/day, 1.977 hours/ns, 2810.602 timesteps/s, 1.352 Matom-step/s
100.0% CPU use with 64 MPI tasks x 1 OpenMP threads

MPI task timing breakdown:
Section |  min time  |  avg time  |  max time  |%varavg| %total
---------------------------------------------------------------
Pair    | 0.0032054  | 0.14176    | 1.1675     |  68.6 |  3.98
Bond    | 0.0010594  | 0.15786    | 0.99387    |  66.8 |  4.44
Neigh   | 0.0068486  | 0.0074102  | 0.0081885  |   0.4 |  0.21
Comm    | 1.1444     | 2.7055     | 3.2826     |  38.8 | 76.04
Output  | 0.0015064  | 0.0028693  | 0.0042297  |   1.6 |  0.08
Modify  | 0.11494    | 0.42106    | 1.9364     |  86.5 | 11.83
Other   |            | 0.1215     |            |       |  3.42

Nlocal:        7.51562 ave          43 max           0 min
Histogram: 44 4 0 2 3 3 1 3 3 1
Nghost:        1817.23 ave        2408 max        1281 min
Histogram: 16 0 0 0 32 0 0 0 0 16
Neighs:              0 ave           0 max           0 min
Histogram: 64 0 0 0 0 0 0 0 0 0

Total # of neighbors = 0
Ave neighs/atom = 0
Ave special neighs/atom = 15.567568
Neighbor list builds = 15
Dangerous builds = 0
Generated 0 of 1 mixed pair_coeff terms from geometric mixing rule
Setting up Verlet run ...
  Unit style    : real
  Current step  : 750000
  Time step     : 0.05
Per MPI rank memory allocation (min/avg/max) = 13.32 | 13.62 | 14.95 Mbytes
   Step          Temp          E_pair         E_mol          TotEng         Press     
    750000   309.25754      382.03646      18509.4        19333.919     -139.92019    
    760000   273.37261      389.72886      18520.634      19301.501     -24.341095    
    770000   295.19242      381.87693      18523.522      19327.757     -269.3541     
    780000   312.92739      392.43374      18517.752      19357.919      136.96604    
    790000   307.56813      392.95104      18530.94       19363.957     -38.331026    
    800000   312.94461      378.21216      18543.205      19369.175     -346.90211    
Loop time of 17.6168 on 64 procs for 50000 steps with 481 atoms

Performance: 12.261 ns/day, 1.957 hours/ns, 2838.201 timesteps/s, 1.365 Matom-step/s
100.0% CPU use with 64 MPI tasks x 1 OpenMP threads

MPI task timing breakdown:
Section |  min time  |  avg time  |  max time  |%varavg| %total
---------------------------------------------------------------
Pair    | 0.016484   | 0.70881    | 5.6025     | 154.8 |  4.02
Bond    | 0.0052911  | 0.7905     | 4.739      | 150.4 |  4.49
Neigh   | 0.04471    | 0.048466   | 0.053498   |   1.1 |  0.28
Comm    | 5.9845     | 13.401     | 16.199     |  86.8 | 76.07
Output  | 0.0073828  | 0.014208   | 0.020854   |   3.6 |  0.08
Modify  | 0.60756    | 2.0436     | 9.4591     | 190.7 | 11.60
Other   |            | 0.6097     |            |       |  3.46

Nlocal:        7.51562 ave          34 max           0 min
Histogram: 41 6 1 0 0 1 3 5 1 6
Nghost:        1818.08 ave        2404 max        1291 min
Histogram: 16 0 0 0 32 0 0 0 0 16
Neighs:              0 ave           0 max           0 min
Histogram: 64 0 0 0 0 0 0 0 0 0

Total # of neighbors = 0
Ave neighs/atom = 0
Ave special neighs/atom = 15.567568
Neighbor list builds = 100
Dangerous builds = 0
Generated 0 of 1 mixed pair_coeff terms from geometric mixing rule
Setting up Verlet run ...
  Unit style    : real
  Current step  : 800000
  Time step     : 0.05
Per MPI rank memory allocation (min/avg/max) = 13.32 | 13.62 | 14.95 Mbytes
   Step          Temp          E_pair         E_mol          TotEng         Press     
    800000   312.94461      378.21216      18543.205      19369.175     -346.90211    
    810000   325.58453      392.92639      18525.945      19384.714      71.456751    
Loop time of 3.54626 on 64 procs for 10000 steps with 481 atoms

Performance: 12.182 ns/day, 1.970 hours/ns, 2819.875 timesteps/s, 1.356 Matom-step/s
100.0% CPU use with 64 MPI tasks x 1 OpenMP threads

MPI task timing breakdown:
Section |  min time  |  avg time  |  max time  |%varavg| %total
---------------------------------------------------------------
Pair    | 0.0034643  | 0.14071    | 1.134      |  68.7 |  3.97
Bond    | 0.0010598  | 0.15774    | 0.95546    |  66.8 |  4.45
Neigh   | 0.012988   | 0.014063   | 0.015519   |   0.6 |  0.40
Comm    | 1.1938     | 2.7011     | 3.2662     |  38.8 | 76.17
Output  | 0.0014811  | 0.0028414  | 0.0042085  |   1.6 |  0.08
Modify  | 0.11663    | 0.40863    | 1.9165     |  86.6 | 11.52
Other   |            | 0.1212     |            |       |  3.42

Nlocal:        7.51562 ave          36 max           0 min
Histogram: 40 8 0 0 2 0 3 4 3 4
Nghost:        1819.86 ave        2406 max        1290 min
Histogram: 16 0 0 0 32 0 0 0 0 16
Neighs:              0 ave           0 max           0 min
Histogram: 64 0 0 0 0 0 0 0 0 0

Total # of neighbors = 0
Ave neighs/atom = 0
Ave special neighs/atom = 15.567568
Neighbor list builds = 29
Dangerous builds = 0
Generated 0 of 1 mixed pair_coeff terms from geometric mixing rule
Setting up Verlet run ...
  Unit style    : real
  Current step  : 810000
  Time step     : 0.05
Per MPI rank memory allocation (min/avg/max) = 13.32 | 13.62 | 14.95 Mbytes
   Step          Temp          E_pair         E_mol          TotEng         Press     
    810000   325.58453      392.92639      18525.945      19384.714      71.456751    
    820000   293.70014      382.08796      18530.138      19332.449     -12.951797    
    830000   288.0861       374.15721      18551.534      19337.882     -428.46084    
    840000   287.51005      386.13877      18526.632      19324.137     -120.09032    
    850000   309.75964      390.60605      18516.395      19350.202     -125.69659    
    860000   304.92053      390.64977      18551.436      19378.363     -52.946375    
Loop time of 17.3561 on 64 procs for 50000 steps with 481 atoms

Performance: 12.445 ns/day, 1.928 hours/ns, 2880.824 timesteps/s, 1.386 Matom-step/s
100.0% CPU use with 64 MPI tasks x 1 OpenMP threads

MPI task timing breakdown:
Section |  min time  |  avg time  |  max time  |%varavg| %total
---------------------------------------------------------------
Pair    | 0.016885   | 0.70787    | 5.5355     | 154.1 |  4.08
Bond    | 0.0052909  | 0.7884     | 4.6659     | 148.9 |  4.54
Neigh   | 0.057736   | 0.062587   | 0.069254   |   1.2 |  0.36
Comm    | 5.8524     | 13.205     | 15.925     |  85.0 | 76.08
Output  | 0.0073408  | 0.014161   | 0.020843   |   3.6 |  0.08
Modify  | 0.5903     | 1.9715     | 9.1941     | 185.1 | 11.36
Other   |            | 0.6062     |            |       |  3.49

Nlocal:        7.51562 ave          42 max           0 min
Histogram: 44 4 0 2 3 3 1 1 4 2
Nghost:        1822.58 ave        2423 max        1282 min
Histogram: 16 0 0 0 32 0 0 0 0 16
Neighs:              0 ave           0 max           0 min
Histogram: 64 0 0 0 0 0 0 0 0 0

Total # of neighbors = 0
Ave neighs/atom = 0
Ave special neighs/atom = 15.567568
Neighbor list builds = 132
Dangerous builds = 0
Generated 0 of 1 mixed pair_coeff terms from geometric mixing rule
Setting up Verlet run ...
  Unit style    : real
  Current step  : 860000
  Time step     : 0.05
Per MPI rank memory allocation (min/avg/max) = 13.32 | 13.62 | 14.95 Mbytes
   Step          Temp          E_pair         E_mol          TotEng         Press     
    860000   304.92053      390.64977      18551.436      19378.363     -52.946375    
    870000   281.65172      392.3824       18534.135      19329.501      93.984663    
Loop time of 3.50571 on 64 procs for 10000 steps with 481 atoms

Performance: 12.323 ns/day, 1.948 hours/ns, 2852.489 timesteps/s, 1.372 Matom-step/s
100.0% CPU use with 64 MPI tasks x 1 OpenMP threads

MPI task timing breakdown:
Section |  min time  |  avg time  |  max time  |%varavg| %total
---------------------------------------------------------------
Pair    | 0.0032444  | 0.14181    | 1.0605     |  68.8 |  4.05
Bond    | 0.0010582  | 0.15795    | 0.90964    |  66.7 |  4.51
Neigh   | 0.011078   | 0.012077   | 0.013378   |   0.6 |  0.34
Comm    | 1.2822     | 2.6683     | 3.2209     |  38.4 | 76.11
Output  | 0.0014547  | 0.0028177  | 0.0041638  |   1.6 |  0.08
Modify  | 0.12164    | 0.39992    | 1.8701     |  84.7 | 11.41
Other   |            | 0.1228     |            |       |  3.50

Nlocal:        7.51562 ave          39 max           0 min
Histogram: 41 7 0 0 2 5 1 1 5 2
Nghost:         1822.2 ave        2414 max        1285 min
Histogram: 16 0 0 0 32 0 0 0 0 16
Neighs:              0 ave           0 max           0 min
Histogram: 64 0 0 0 0 0 0 0 0 0

Total # of neighbors = 0
Ave neighs/atom = 0
Ave special neighs/atom = 15.567568
Neighbor list builds = 25
Dangerous builds = 0
Generated 0 of 1 mixed pair_coeff terms from geometric mixing rule
Setting up Verlet run ...
  Unit style    : real
  Current step  : 870000
  Time step     : 0.05
Per MPI rank memory allocation (min/avg/max) = 13.32 | 13.62 | 14.95 Mbytes
   Step          Temp          E_pair         E_mol          TotEng         Press     
    870000   281.65172      392.3824       18534.135      19329.501      93.984663    
    880000   307.63221      380.40313      18500.12       19320.68      -120.63294    
    890000   275.5074       389.13013      18533.212      19316.535     -118.73025    
    900000   301.47944      391.09912      18514.518      19336.971     -7.5913809    
    910000   314.25528      391.30532      18525.206      19366.144     -95.943432    
    920000   307.56882      386.78313      18518.456      19345.305     -295.68599    
Loop time of 17.4039 on 64 procs for 50000 steps with 481 atoms

Performance: 12.411 ns/day, 1.934 hours/ns, 2872.915 timesteps/s, 1.382 Matom-step/s
100.0% CPU use with 64 MPI tasks x 1 OpenMP threads

MPI task timing breakdown:
Section |  min time  |  avg time  |  max time  |%varavg| %total
---------------------------------------------------------------
Pair    | 0.016299   | 0.7174     | 5.3311     | 156.7 |  4.12
Bond    | 0.0052967  | 0.7939     | 4.6993     | 150.9 |  4.56
Neigh   | 0.050077   | 0.054357   | 0.060218   |   1.1 |  0.31
Comm    | 6.2369     | 13.236     | 15.969     |  86.5 | 76.05
Output  | 0.0074732  | 0.014335   | 0.020998   |   3.6 |  0.08
Modify  | 0.6009     | 1.9834     | 9.2526     | 186.2 | 11.40
Other   |            | 0.6047     |            |       |  3.47

Nlocal:        7.51562 ave          38 max           0 min
Histogram: 41 7 0 1 0 0 6 6 2 1
Nghost:        1818.45 ave        2406 max        1291 min
Histogram: 16 0 0 0 32 0 0 0 0 16
Neighs:              0 ave           0 max           0 min
Histogram: 64 0 0 0 0 0 0 0 0 0

Total # of neighbors = 0
Ave neighs/atom = 0
Ave special neighs/atom = 15.567568
Neighbor list builds = 114
Dangerous builds = 0
Generated 0 of 1 mixed pair_coeff terms from geometric mixing rule
Setting up Verlet run ...
  Unit style    : real
  Current step  : 920000
  Time step     : 0.05
Per MPI rank memory allocation (min/avg/max) = 13.32 | 13.62 | 14.95 Mbytes
   Step          Temp          E_pair         E_mol          TotEng         Press     
    920000   307.56882      386.78313      18518.456      19345.305     -295.68599    
    930000   290.15717      394.32043      18514.207      19323.681     -42.686632    
Loop time of 3.49046 on 64 procs for 10000 steps with 481 atoms

Performance: 12.377 ns/day, 1.939 hours/ns, 2864.953 timesteps/s, 1.378 Matom-step/s
100.0% CPU use with 64 MPI tasks x 1 OpenMP threads

MPI task timing breakdown:
Section |  min time  |  avg time  |  max time  |%varavg| %total
---------------------------------------------------------------
Pair    | 0.0031773  | 0.14312    | 1.1901     |  69.5 |  4.10
Bond    | 0.001056   | 0.15768    | 0.80761    |  66.0 |  4.52
Neigh   | 0.0081366  | 0.008832   | 0.0097778  |   0.5 |  0.25
Comm    | 1.2441     | 2.654      | 3.2107     |  38.3 | 76.04
Output  | 0.0014208  | 0.0027575  | 0.0040863  |   1.6 |  0.08
Modify  | 0.11493    | 0.40414    | 1.8609     |  84.2 | 11.58
Other   |            | 0.1199     |            |       |  3.44

Nlocal:        7.51562 ave          38 max           0 min
Histogram: 42 4 2 1 0 2 7 2 2 2
Nghost:        1819.86 ave        2413 max        1286 min
Histogram: 16 0 0 0 32 0 0 0 0 16
Neighs:              0 ave           0 max           0 min
Histogram: 64 0 0 0 0 0 0 0 0 0

Total # of neighbors = 0
Ave neighs/atom = 0
Ave special neighs/atom = 15.567568
Neighbor list builds = 19
Dangerous builds = 0
Generated 0 of 1 mixed pair_coeff terms from geometric mixing rule
Setting up Verlet run ...
  Unit style    : real
  Current step  : 930000
  Time step     : 0.05
Per MPI rank memory allocation (min/avg/max) = 13.32 | 13.62 | 14.95 Mbytes
   Step          Temp          E_pair         E_mol          TotEng         Press     
    930000   290.15717      394.32043      18514.207      19323.681     -42.686632    
    940000   310.95062      393.61372      18498.534      19337.052      55.4717      
    950000   298.7335       390.80888      18527.351      19345.585     -164.9282     
    960000   295.35721      396.26044      18556.692      19375.546     -4.0501068    
    970000   303.7097       398.82734      18515.5        19348.872      110.76204    
    980000   290.09407      392.89033      18538.093      19346.047      25.345873    
Loop time of 17.2383 on 64 procs for 50000 steps with 481 atoms

Performance: 12.530 ns/day, 1.915 hours/ns, 2900.514 timesteps/s, 1.395 Matom-step/s
100.0% CPU use with 64 MPI tasks x 1 OpenMP threads

MPI task timing breakdown:
Section |  min time  |  avg time  |  max time  |%varavg| %total
---------------------------------------------------------------
Pair    | 0.017025   | 0.71771    | 5.5661     | 155.4 |  4.16
Bond    | 0.0052942  | 0.7902     | 4.3689     | 148.4 |  4.58
Neigh   | 0.045226   | 0.049114   | 0.054343   |   1.1 |  0.28
Comm    | 6.6852     | 13.087     | 15.805     |  84.9 | 75.92
Output  | 0.0073443  | 0.014154   | 0.02077    |   3.6 |  0.08
Modify  | 0.59948    | 1.9773     | 9.0893     | 182.4 | 11.47
Other   |            | 0.6031     |            |       |  3.50

Nlocal:        7.51562 ave          35 max           0 min
Histogram: 42 4 2 0 0 1 3 5 5 2
Nghost:        1819.67 ave        2413 max        1292 min
Histogram: 16 0 0 0 32 0 0 0 0 16
Neighs:              0 ave           0 max           0 min
Histogram: 64 0 0 0 0 0 0 0 0 0

Total # of neighbors = 0
Ave neighs/atom = 0
Ave special neighs/atom = 15.567568
Neighbor list builds = 104
Dangerous builds = 0
Generated 0 of 1 mixed pair_coeff terms from geometric mixing rule
Setting up Verlet run ...
  Unit style    : real
  Current step  : 980000
  Time step     : 0.05
Per MPI rank memory allocation (min/avg/max) = 13.32 | 13.62 | 14.95 Mbytes
   Step          Temp          E_pair         E_mol          TotEng         Press     
    980000   290.09407      392.89033      18538.093      19346.047      25.345873    
    990000   305.53853      391.25521      18539.918      19368.334     -131.51722    
Loop time of 3.51908 on 64 procs for 10000 steps with 481 atoms

Performance: 12.276 ns/day, 1.955 hours/ns, 2841.649 timesteps/s, 1.367 Matom-step/s
100.0% CPU use with 64 MPI tasks x 1 OpenMP threads

MPI task timing breakdown:
Section |  min time  |  avg time  |  max time  |%varavg| %total
---------------------------------------------------------------
Pair    | 0.0032366  | 0.14385    | 1.0748     |  69.6 |  4.09
Bond    | 0.0010583  | 0.15814    | 0.93261    |  66.8 |  4.49
Neigh   | 0.0077082  | 0.0083702  | 0.0092323  |   0.4 |  0.24
Comm    | 1.2558     | 2.6733     | 3.2349     |  38.6 | 75.96
Output  | 0.0014798  | 0.0028491  | 0.0042085  |   1.6 |  0.08
Modify  | 0.12714    | 0.41178    | 1.8859     |  84.3 | 11.70
Other   |            | 0.1208     |            |       |  3.43

Nlocal:        7.51562 ave          37 max           0 min
Histogram: 43 4 1 0 0 2 5 3 4 2
Nghost:        1816.67 ave        2401 max        1287 min
Histogram: 16 0 0 0 32 0 0 0 0 16
Neighs:              0 ave           0 max           0 min
Histogram: 64 0 0 0 0 0 0 0 0 0

Total # of neighbors = 0
Ave neighs/atom = 0
Ave special neighs/atom = 15.567568
Neighbor list builds = 17
Dangerous builds = 0
Generated 0 of 1 mixed pair_coeff terms from geometric mixing rule
Setting up Verlet run ...
  Unit style    : real
  Current step  : 990000
  Time step     : 0.05
Per MPI rank memory allocation (min/avg/max) = 13.32 | 13.62 | 14.95 Mbytes
   Step          Temp          E_pair         E_mol          TotEng         Press     
    990000   305.53853      391.25521      18539.918      19368.334     -131.51722    
   1000000   321.41937      395.87556      18521.16       19376.918      84.724033    
   1010000   294.31076      383.76586      18569.006      19373.868     -447.86318    
   1020000   318.59696      392.84522      18523.457      19372.147     -172.62613    
   1030000   308.88137      400.74046      18518.481      19361.165      266.76142    
   1040000   300.55721      390.10416      18518.937      19339.075     -145.02318    
Loop time of 17.4931 on 64 procs for 50000 steps with 481 atoms

Performance: 12.348 ns/day, 1.944 hours/ns, 2858.271 timesteps/s, 1.375 Matom-step/s
100.0% CPU use with 64 MPI tasks x 1 OpenMP threads

MPI task timing breakdown:
Section |  min time  |  avg time  |  max time  |%varavg| %total
---------------------------------------------------------------
Pair    | 0.016475   | 0.71892    | 5.3663     | 155.8 |  4.11
Bond    | 0.0052996  | 0.79045    | 4.5596     | 149.1 |  4.52
Neigh   | 0.0436     | 0.047225   | 0.052185   |   1.0 |  0.27
Comm    | 6.2872     | 13.286     | 16.089     |  85.9 | 75.95
Output  | 0.0074025  | 0.014253   | 0.020903   |   3.6 |  0.08
Modify  | 0.59136    | 2.0323     | 9.3565     | 187.4 | 11.62
Other   |            | 0.6038     |            |       |  3.45

Nlocal:        7.51562 ave          41 max           0 min
Histogram: 44 3 1 0 4 2 3 3 2 2
Nghost:        1820.52 ave        2418 max        1283 min
Histogram: 16 0 0 0 32 0 0 0 0 16
Neighs:              0 ave           0 max           0 min
Histogram: 64 0 0 0 0 0 0 0 0 0

Total # of neighbors = 0
Ave neighs/atom = 0
Ave special neighs/atom = 15.567568
Neighbor list builds = 98
Dangerous builds = 0
Generated 0 of 1 mixed pair_coeff terms from geometric mixing rule
Setting up Verlet run ...
  Unit style    : real
  Current step  : 1040000
  Time step     : 0.05
Per MPI rank memory allocation (min/avg/max) = 13.32 | 13.62 | 14.95 Mbytes
   Step          Temp          E_pair         E_mol          TotEng         Press     
   1040000   300.55721      390.10416      18518.937      19339.075     -145.02318    
   1050000   280.46509      395.27071      18554.09       19350.647     -94.417377    
Loop time of 3.62009 on 64 procs for 10000 steps with 481 atoms

Performance: 11.933 ns/day, 2.011 hours/ns, 2762.362 timesteps/s, 1.329 Matom-step/s
99.9% CPU use with 64 MPI tasks x 1 OpenMP threads

MPI task timing breakdown:
Section |  min time  |  avg time  |  max time  |%varavg| %total
---------------------------------------------------------------
Pair    | 0.0032522  | 0.14379    | 1.1062     |  70.1 |  3.97
Bond    | 0.0010571  | 0.15846    | 0.93293    |  67.3 |  4.38
Neigh   | 0.0073166  | 0.0079052  | 0.0086918  |   0.4 |  0.22
Comm    | 1.3271     | 2.7628     | 3.3439     |  39.8 | 76.32
Output  | 0.0014835  | 0.0032123  | 0.0051993  |   2.3 |  0.09
Modify  | 0.11625    | 0.4223     | 1.9929     |  89.3 | 11.67
Other   |            | 0.1216     |            |       |  3.36

Nlocal:        7.51562 ave          37 max           0 min
Histogram: 41 6 1 0 1 3 1 6 2 3
Nghost:        1820.52 ave        2408 max        1287 min
Histogram: 16 0 0 0 32 0 0 0 0 16
Neighs:              0 ave           0 max           0 min
Histogram: 64 0 0 0 0 0 0 0 0 0

Total # of neighbors = 0
Ave neighs/atom = 0
Ave special neighs/atom = 15.567568
Neighbor list builds = 16
Dangerous builds = 0
Generated 0 of 1 mixed pair_coeff terms from geometric mixing rule
Setting up Verlet run ...
  Unit style    : real
  Current step  : 1050000
  Time step     : 0.05
Per MPI rank memory allocation (min/avg/max) = 13.32 | 13.62 | 14.95 Mbytes
   Step          Temp          E_pair         E_mol          TotEng         Press     
   1050000   280.46509      395.27071      18554.09       19350.647     -94.417377    
   1060000   320.68536      399.25615      18528.217      19386.306     -5.4251432    
   1070000   323.0024       397.57938      18533.695      19393.423     -37.584593    
   1080000   313.06615      391.56261      18538.643      19378.137     -24.382508    
   1090000   305.53818      407.73462      18500.98       19345.875      323.89784    
   1100000   296.80906      391.97306      18525.522      19342.166     -152.22143    
Loop time of 17.5798 on 64 procs for 50000 steps with 481 atoms

Performance: 12.287 ns/day, 1.953 hours/ns, 2844.175 timesteps/s, 1.368 Matom-step/s
100.0% CPU use with 64 MPI tasks x 1 OpenMP threads

MPI task timing breakdown:
Section |  min time  |  avg time  |  max time  |%varavg| %total
---------------------------------------------------------------
Pair    | 0.016415   | 0.72136    | 5.6011     | 156.8 |  4.10
Bond    | 0.0052984  | 0.79515    | 4.6614     | 150.4 |  4.52
Neigh   | 0.037952   | 0.041203   | 0.045477   |   1.0 |  0.23
Comm    | 6.0391     | 13.397     | 16.178     |  86.6 | 76.21
Output  | 0.007507   | 0.014365   | 0.021018   |   3.6 |  0.08
Modify  | 0.61104    | 2.0051     | 9.4346     | 188.7 | 11.41
Other   |            | 0.6051     |            |       |  3.44

Nlocal:        7.51562 ave          36 max           0 min
Histogram: 42 5 1 0 0 4 2 2 5 3
Nghost:        1818.08 ave        2404 max        1288 min
Histogram: 16 0 0 0 32 0 0 0 0 16
Neighs:              0 ave           0 max           0 min
Histogram: 64 0 0 0 0 0 0 0 0 0

Total # of neighbors = 0
Ave neighs/atom = 0
Ave special neighs/atom = 15.567568
Neighbor list builds = 85
Dangerous builds = 0
Generated 0 of 1 mixed pair_coeff terms from geometric mixing rule
Setting up Verlet run ...
  Unit style    : real
  Current step  : 1100000
  Time step     : 0.05
Per MPI rank memory allocation (min/avg/max) = 13.32 | 13.62 | 14.95 Mbytes
   Step          Temp          E_pair         E_mol          TotEng         Press     
   1100000   296.80906      391.97306      18525.522      19342.166     -152.22143    
   1110000   285.24989      388.49419      18534.369      19330.995     -210.3038     
Loop time of 3.6231 on 64 procs for 10000 steps with 481 atoms

Performance: 11.923 ns/day, 2.013 hours/ns, 2760.064 timesteps/s, 1.328 Matom-step/s
100.0% CPU use with 64 MPI tasks x 1 OpenMP threads

MPI task timing breakdown:
Section |  min time  |  avg time  |  max time  |%varavg| %total
---------------------------------------------------------------
Pair    | 0.0032563  | 0.14368    | 1.0807     |  70.0 |  3.97
Bond    | 0.0010573  | 0.1584     | 0.93352    |  67.1 |  4.37
Neigh   | 0.0079323  | 0.008536   | 0.0093944  |   0.4 |  0.24
Comm    | 1.3814     | 2.7716     | 3.3471     |  39.9 | 76.50
Output  | 0.0014642  | 0.0028238  | 0.0041769  |   1.6 |  0.08
Modify  | 0.11457    | 0.41732    | 1.9936     |  90.1 | 11.52
Other   |            | 0.1207     |            |       |  3.33

Nlocal:        7.51562 ave          35 max           0 min
Histogram: 41 6 1 0 0 4 1 3 2 6
Nghost:         1820.8 ave        2409 max        1289 min
Histogram: 16 0 0 0 32 0 0 0 0 16
Neighs:              0 ave           0 max           0 min
Histogram: 64 0 0 0 0 0 0 0 0 0

Total # of neighbors = 0
Ave neighs/atom = 0
Ave special neighs/atom = 15.567568
Neighbor list builds = 17
Dangerous builds = 0
Generated 0 of 1 mixed pair_coeff terms from geometric mixing rule
Setting up Verlet run ...
  Unit style    : real
  Current step  : 1110000
  Time step     : 0.05
Per MPI rank memory allocation (min/avg/max) = 13.32 | 13.62 | 14.95 Mbytes
   Step          Temp          E_pair         E_mol          TotEng         Press     
   1110000   285.24989      388.49419      18534.369      19330.995     -210.3038     
   1120000   313.58741      393.06717      18495.461      19337.206     -6.0236652    
   1130000   293.29503      395.47741      18525.104      19340.225      10.355955    
   1140000   296.82438      385.91799      18550.333      19360.944     -187.71883    
   1150000   295.63461      391.23948      18541.738      19355.968     -102.74561    
   1160000   305.94705      392.96006      18548.002      19378.708     -18.166579    
Loop time of 17.9216 on 64 procs for 50000 steps with 481 atoms

Performance: 12.053 ns/day, 1.991 hours/ns, 2789.937 timesteps/s, 1.342 Matom-step/s
100.0% CPU use with 64 MPI tasks x 1 OpenMP threads

MPI task timing breakdown:
Section |  min time  |  avg time  |  max time  |%varavg| %total
---------------------------------------------------------------
Pair    | 0.016456   | 0.7198     | 5.3949     | 157.1 |  4.02
Bond    | 0.005298   | 0.79289    | 4.5337     | 150.4 |  4.42
Neigh   | 0.03814    | 0.041226   | 0.045355   |   0.9 |  0.23
Comm    | 6.7159     | 13.649     | 16.499     |  88.1 | 76.16
Output  | 0.0076089  | 0.014454   | 0.021092   |   3.6 |  0.08
Modify  | 0.62959    | 2.1002     | 9.7808     | 194.3 | 11.72
Other   |            | 0.6044     |            |       |  3.37

Nlocal:        7.51562 ave          36 max           0 min
Histogram: 40 8 0 0 0 1 5 3 4 3
Nghost:        1826.52 ave        2426 max        1288 min
Histogram: 16 0 0 0 32 0 0 0 0 16
Neighs:              0 ave           0 max           0 min
Histogram: 64 0 0 0 0 0 0 0 0 0

Total # of neighbors = 0
Ave neighs/atom = 0
Ave special neighs/atom = 15.567568
Neighbor list builds = 83
Dangerous builds = 0
Generated 0 of 1 mixed pair_coeff terms from geometric mixing rule
Setting up Verlet run ...
  Unit style    : real
  Current step  : 1160000
  Time step     : 0.05
Per MPI rank memory allocation (min/avg/max) = 13.32 | 13.62 | 14.95 Mbytes
   Step          Temp          E_pair         E_mol          TotEng         Press     
   1160000   305.94705      392.96006      18548.002      19378.708     -18.166579    
   1170000   291.92867      390.2267       18543.992      19351.907     -152.52501    
Loop time of 3.60036 on 64 procs for 10000 steps with 481 atoms

Performance: 11.999 ns/day, 2.000 hours/ns, 2777.499 timesteps/s, 1.336 Matom-step/s
100.0% CPU use with 64 MPI tasks x 1 OpenMP threads

MPI task timing breakdown:
Section |  min time  |  avg time  |  max time  |%varavg| %total
---------------------------------------------------------------
Pair    | 0.0032336  | 0.14373    | 1.0926     |  69.8 |  3.99
Bond    | 0.0010567  | 0.1583     | 0.90266    |  66.5 |  4.40
Neigh   | 0.0087446  | 0.0094599  | 0.010441   |   0.5 |  0.26
Comm    | 1.3454     | 2.7524     | 3.3223     |  39.2 | 76.45
Output  | 0.0014556  | 0.0028054  | 0.0041555  |   1.6 |  0.08
Modify  | 0.11347    | 0.41337    | 1.9753     |  88.2 | 11.48
Other   |            | 0.1203     |            |       |  3.34

Nlocal:        7.51562 ave          36 max           0 min
Histogram: 44 2 2 0 0 3 4 1 4 4
Nghost:        1819.77 ave        2413 max        1288 min
Histogram: 16 0 0 0 32 0 0 0 0 16
Neighs:              0 ave           0 max           0 min
Histogram: 64 0 0 0 0 0 0 0 0 0

Total # of neighbors = 0
Ave neighs/atom = 0
Ave special neighs/atom = 15.567568
Neighbor list builds = 19
Dangerous builds = 0
Generated 0 of 1 mixed pair_coeff terms from geometric mixing rule
Setting up Verlet run ...
  Unit style    : real
  Current step  : 1170000
  Time step     : 0.05
Per MPI rank memory allocation (min/avg/max) = 13.32 | 13.62 | 14.95 Mbytes
   Step          Temp          E_pair         E_mol          TotEng         Press     
   1170000   291.92867      390.2267       18543.992      19351.907     -152.52501    
   1180000   311.72099      387.72618      18490.237      19323.971      60.499942    
   1190000   279.8988       390.69113      18520.239      19311.406     -141.91311    
   1200000   296.41209      390.9024       18534.783      19349.789     -20.781429    
   1210000   308.98936      379.62179      18542.999      19364.719     -313.79448    
   1220000   297.7309       385.86079      18531.006      19342.857     -226.08598    
Loop time of 17.9495 on 64 procs for 50000 steps with 481 atoms

Performance: 12.034 ns/day, 1.994 hours/ns, 2785.598 timesteps/s, 1.340 Matom-step/s
100.0% CPU use with 64 MPI tasks x 1 OpenMP threads

MPI task timing breakdown:
Section |  min time  |  avg time  |  max time  |%varavg| %total
---------------------------------------------------------------
Pair    | 0.01758    | 0.71965    | 5.6041     | 155.8 |  4.01
Bond    | 0.0053733  | 0.79139    | 4.7327     | 148.9 |  4.41
Neigh   | 0.042884   | 0.046294   | 0.050955   |   1.0 |  0.26
Comm    | 6.323      | 13.693     | 16.53      |  87.7 | 76.29
Output  | 0.0076506  | 0.014485   | 0.021158   |   3.5 |  0.08
Modify  | 0.59951    | 2.0793     | 9.816      | 195.7 | 11.58
Other   |            | 0.6055     |            |       |  3.37

Nlocal:        7.51562 ave          42 max           0 min
Histogram: 44 3 2 0 1 4 4 4 1 1
Nghost:        1819.67 ave        2405 max        1287 min
Histogram: 16 0 0 0 32 0 0 0 0 16
Neighs:              0 ave           0 max           0 min
Histogram: 64 0 0 0 0 0 0 0 0 0

Total # of neighbors = 0
Ave neighs/atom = 0
Ave special neighs/atom = 15.567568
Neighbor list builds = 93
Dangerous builds = 0
Generated 0 of 1 mixed pair_coeff terms from geometric mixing rule
Setting up Verlet run ...
  Unit style    : real
  Current step  : 1220000
  Time step     : 0.05
Per MPI rank memory allocation (min/avg/max) = 13.32 | 13.62 | 14.95 Mbytes
[...]

Performance: 12.058 ns/day, 1.990 hours/ns, 2791.171 timesteps/s, 1.343 Matom-step/s
100.0% CPU use with 64 MPI tasks x 1 OpenMP threads

MPI task timing breakdown:
Section |  min time  |  avg time  |  max time  |%varavg| %total
---------------------------------------------------------------
Pair    | 0.016556   | 0.71257    | 5.316      | 157.2 |  3.98
Bond    | 0.0052797  | 0.79354    | 4.7408     | 150.0 |  4.43
Neigh   | 0.041395   | 0.044844   | 0.049341   |   1.0 |  0.25
Comm    | 6.5594     | 13.7       | 16.516     |  87.1 | 76.48
Output  | 0.0075589  | 0.014369   | 0.020973   |   3.6 |  0.08
Modify  | 0.59605    | 2.0442     | 9.7747     | 193.5 | 11.41
Other   |            | 0.604      |            |       |  3.37

Nlocal:        7.51562 ave          35 max           0 min
Histogram: 41 6 1 0 0 2 4 2 4 4
Nghost:        1821.55 ave        2414 max        1290 min
Histogram: 16 0 0 0 32 0 0 0 0 16
Neighs:              0 ave           0 max           0 min
Histogram: 64 0 0 0 0 0 0 0 0 0

Total # of neighbors = 0
Ave neighs/atom = 0
Ave special neighs/atom = 15.567568
Neighbor list builds = 90
Dangerous builds = 0
Generated 0 of 1 mixed pair_coeff terms from geometric mixing rule
Setting up Verlet run ...
  Unit style    : real
  Current step  : 2780000
  Time step     : 0.05
Per MPI rank memory allocation (min/avg/max) = 13.32 | 13.62 | 14.95 Mbytes
   Step          Temp          E_pair         E_mol          TotEng         Press     
   2780000   298.1003       378.54174      18516.952      19322.012     -54.513403    
   2790000   307.90751      387.78973      18516.825      19345.165      36.678506    
Loop time of 3.64028 on 64 procs for 10000 steps with 481 atoms

Performance: 11.867 ns/day, 2.022 hours/ns, 2747.041 timesteps/s, 1.321 Matom-step/s
100.0% CPU use with 64 MPI tasks x 1 OpenMP threads

MPI task timing breakdown:
Section |  min time  |  avg time  |  max time  |%varavg| %total
---------------------------------------------------------------
Pair    | 0.0032308  | 0.14154    | 1.0271     |  69.2 |  3.89
Bond    | 0.0010555  | 0.15829    | 0.93187    |  66.8 |  4.35
Neigh   | 0.0082436  | 0.0089371  | 0.0098317  |   0.4 |  0.25
Comm    | 1.4274     | 2.7851     | 3.3559     |  39.0 | 76.51
Output  | 0.0014815  | 0.0028176  | 0.0041588  |   1.6 |  0.08
Modify  | 0.12574    | 0.42347    | 2.0113     |  88.0 | 11.63
Other   |            | 0.1201     |            |       |  3.30

Nlocal:        7.51562 ave          39 max           0 min
Histogram: 44 3 1 1 0 3 5 4 2 1
Nghost:        1819.95 ave        2412 max        1285 min
Histogram: 16 0 0 0 32 0 0 0 0 16
Neighs:              0 ave           0 max           0 min
Histogram: 64 0 0 0 0 0 0 0 0 0

Total # of neighbors = 0
Ave neighs/atom = 0
Ave special neighs/atom = 15.567568
Neighbor list builds = 18
Dangerous builds = 0
Generated 0 of 1 mixed pair_coeff terms from geometric mixing rule
Setting up Verlet run ...
  Unit style    : real
  Current step  : 2790000
  Time step     : 0.05
Per MPI rank memory allocation (min/avg/max) = 13.32 | 13.62 | 14.95 Mbytes
   Step          Temp          E_pair         E_mol          TotEng         Press     
   2790000   307.90751      387.78973      18516.825      19345.165      36.678506    
   2800000   307.55929      379.31962      18520.454      19339.826     -135.19314    
   2810000   283.99874      381.74257      18520.211      19308.295     -110.3658     
   2820000   291.51777      386.75688      18521.172      19325.029      87.20573     
   2830000   308.84436      374.32832      18538.701      19354.92      -237.81038    
   2840000   308.49155      381.49992      18520.143      19343.029     -77.930389    
Loop time of 17.9192 on 64 procs for 50000 steps with 481 atoms

Performance: 12.054 ns/day, 1.991 hours/ns, 2790.305 timesteps/s, 1.342 Matom-step/s
100.0% CPU use with 64 MPI tasks x 1 OpenMP threads

MPI task timing breakdown:
Section |  min time  |  avg time  |  max time  |%varavg| %total
---------------------------------------------------------------
Pair    | 0.017043   | 0.70999    | 5.5129     | 157.2 |  3.96
Bond    | 0.0052874  | 0.79185    | 4.8417     | 150.4 |  4.42
Neigh   | 0.049048   | 0.053007   | 0.058348   |   1.1 |  0.30
Comm    | 6.2553     | 13.64      | 16.48      |  86.9 | 76.12
Output  | 0.0076876  | 0.014524   | 0.021168   |   3.6 |  0.08
Modify  | 0.60638    | 2.1043     | 9.7501     | 191.0 | 11.74
Other   |            | 0.6057     |            |       |  3.38

Nlocal:        7.51562 ave          37 max           0 min
Histogram: 40 8 0 0 1 2 2 5 3 3
Nghost:        1818.27 ave        2404 max        1289 min
Histogram: 16 0 0 0 32 0 0 0 0 16
Neighs:              0 ave           0 max           0 min
Histogram: 64 0 0 0 0 0 0 0 0 0

Total # of neighbors = 0
Ave neighs/atom = 0
Ave special neighs/atom = 15.567568
Neighbor list builds = 107
Dangerous builds = 0
Generated 0 of 1 mixed pair_coeff terms from geometric mixing rule
Setting up Verlet run ...
  Unit style    : real
  Current step  : 2840000
  Time step     : 0.05
Per MPI rank memory allocation (min/avg/max) = 13.32 | 13.62 | 14.95 Mbytes
   Step          Temp          E_pair         E_mol          TotEng         Press     
   2840000   308.49155      381.49992      18520.143      19343.029     -77.930389    
   2850000   300.25119      392.97476      18525.16       19347.731      343.21532    
Loop time of 3.44276 on 64 procs for 10000 steps with 481 atoms

Performance: 12.548 ns/day, 1.913 hours/ns, 2904.645 timesteps/s, 1.397 Matom-step/s
100.0% CPU use with 64 MPI tasks x 1 OpenMP threads

MPI task timing breakdown:
Section |  min time  |  avg time  |  max time  |%varavg| %total
---------------------------------------------------------------
Pair    | 0.0033209  | 0.14233    | 1.0526     |  70.1 |  4.13
Bond    | 0.001057   | 0.15798    | 0.86375    |  66.3 |  4.59
Neigh   | 0.0086871  | 0.0093949  | 0.010359   |   0.5 |  0.27
Comm    | 1.3459     | 2.6253     | 3.16       |  37.9 | 76.25
Output  | 0.0014474  | 0.0028277  | 0.0041985  |   1.6 |  0.08
Modify  | 0.11448    | 0.38451    | 1.807      |  82.1 | 11.17
Other   |            | 0.1205     |            |       |  3.50

Nlocal:        7.51562 ave          35 max           0 min
Histogram: 43 2 3 0 0 1 3 3 6 3
Nghost:        1824.55 ave        2424 max        1289 min
Histogram: 16 0 0 0 32 0 0 0 0 16
Neighs:              0 ave           0 max           0 min
Histogram: 64 0 0 0 0 0 0 0 0 0

Total # of neighbors = 0
Ave neighs/atom = 0
Ave special neighs/atom = 15.567568
Neighbor list builds = 20
Dangerous builds = 0
Generated 0 of 1 mixed pair_coeff terms from geometric mixing rule
Setting up Verlet run ...
  Unit style    : real
  Current step  : 2850000
  Time step     : 0.05
Per MPI rank memory allocation (min/avg/max) = 13.32 | 13.62 | 14.95 Mbytes
   Step          Temp          E_pair         E_mol          TotEng         Press     
   2850000   300.25119      392.97476      18525.16       19347.731      343.21532    
   2860000   298.01464      373.74127      18507.04       19307.177     -61.935657    
   2870000   288.99439      376.61366      18525.245      19315.349     -155.43985    
   2880000   305.27055      382.7805       18519.373      19338.932     -71.2716      
   2890000   313.48866      379.44081      18485.925      19313.902      20.306749    
   2900000   293.39206      380.96336      18483.554      19284.3        7.2129816    
Loop time of 17.7729 on 64 procs for 50000 steps with 481 atoms

Performance: 12.153 ns/day, 1.975 hours/ns, 2813.276 timesteps/s, 1.353 Matom-step/s
100.0% CPU use with 64 MPI tasks x 1 OpenMP threads

MPI task timing breakdown:
Section |  min time  |  avg time  |  max time  |%varavg| %total
---------------------------------------------------------------
Pair    | 0.01708    | 0.7104     | 5.468      | 157.6 |  4.00
Bond    | 0.0052719  | 0.7909     | 4.7118     | 149.9 |  4.45
Neigh   | 0.046678   | 0.050403   | 0.055502   |   1.1 |  0.28
Comm    | 6.3044     | 13.532     | 16.358     |  86.6 | 76.14
Output  | 0.0075908  | 0.014498   | 0.021195   |   3.6 |  0.08
Modify  | 0.5963     | 2.0703     | 9.6193     | 190.0 | 11.65
Other   |            | 0.6049     |            |       |  3.40

Nlocal:        7.51562 ave          35 max           0 min
Histogram: 41 6 1 0 0 3 4 1 2 6
Nghost:           1819 ave        2411 max        1292 min
Histogram: 16 0 0 0 32 0 0 0 0 16
Neighs:              0 ave           0 max           0 min
Histogram: 64 0 0 0 0 0 0 0 0 0

Total # of neighbors = 0
Ave neighs/atom = 0
Ave special neighs/atom = 15.567568
Neighbor list builds = 103
Dangerous builds = 0
Generated 0 of 1 mixed pair_coeff terms from geometric mixing rule
Setting up Verlet run ...
  Unit style    : real
  Current step  : 2900000
  Time step     : 0.05
Per MPI rank memory allocation (min/avg/max) = 13.32 | 13.62 | 14.95 Mbytes
   Step          Temp          E_pair         E_mol          TotEng         Press     
   2900000   293.39206      380.96336      18483.554      19284.3        7.2129816    
   2910000   296.97085      382.09963      18507.387      19314.389     -25.593607    
Loop time of 3.55534 on 64 procs for 10000 steps with 481 atoms

Performance: 12.151 ns/day, 1.975 hours/ns, 2812.670 timesteps/s, 1.353 Matom-step/s
100.0% CPU use with 64 MPI tasks x 1 OpenMP threads

MPI task timing breakdown:
Section |  min time  |  avg time  |  max time  |%varavg| %total
---------------------------------------------------------------
Pair    | 0.0034115  | 0.14137    | 1.141      |  70.0 |  3.98
Bond    | 0.0010531  | 0.1583     | 1.0047     |  67.6 |  4.45
Neigh   | 0.0076043  | 0.0082485  | 0.00911    |   0.4 |  0.23
Comm    | 1.1526     | 2.704      | 3.2699     |  38.4 | 76.05
Output  | 0.0015063  | 0.0028559  | 0.0041948  |   1.6 |  0.08
Modify  | 0.12576    | 0.41952    | 1.9228     |  83.7 | 11.80
Other   |            | 0.1211     |            |       |  3.41

Nlocal:        7.51562 ave          41 max           0 min
Histogram: 43 5 0 1 1 3 4 5 0 2
Nghost:         1825.2 ave        2419 max        1286 min
Histogram: 16 0 0 0 32 0 0 0 0 16
Neighs:              0 ave           0 max           0 min
Histogram: 64 0 0 0 0 0 0 0 0 0

Total # of neighbors = 0
Ave neighs/atom = 0
Ave special neighs/atom = 15.567568
Neighbor list builds = 17
Dangerous builds = 0
Generated 0 of 1 mixed pair_coeff terms from geometric mixing rule
Setting up Verlet run ...
  Unit style    : real
  Current step  : 2910000
  Time step     : 0.05
Per MPI rank memory allocation (min/avg/max) = 13.32 | 13.62 | 14.95 Mbytes
   Step          Temp          E_pair         E_mol          TotEng         Press     
   2910000   296.97085      382.09963      18507.387      19314.389     -25.593607    
   2920000   304.45967      369.03311      18540.275      19344.925     -485.81669    
   2930000   294.62605      386.46775      18509.852      19317.867      148.6172     
   2940000   293.6584       378.47771      18495.842      19294.483     -141.26526    
   2950000   277.37259      386.80009      18485.302      19268.964      65.952403    
   2960000   300.32718      381.57181      18511.603      19322.879     -146.47361    
Loop time of 17.5679 on 64 procs for 50000 steps with 481 atoms

Performance: 12.295 ns/day, 1.952 hours/ns, 2846.104 timesteps/s, 1.369 Matom-step/s
100.0% CPU use with 64 MPI tasks x 1 OpenMP threads

MPI task timing breakdown:
Section |  min time  |  avg time  |  max time  |%varavg| %total
---------------------------------------------------------------
Pair    | 0.017243   | 0.70915    | 5.4487     | 156.1 |  4.04
Bond    | 0.0052976  | 0.79198    | 4.7832     | 149.8 |  4.51
Neigh   | 0.025563   | 0.02773    | 0.030614   |   0.8 |  0.16
Comm    | 6.0649     | 13.386     | 16.158     |  86.3 | 76.20
Output  | 0.0075484  | 0.01435    | 0.020946   |   3.6 |  0.08
Modify  | 0.59606    | 2.0326     | 9.4576     | 188.5 | 11.57
Other   |            | 0.6058     |            |       |  3.45

Nlocal:        7.51562 ave          39 max           0 min
Histogram: 42 5 1 0 1 2 5 6 1 1
Nghost:        1818.92 ave        2403 max        1291 min
Histogram: 16 0 0 0 32 0 0 0 0 16
Neighs:              0 ave           0 max           0 min
Histogram: 64 0 0 0 0 0 0 0 0 0

Total # of neighbors = 0
Ave neighs/atom = 0
Ave special neighs/atom = 15.567568
Neighbor list builds = 57
Dangerous builds = 0
Generated 0 of 1 mixed pair_coeff terms from geometric mixing rule
Setting up Verlet run ...
  Unit style    : real
  Current step  : 2960000
  Time step     : 0.05
Per MPI rank memory allocation (min/avg/max) = 13.32 | 13.62 | 14.95 Mbytes
   Step          Temp          E_pair         E_mol          TotEng         Press     
   2960000   300.32718      381.57181      18511.603      19322.879     -146.47361    
   2970000   309.57696      379.6602       18527.046      19349.645     -151.29444    
Loop time of 3.58903 on 64 procs for 10000 steps with 481 atoms

Performance: 12.037 ns/day, 1.994 hours/ns, 2786.269 timesteps/s, 1.340 Matom-step/s
100.0% CPU use with 64 MPI tasks x 1 OpenMP threads

MPI task timing breakdown:
Section |  min time  |  avg time  |  max time  |%varavg| %total
---------------------------------------------------------------
Pair    | 0.0034621  | 0.14155    | 1.114      |  69.9 |  3.94
Bond    | 0.0010631  | 0.15849    | 1.0023     |  67.3 |  4.42
Neigh   | 0.0043063  | 0.0046391  | 0.0050753  |   0.3 |  0.13
Comm    | 1.2262     | 2.7501     | 3.3095     |  39.4 | 76.63
Output  | 0.0015283  | 0.0028797  | 0.0042257  |   1.6 |  0.08
Modify  | 0.12178    | 0.41006    | 1.9658     |  87.9 | 11.43
Other   |            | 0.1213     |            |       |  3.38

Nlocal:        7.51562 ave          37 max           0 min
Histogram: 40 8 0 0 1 3 4 2 2 4
Nghost:        1818.73 ave        2418 max        1287 min
Histogram: 16 0 0 0 32 0 0 0 0 16
Neighs:              0 ave           0 max           0 min
Histogram: 64 0 0 0 0 0 0 0 0 0

Total # of neighbors = 0
Ave neighs/atom = 0
Ave special neighs/atom = 15.567568
Neighbor list builds = 9
Dangerous builds = 0
Generated 0 of 1 mixed pair_coeff terms from geometric mixing rule
Setting up Verlet run ...
  Unit style    : real
  Current step  : 2970000
  Time step     : 0.05
Per MPI rank memory allocation (min/avg/max) = 13.32 | 13.62 | 14.95 Mbytes
   Step          Temp          E_pair         E_mol          TotEng         Press     
   2970000   309.57696      379.6602       18527.046      19349.645     -151.29444    
   2980000   302.57579      386.7542       18504.29       19323.967      2.853923     
   2990000   303.77924      385.8933       18490.199      19310.736      36.783444    
   3000000   297.33373      380.0319       18499.726      19305.179     -165.56145    
   3010000   309.37291      380.94554      18505.742      19329.335     -48.469894    
   3020000   304.85527      388.96712      18519.958      19345.109      176.52235    
Loop time of 17.86 on 64 procs for 50000 steps with 481 atoms

Performance: 12.094 ns/day, 1.984 hours/ns, 2799.547 timesteps/s, 1.347 Matom-step/s
100.0% CPU use with 64 MPI tasks x 1 OpenMP threads

MPI task timing breakdown:
Section |  min time  |  avg time  |  max time  |%varavg| %total
---------------------------------------------------------------
Pair    | 0.017145   | 0.71318    | 5.5726     | 156.5 |  3.99
Bond    | 0.0052857  | 0.79432    | 4.9046     | 150.3 |  4.45
Neigh   | 0.036833   | 0.039775   | 0.043738   |   0.9 |  0.22
Comm    | 6.1008     | 13.642     | 16.447     |  87.0 | 76.38
Output  | 0.007739   | 0.014615   | 0.021248   |   3.6 |  0.08
Modify  | 0.61193    | 2.0484     | 9.7101     | 192.5 | 11.47
Other   |            | 0.6079     |            |       |  3.40

Nlocal:        7.51562 ave          40 max           0 min
Histogram: 43 3 2 1 3 1 2 5 1 3
Nghost:        1819.39 ave        2415 max        1284 min
Histogram: 16 0 0 0 32 0 0 0 0 16
Neighs:              0 ave           0 max           0 min
Histogram: 64 0 0 0 0 0 0 0 0 0

Total # of neighbors = 0
Ave neighs/atom = 0
Ave special neighs/atom = 15.567568
Neighbor list builds = 80
Dangerous builds = 0
Generated 0 of 1 mixed pair_coeff terms from geometric mixing rule
Setting up Verlet run ...
  Unit style    : real
  Current step  : 3020000
  Time step     : 0.05
Per MPI rank memory allocation (min/avg/max) = 13.32 | 13.62 | 14.95 Mbytes
   Step          Temp          E_pair         E_mol          TotEng         Press     
   3020000   304.85527      388.96712      18519.958      19345.109      176.52235    
   3030000   293.50555      384.13036      18534.819      19338.894      4.1992135    
Loop time of 3.55525 on 64 procs for 10000 steps with 481 atoms

Performance: 12.151 ns/day, 1.975 hours/ns, 2812.740 timesteps/s, 1.353 Matom-step/s
100.0% CPU use with 64 MPI tasks x 1 OpenMP threads

MPI task timing breakdown:
Section |  min time  |  avg time  |  max time  |%varavg| %total
---------------------------------------------------------------
Pair    | 0.003272   | 0.14217    | 1.0927     |  70.2 |  4.00
Bond    | 0.0010548  | 0.15853    | 0.95367    |  67.5 |  4.46
Neigh   | 0.0049664  | 0.005414   | 0.0059736  |   0.4 |  0.15
Comm    | 1.2642     | 2.7232     | 3.2844     |  39.1 | 76.60
Output  | 0.0014786  | 0.0028314  | 0.0041934  |   1.6 |  0.08
Modify  | 0.12135    | 0.40214    | 1.9263     |  86.8 | 11.31
Other   |            | 0.1209     |            |       |  3.40

Nlocal:        7.51562 ave          36 max           0 min
Histogram: 43 3 2 0 0 3 2 4 4 3
Nghost:        1823.33 ave        2419 max        1291 min
Histogram: 16 0 0 0 32 0 0 0 0 16
Neighs:              0 ave           0 max           0 min
Histogram: 64 0 0 0 0 0 0 0 0 0

Total # of neighbors = 0
Ave neighs/atom = 0
Ave special neighs/atom = 15.567568
Neighbor list builds = 11
Dangerous builds = 0
Generated 0 of 1 mixed pair_coeff terms from geometric mixing rule
Setting up Verlet run ...
  Unit style    : real
  Current step  : 3030000
  Time step     : 0.05
Per MPI rank memory allocation (min/avg/max) = 13.32 | 13.62 | 14.95 Mbytes
   Step          Temp          E_pair         E_mol          TotEng         Press     
   3030000   293.50555      384.13036      18534.819      19338.894      4.1992135    
   3040000   301.22747      377.99312      18508.076      19317.062     -199.90517    
   3050000   287.95996      384.23821      18523.897      19320.145      72.415129    
   3060000   313.56285      388.52314      18505.861      19343.027      126.86313    
   3070000   291.23741      376.57086      18516.232      19309.502     -203.05754    
   3080000   290.00209      376.2714       18492.659      19283.862     -237.78706    
Loop time of 17.6868 on 64 procs for 50000 steps with 481 atoms

Performance: 12.212 ns/day, 1.965 hours/ns, 2826.967 timesteps/s, 1.360 Matom-step/s
100.0% CPU use with 64 MPI tasks x 1 OpenMP threads

MPI task timing breakdown:
Section |  min time  |  avg time  |  max time  |%varavg| %total
---------------------------------------------------------------
Pair    | 0.017516   | 0.71217    | 5.3959     | 157.8 |  4.03
Bond    | 0.0053185  | 0.79304    | 4.7411     | 150.5 |  4.48
Neigh   | 0.041391   | 0.044783   | 0.049367   |   1.0 |  0.25
Comm    | 6.2508     | 13.526     | 16.268     |  86.6 | 76.48
Output  | 0.007644   | 0.014407   | 0.021008   |   3.5 |  0.08
Modify  | 0.6076     | 1.9939     | 9.5441     | 189.7 | 11.27
Other   |            | 0.6022     |            |       |  3.40

Nlocal:        7.51562 ave          39 max           0 min
Histogram: 42 5 1 0 2 4 2 2 4 2
Nghost:         1819.3 ave        2407 max        1286 min
Histogram: 16 0 0 0 32 0 0 0 0 16
Neighs:              0 ave           0 max           0 min
Histogram: 64 0 0 0 0 0 0 0 0 0

Total # of neighbors = 0
Ave neighs/atom = 0
Ave special neighs/atom = 15.567568
Neighbor list builds = 91
Dangerous builds = 0
Total wall time: 0:18:16
