LAMMPS (27 Jun 2024)
OMP_NUM_THREADS environment is not set. Defaulting to 1 thread. (src/comm.cpp:98)
  using 1 OpenMP thread(s) per MPI task
Reading data file ...
  orthogonal box = (-30 -30 -30) to (30 30 30)
  4 by 4 by 4 MPI processor grid
  reading atoms ...
  480 atoms
  reading velocities ...
  480 velocities
  scanning bonds ...
  2 = max bonds/atom
  scanning angles ...
  3 = max angles/atom
  scanning dihedrals ...
  8 = max dihedrals/atom
  scanning impropers ...
  2 = max impropers/atom
  orthogonal box = (-30 -30 -30) to (30 30 30)
  4 by 4 by 4 MPI processor grid
  reading bonds ...
  676 bonds
  reading angles ...
  1268 angles
  reading dihedrals ...
  2394 dihedrals
  reading impropers ...
  396 impropers
Finding 1-2 1-3 1-4 neighbors ...
  special bond factors lj:    0        0        0       
  special bond factors coul:  0        0        0       
     3 = max # of 1-2 neighbors
     6 = max # of 1-3 neighbors
    18 = max # of 1-4 neighbors
    18 = max # of special neighbors
  special bonds CPU = 0.002 seconds
  read_data CPU = 0.051 seconds
Finding 1-2 1-3 1-4 neighbors ...
  special bond factors lj:    0        0        0.5     
  special bond factors coul:  0        0        0       
     3 = max # of 1-2 neighbors
     6 = max # of 1-3 neighbors
    18 = max # of 1-4 neighbors
    18 = max # of special neighbors
  special bonds CPU = 0.001 seconds
Created 1 atoms
  using lattice units in orthogonal box = (-30 -30 -30) to (30 30 30)
  create_atoms CPU = 0.000 seconds
480 atoms in group C
1 atoms in group H2

CITE-CITE-CITE-CITE-CITE-CITE-CITE-CITE-CITE-CITE-CITE-CITE-CITE

Your simulation uses code contributions which should be cited:
- Type Label Framework: https://doi.org/10.1021/acs.jpcb.3c08419
The log file lists these citations in BibTeX format.

CITE-CITE-CITE-CITE-CITE-CITE-CITE-CITE-CITE-CITE-CITE-CITE-CITE

Generated 0 of 1 mixed pair_coeff terms from geometric mixing rule
Neighbor list info ...
  update: every = 1 steps, delay = 3 steps, check = yes
  max neighbors/atom: 6000, page size: 100000
  master list distance cutoff = 31
  ghost atom cutoff = 31
  binsize = 15.5, bins = 4 4 4
  4 neighbor lists, perpetual/occasional/extra = 4 0 0
  (1) pair lj/cut, perpetual, skip trim from (4)
      attributes: half, newton on, cut 15
      pair build: skip/trim
      stencil: none
      bin: none
  (2) pair sg, perpetual, skip trim from (4)
      attributes: half, newton on, cut 16
      pair build: skip/trim
      stencil: none
      bin: none
  (3) pair cb, perpetual, skip from (4)
      attributes: half, newton on
      pair build: skip
      stencil: none
      bin: none
  (4) neighbor class addition, perpetual
      attributes: half, newton on
      pair build: half/bin/newton
      stencil: half/bin/3d
      bin: standard
Setting up Verlet run ...
  Unit style    : real
  Current step  : 0
  Time step     : 0.05
Per MPI rank memory allocation (min/avg/max) = 13.29 | 13.4 | 13.93 Mbytes
   Step          Temp          E_pair         E_mol          TotEng         Press          Volume    
         0   300            308.5124       19603.922      20341.671     -432.43506      216000       
     10000   308.71881      373.71132      18568.425      19383.847     -313.89117      172136.83    
     20000   319.74694      375.11214      18539.114      19371.717     -417.40409      126541.73    
Loop time of 8.11141 on 64 procs for 20000 steps with 481 atoms

Performance: 10.652 ns/day, 2.253 hours/ns, 2465.664 timesteps/s, 1.186 Matom-step/s
99.8% CPU use with 64 MPI tasks x 1 OpenMP threads

MPI task timing breakdown:
Section |  min time  |  avg time  |  max time  |%varavg| %total
---------------------------------------------------------------
Pair    | 0.1372     | 0.5452     | 2.0937     |  72.8 |  6.72
Bond    | 0.0040248  | 0.40354    | 1.8803     | 107.6 |  4.97
Neigh   | 0.019826   | 0.023571   | 0.026795   |   1.2 |  0.29
Comm    | 3.2289     | 4.7418     | 5.8761     |  42.8 | 58.46
Output  | 0.0045609  | 0.014229   | 0.02519    |   5.7 |  0.18
Modify  | 0.85555    | 2.0057     | 3.9276     |  65.5 | 24.73
Other   |            | 0.3773     |            |       |  4.65

Nlocal:        7.51562 ave          36 max           0 min
Histogram: 41 7 0 0 0 1 2 9 3 1
Nghost:        1804.95 ave        2371 max        1288 min
Histogram: 16 0 0 0 32 0 0 0 0 16
Neighs:              0 ave           0 max           0 min
Histogram: 64 0 0 0 0 0 0 0 0 0

Total # of neighbors = 0
Ave neighs/atom = 0
Ave special neighs/atom = 15.567568
Neighbor list builds = 52
Dangerous builds = 0
Generated 0 of 1 mixed pair_coeff terms from geometric mixing rule
Setting up Verlet run ...
  Unit style    : real
  Current step  : 20000
  Time step     : 0.05
Per MPI rank memory allocation (min/avg/max) = 13.32 | 13.62 | 14.95 Mbytes
   Step          Temp          E_pair         E_mol          TotEng         Press     
     20000   319.74694      375.11214      18539.114      19371.717     -417.40409    
     30000   301.85027      346.00526      18606.448      19384.337     -1315.9521    
Loop time of 3.8007 on 64 procs for 10000 steps with 481 atoms

Performance: 11.366 ns/day, 2.111 hours/ns, 2631.097 timesteps/s, 1.266 Matom-step/s
99.9% CPU use with 64 MPI tasks x 1 OpenMP threads

MPI task timing breakdown:
Section |  min time  |  avg time  |  max time  |%varavg| %total
---------------------------------------------------------------
Pair    | 0.0034327  | 0.15428    | 0.92646    |  66.1 |  4.06
Bond    | 0.001131   | 0.17769    | 0.86291    |  68.6 |  4.68
Neigh   | 0.045883   | 0.052679   | 0.058639   |   1.3 |  1.39
Comm    | 1.594      | 2.8369     | 3.3945     |  35.1 | 74.64
Output  | 0.0021093  | 0.0054853  | 0.0092155  |   3.0 |  0.14
Modify  | 0.17379    | 0.42442    | 1.7092     |  69.9 | 11.17
Other   |            | 0.1492     |            |       |  3.93

Nlocal:        7.51562 ave          33 max           0 min
Histogram: 42 4 2 0 1 0 5 3 3 4
Nghost:        1806.73 ave        2378 max        1291 min
Histogram: 16 0 0 0 32 0 0 0 0 16
Neighs:              0 ave           0 max           0 min
Histogram: 64 0 0 0 0 0 0 0 0 0

Total # of neighbors = 0
Ave neighs/atom = 0
Ave special neighs/atom = 15.567568
Neighbor list builds = 109
Dangerous builds = 0
Generated 0 of 1 mixed pair_coeff terms from geometric mixing rule
Setting up Verlet run ...
  Unit style    : real
  Current step  : 30000
  Time step     : 0.05
Per MPI rank memory allocation (min/avg/max) = 13.32 | 13.62 | 14.95 Mbytes
   Step          Temp          E_pair         E_mol          TotEng         Press     
     30000   301.85027      346.00526      18606.448      19384.337     -1315.9521    
     40000   290.5641       418.45714      18509.82       19344.013      590.26034    
     50000   262.29405      399.23107      18551.056      19325.574      59.725537    
     60000   294.19153      381.18314      18563.115      19365.224     -168.61122    
     70000   293.63671      383.97763      18552.66       19356.77      -93.247696    
     80000   296.08669      408.5309       18534.617      19366.785      336.48275    
Loop time of 18.4348 on 64 procs for 50000 steps with 481 atoms

Performance: 11.717 ns/day, 2.048 hours/ns, 2712.261 timesteps/s, 1.305 Matom-step/s
100.0% CPU use with 64 MPI tasks x 1 OpenMP threads

MPI task timing breakdown:
Section |  min time  |  avg time  |  max time  |%varavg| %total
---------------------------------------------------------------
Pair    | 0.017256   | 0.72755    | 4.0815     | 143.0 |  3.95
Bond    | 0.0057341  | 0.83483    | 4.159      | 148.2 |  4.53
Neigh   | 0.14217    | 0.16622    | 0.1872     |   2.4 |  0.90
Comm    | 8.5476     | 13.741     | 16.43      |  76.2 | 74.54
Output  | 0.010354   | 0.022852   | 0.035934   |   5.4 |  0.12
Modify  | 0.87265    | 2.1849     | 8.3283     | 153.0 | 11.85
Other   |            | 0.7572     |            |       |  4.11

Nlocal:        7.51562 ave          35 max           0 min
Histogram: 42 5 1 0 0 1 6 1 3 5
Nghost:        1826.33 ave        2425 max        1290 min
Histogram: 16 0 0 0 32 0 0 0 0 16
Neighs:              0 ave           0 max           0 min
Histogram: 64 0 0 0 0 0 0 0 0 0

Total # of neighbors = 0
Ave neighs/atom = 0
Ave special neighs/atom = 15.567568
Neighbor list builds = 358
Dangerous builds = 0
Generated 0 of 1 mixed pair_coeff terms from geometric mixing rule
Setting up Verlet run ...
  Unit style    : real
  Current step  : 80000
  Time step     : 0.05
Per MPI rank memory allocation (min/avg/max) = 13.32 | 13.62 | 14.95 Mbytes
   Step          Temp          E_pair         E_mol          TotEng         Press     
     80000   296.08669      408.5309       18534.617      19366.785      336.48275    
     90000   300.25547      382.57231      18524.722      19336.896     -137.02427    
Loop time of 4.01476 on 64 procs for 10000 steps with 481 atoms

Performance: 10.760 ns/day, 2.230 hours/ns, 2490.810 timesteps/s, 1.198 Matom-step/s
100.0% CPU use with 64 MPI tasks x 1 OpenMP threads

MPI task timing breakdown:
Section |  min time  |  avg time  |  max time  |%varavg| %total
---------------------------------------------------------------
Pair    | 0.0035087  | 0.15768    | 1.1004     |  69.5 |  3.93
Bond    | 0.0011957  | 0.17905    | 0.90263    |  70.6 |  4.46
Neigh   | 0.012853   | 0.014646   | 0.016211   |   0.7 |  0.36
Comm    | 1.7037     | 3.0058     | 3.6403     |  36.8 | 74.87
Output  | 0.0017518  | 0.0039878  | 0.0062176  |   2.3 |  0.10
Modify  | 0.1592     | 0.49463    | 1.8632     |  72.1 | 12.32
Other   |            | 0.159      |            |       |  3.96

Nlocal:        7.51562 ave          35 max           0 min
Histogram: 41 6 1 0 0 1 5 2 5 3
Nghost:         1819.3 ave        2410 max        1289 min
Histogram: 16 0 0 0 32 0 0 0 0 16
Neighs:              0 ave           0 max           0 min
Histogram: 64 0 0 0 0 0 0 0 0 0

Total # of neighbors = 0
Ave neighs/atom = 0
Ave special neighs/atom = 15.567568
Neighbor list builds = 28
Dangerous builds = 0
Generated 0 of 1 mixed pair_coeff terms from geometric mixing rule
Setting up Verlet run ...
  Unit style    : real
  Current step  : 90000
  Time step     : 0.05
Per MPI rank memory allocation (min/avg/max) = 13.32 | 13.62 | 14.95 Mbytes
   Step          Temp          E_pair         E_mol          TotEng         Press     
     90000   300.25547      382.57231      18524.722      19336.896     -137.02427    
    100000   279.65607      382.11029      18532.569      19314.808     -270.51059    
    110000   295.19611      395.15972      18512.453      19329.976      203.22291    
    120000   291.78672      388.03034      18544.214      19349.73      -207.65105    
    130000   299.3386       379.95536      18552.863      19361.109     -119.67753    
    140000   302.53884      374.31202      18529.44       19336.621     -379.74408    
Loop time of 19.0706 on 64 procs for 50000 steps with 481 atoms

Performance: 11.326 ns/day, 2.119 hours/ns, 2621.839 timesteps/s, 1.261 Matom-step/s
100.0% CPU use with 64 MPI tasks x 1 OpenMP threads

MPI task timing breakdown:
Section |  min time  |  avg time  |  max time  |%varavg| %total
---------------------------------------------------------------
Pair    | 0.018131   | 0.77386    | 4.4205     | 148.0 |  4.06
Bond    | 0.0057447  | 0.88106    | 4.4631     | 153.8 |  4.62
Neigh   | 0.046936   | 0.053906   | 0.059883   |   1.3 |  0.28
Comm    | 8.2727     | 14.293     | 17.171     |  77.9 | 74.95
Output  | 0.0099041  | 0.019427   | 0.028864   |   4.3 |  0.10
Modify  | 0.84718    | 2.2591     | 8.399      | 148.7 | 11.85
Other   |            | 0.7901     |            |       |  4.14

Nlocal:        7.51562 ave          37 max           0 min
Histogram: 41 7 0 0 2 2 1 5 3 3
Nghost:        1821.55 ave        2411 max        1287 min
Histogram: 16 0 0 0 32 0 0 0 0 16
Neighs:              0 ave           0 max           0 min
Histogram: 64 0 0 0 0 0 0 0 0 0

Total # of neighbors = 0
Ave neighs/atom = 0
Ave special neighs/atom = 15.567568
Neighbor list builds = 110
Dangerous builds = 0
Generated 0 of 1 mixed pair_coeff terms from geometric mixing rule
Setting up Verlet run ...
  Unit style    : real
  Current step  : 140000
  Time step     : 0.05
Per MPI rank memory allocation (min/avg/max) = 13.32 | 13.62 | 14.95 Mbytes
   Step          Temp          E_pair         E_mol          TotEng         Press     
    140000   302.53884      374.31202      18529.44       19336.621     -379.74408    
    150000   282.25511      390.1786       18509.645      19303.671      97.618947    
Loop time of 3.71946 on 64 procs for 10000 steps with 481 atoms

Performance: 11.615 ns/day, 2.066 hours/ns, 2688.565 timesteps/s, 1.293 Matom-step/s
100.0% CPU use with 64 MPI tasks x 1 OpenMP threads

MPI task timing breakdown:
Section |  min time  |  avg time  |  max time  |%varavg| %total
---------------------------------------------------------------
Pair    | 0.0034682  | 0.14421    | 0.97858    |  64.6 |  3.88
Bond    | 0.0011533  | 0.1654     | 0.87294    |  66.7 |  4.45
Neigh   | 0.0088991  | 0.010039   | 0.011194   |   0.5 |  0.27
Comm    | 1.6576     | 2.8133     | 3.3685     |  35.1 | 75.64
Output  | 0.0016816  | 0.0034969  | 0.0053127  |   1.9 |  0.09
Modify  | 0.15974    | 0.43632    | 1.7474     |  74.2 | 11.73
Other   |            | 0.1467     |            |       |  3.94

Nlocal:        7.51562 ave          35 max           0 min
Histogram: 43 2 3 0 0 0 5 2 6 3
Nghost:         1825.3 ave        2417 max        1289 min
Histogram: 16 0 0 0 32 0 0 0 0 16
Neighs:              0 ave           0 max           0 min
Histogram: 64 0 0 0 0 0 0 0 0 0

Total # of neighbors = 0
Ave neighs/atom = 0
Ave special neighs/atom = 15.567568
Neighbor list builds = 20
Dangerous builds = 0
Generated 0 of 1 mixed pair_coeff terms from geometric mixing rule
Setting up Verlet run ...
  Unit style    : real
  Current step  : 150000
  Time step     : 0.05
Per MPI rank memory allocation (min/avg/max) = 13.32 | 13.62 | 14.95 Mbytes
   Step          Temp          E_pair         E_mol          TotEng         Press     
    150000   282.25511      390.1786       18509.645      19303.671      97.618947    
    160000   278.68074      380.63334      18552.53       19331.896     -203.28554    
    170000   294.15969      385.36965      18561.133      19367.383     -80.787868    
    180000   310.88498      383.86655      18535.951      19364.629     -98.486155    
    190000   275.52559      383.43345      18524.229      19301.881     -221.62638    
    200000   282.34644      375.54568      18542.069      19321.593     -392.14753    
Loop time of 17.4247 on 64 procs for 50000 steps with 481 atoms

Performance: 12.396 ns/day, 1.936 hours/ns, 2869.494 timesteps/s, 1.380 Matom-step/s
100.0% CPU use with 64 MPI tasks x 1 OpenMP threads

MPI task timing breakdown:
Section |  min time  |  avg time  |  max time  |%varavg| %total
---------------------------------------------------------------
Pair    | 0.016854   | 0.69321    | 4.5481     | 140.8 |  3.98
Bond    | 0.0058145  | 0.8017     | 3.753      | 144.8 |  4.60
Neigh   | 0.037487   | 0.04331    | 0.049276   |   1.3 |  0.25
Comm    | 7.8545     | 13.132     | 15.775     |  75.6 | 75.36
Output  | 0.009317   | 0.017388   | 0.025241   |   3.8 |  0.10
Modify  | 0.72699    | 2.0435     | 7.8805     | 157.9 | 11.73
Other   |            | 0.694      |            |       |  3.98

Nlocal:        7.51562 ave          34 max           0 min
Histogram: 41 6 1 0 0 2 1 5 5 3
Nghost:        1819.77 ave        2408 max        1294 min
Histogram: 16 0 0 0 32 0 0 0 0 16
Neighs:              0 ave           0 max           0 min
Histogram: 64 0 0 0 0 0 0 0 0 0

Total # of neighbors = 0
Ave neighs/atom = 0
Ave special neighs/atom = 15.567568
Neighbor list builds = 95
Dangerous builds = 0
Generated 0 of 1 mixed pair_coeff terms from geometric mixing rule
Setting up Verlet run ...
  Unit style    : real
  Current step  : 200000
  Time step     : 0.05
Per MPI rank memory allocation (min/avg/max) = 13.32 | 13.62 | 14.95 Mbytes
   Step          Temp          E_pair         E_mol          TotEng         Press     
    200000   282.34644      375.54568      18542.069      19321.593     -392.14753    
    210000   295.63102      397.78052      18517.964      19338.73       253.56588    
Loop time of 3.96645 on 64 procs for 10000 steps with 481 atoms

Performance: 10.891 ns/day, 2.204 hours/ns, 2521.147 timesteps/s, 1.213 Matom-step/s
100.0% CPU use with 64 MPI tasks x 1 OpenMP threads

MPI task timing breakdown:
Section |  min time  |  avg time  |  max time  |%varavg| %total
---------------------------------------------------------------
Pair    | 0.0032673  | 0.15705    | 0.85296    |  66.3 |  3.96
Bond    | 0.0011811  | 0.17672    | 0.87197    |  68.5 |  4.46
Neigh   | 0.0078505  | 0.0090148  | 0.010228   |   0.6 |  0.23
Comm    | 1.8631     | 2.9888     | 3.5795     |  35.5 | 75.35
Output  | 0.0017729  | 0.0036453  | 0.0054917  |   2.0 |  0.09
Modify  | 0.17403    | 0.4679     | 1.8131     |  72.2 | 11.80
Other   |            | 0.1633     |            |       |  4.12

Nlocal:        7.51562 ave          35 max           0 min
Histogram: 43 2 3 0 1 0 2 4 6 3
Nghost:        1826.42 ave        2423 max        1290 min
Histogram: 16 0 0 0 32 0 0 0 0 16
Neighs:              0 ave           0 max           0 min
Histogram: 64 0 0 0 0 0 0 0 0 0

Total # of neighbors = 0
Ave neighs/atom = 0
Ave special neighs/atom = 15.567568
Neighbor list builds = 17
Dangerous builds = 0
Generated 0 of 1 mixed pair_coeff terms from geometric mixing rule
Setting up Verlet run ...
  Unit style    : real
  Current step  : 210000
  Time step     : 0.05
Per MPI rank memory allocation (min/avg/max) = 13.32 | 13.62 | 14.95 Mbytes
   Step          Temp          E_pair         E_mol          TotEng         Press     
    210000   295.63102      397.78052      18517.964      19338.73       253.56588    
    220000   310.76532      391.48123      18540.346      19376.467      221.88227    
    230000   315.68124      389.61649      18555.325      19396.615      29.845283    
    240000   297.12384      398.62917      18548.091      19371.841      318.40151    
    250000   295.11828      379.83549      18556.351      19358.438     -68.806778    
    260000   304.14981      380.79642      18509.602      19325.573     -220.93853    
Loop time of 19.1999 on 64 procs for 50000 steps with 481 atoms

Performance: 11.250 ns/day, 2.133 hours/ns, 2604.180 timesteps/s, 1.253 Matom-step/s
100.0% CPU use with 64 MPI tasks x 1 OpenMP threads

MPI task timing breakdown:
Section |  min time  |  avg time  |  max time  |%varavg| %total
---------------------------------------------------------------
Pair    | 0.016888   | 0.78591    | 4.1222     | 148.6 |  4.09
Bond    | 0.0058253  | 0.87896    | 4.377      | 152.1 |  4.58
Neigh   | 0.054571   | 0.063071   | 0.071718   |   1.6 |  0.33
Comm    | 8.6927     | 14.462     | 17.313     |  78.2 | 75.32
Output  | 0.010014   | 0.01865    | 0.026835   |   3.9 |  0.10
Modify  | 0.82777    | 2.2112     | 8.536      | 154.2 | 11.52
Other   |            | 0.78       |            |       |  4.06

Nlocal:        7.51562 ave          37 max           0 min
Histogram: 41 6 1 0 1 2 3 5 3 2
Nghost:        1814.98 ave        2392 max        1287 min
Histogram: 16 0 0 0 32 0 0 0 0 16
Neighs:              0 ave           0 max           0 min
Histogram: 64 0 0 0 0 0 0 0 0 0

Total # of neighbors = 0
Ave neighs/atom = 0
Ave special neighs/atom = 15.567568
Neighbor list builds = 129
Dangerous builds = 0
Generated 0 of 1 mixed pair_coeff terms from geometric mixing rule
Setting up Verlet run ...
  Unit style    : real
  Current step  : 260000
  Time step     : 0.05
Per MPI rank memory allocation (min/avg/max) = 13.32 | 13.62 | 14.95 Mbytes
   Step          Temp          E_pair         E_mol          TotEng         Press     
    260000   304.14981      380.79642      18509.602      19325.573     -220.93853    
    270000   302.60788      385.28361      18516.563      19334.815      19.849009    
Loop time of 3.60941 on 64 procs for 10000 steps with 481 atoms

Performance: 11.969 ns/day, 2.005 hours/ns, 2770.535 timesteps/s, 1.333 Matom-step/s
100.0% CPU use with 64 MPI tasks x 1 OpenMP threads

MPI task timing breakdown:
Section |  min time  |  avg time  |  max time  |%varavg| %total
---------------------------------------------------------------
Pair    | 0.0032649  | 0.13561    | 0.86601    |  63.0 |  3.76
Bond    | 0.0010868  | 0.15677    | 0.80296    |  64.7 |  4.34
Neigh   | 0.010349   | 0.011944   | 0.014026   |   0.8 |  0.33
Comm    | 1.648      | 2.7619     | 3.2748     |  31.9 | 76.52
Output  | 0.0019752  | 0.0036729  | 0.0053665  |   1.8 |  0.10
Modify  | 0.14561    | 0.40287    | 1.5284     |  67.0 | 11.16
Other   |            | 0.1367     |            |       |  3.79

Nlocal:        7.51562 ave          33 max           0 min
Histogram: 42 4 2 0 0 1 2 3 5 5
Nghost:        1825.67 ave        2422 max        1291 min
Histogram: 16 0 0 0 32 0 0 0 0 16
Neighs:              0 ave           0 max           0 min
Histogram: 64 0 0 0 0 0 0 0 0 0

Total # of neighbors = 0
Ave neighs/atom = 0
Ave special neighs/atom = 15.567568
Neighbor list builds = 26
Dangerous builds = 0
Generated 0 of 1 mixed pair_coeff terms from geometric mixing rule
Setting up Verlet run ...
  Unit style    : real
  Current step  : 270000
  Time step     : 0.05
Per MPI rank memory allocation (min/avg/max) = 13.32 | 13.62 | 14.95 Mbytes
   Step          Temp          E_pair         E_mol          TotEng         Press     
    270000   302.60788      385.28361      18516.563      19334.815      19.849009    
    280000   311.55101      384.49254      18560.214      19390.47      -211.18071    
    290000   314.9747       385.15503      18537.682      19373.499      8.9259723    
    300000   290.92745      387.03241      18547.984      19351.272     -257.4548     
    310000   293.67798      397.67597      18513.817      19331.684      239.40259    
    320000   283.32348      389.63425      18492.642      19287.653      73.815472    
Loop time of 19.6159 on 64 procs for 50000 steps with 481 atoms

Performance: 11.011 ns/day, 2.180 hours/ns, 2548.956 timesteps/s, 1.226 Matom-step/s
100.0% CPU use with 64 MPI tasks x 1 OpenMP threads

MPI task timing breakdown:
Section |  min time  |  avg time  |  max time  |%varavg| %total
---------------------------------------------------------------
Pair    | 0.017052   | 0.72229    | 5.7591     | 153.8 |  3.68
Bond    | 0.0056635  | 0.82326    | 4.8896     | 151.9 |  4.20
Neigh   | 0.042636   | 0.048709   | 0.055111   |   1.3 |  0.25
Comm    | 7.3859     | 14.945     | 17.912     |  85.1 | 76.19
Output  | 0.0093697  | 0.017369   | 0.025041   |   3.8 |  0.09
Modify  | 0.82278    | 2.3522     | 9.5714     | 188.4 | 11.99
Other   |            | 0.7065     |            |       |  3.60

Nlocal:        7.51562 ave          34 max           0 min
Histogram: 41 6 1 0 0 0 4 4 2 6
Nghost:        1823.42 ave        2416 max        1290 min
Histogram: 16 0 0 0 32 0 0 0 0 16
Neighs:              0 ave           0 max           0 min
Histogram: 64 0 0 0 0 0 0 0 0 0

Total # of neighbors = 0
Ave neighs/atom = 0
Ave special neighs/atom = 15.567568
Neighbor list builds = 93
Dangerous builds = 0
Generated 0 of 1 mixed pair_coeff terms from geometric mixing rule
Setting up Verlet run ...
  Unit style    : real
  Current step  : 320000
  Time step     : 0.05
Per MPI rank memory allocation (min/avg/max) = 13.32 | 13.62 | 14.95 Mbytes
   Step          Temp          E_pair         E_mol          TotEng         Press     
    320000   283.32348      389.63425      18492.642      19287.653      73.815472    
    330000   285.1685       389.23724      18546.798      19344.051     -101.37863    
Loop time of 4.06622 on 64 procs for 10000 steps with 481 atoms

Performance: 10.624 ns/day, 2.259 hours/ns, 2459.284 timesteps/s, 1.183 Matom-step/s
100.0% CPU use with 64 MPI tasks x 1 OpenMP threads

MPI task timing breakdown:
Section |  min time  |  avg time  |  max time  |%varavg| %total
---------------------------------------------------------------
Pair    | 0.0035297  | 0.15898    | 1.1643     |  69.9 |  3.91
Bond    | 0.0011437  | 0.18116    | 0.95815    |  71.4 |  4.46
Neigh   | 0.010659   | 0.01247    | 0.01391    |   0.7 |  0.31
Comm    | 1.5547     | 3.0693     | 3.7001     |  37.6 | 75.48
Output  | 0.0018208  | 0.0036489  | 0.0054556  |   1.9 |  0.09
Modify  | 0.16711    | 0.47716    | 1.9082     |  76.9 | 11.73
Other   |            | 0.1635     |            |       |  4.02

Nlocal:        7.51562 ave          36 max           0 min
Histogram: 42 6 0 0 0 5 2 2 1 6
Nghost:        1819.11 ave        2408 max        1288 min
Histogram: 16 0 0 0 32 0 0 0 0 16
Neighs:              0 ave           0 max           0 min
Histogram: 64 0 0 0 0 0 0 0 0 0

Total # of neighbors = 0
Ave neighs/atom = 0
Ave special neighs/atom = 15.567568
Neighbor list builds = 23
Dangerous builds = 0
Generated 0 of 1 mixed pair_coeff terms from geometric mixing rule
Setting up Verlet run ...
  Unit style    : real
  Current step  : 330000
  Time step     : 0.05
Per MPI rank memory allocation (min/avg/max) = 13.32 | 13.62 | 14.95 Mbytes
   Step          Temp          E_pair         E_mol          TotEng         Press     
    330000   285.1685       389.23724      18546.798      19344.051     -101.37863    
    340000   294.4525       391.03804      18538.431      19350.768     -35.772218    
    350000   307.23346      385.8329       18514.652      19340.071     -20.292231    
    360000   293.95627      379.92277      18538.171      19338.683     -230.56546    
    370000   289.14703      388.81176      18536.732      19339.252     -106.67997    
    380000   306.80274      393.72705      18540.074      19372.771      52.809132    
Loop time of 20.0905 on 64 procs for 50000 steps with 481 atoms

Performance: 10.751 ns/day, 2.232 hours/ns, 2488.743 timesteps/s, 1.197 Matom-step/s
100.0% CPU use with 64 MPI tasks x 1 OpenMP threads

MPI task timing breakdown:
Section |  min time  |  avg time  |  max time  |%varavg| %total
---------------------------------------------------------------
Pair    | 0.017732   | 0.75773    | 5.3529     | 155.3 |  3.77
Bond    | 0.0058032  | 0.86277    | 4.7321     | 155.8 |  4.29
Neigh   | 0.053797   | 0.062345   | 0.068666   |   1.5 |  0.31
Comm    | 8.4434     | 15.323     | 18.148     |  81.9 | 76.27
Output  | 0.010009   | 0.018414   | 0.02649    |   3.8 |  0.09
Modify  | 0.93892    | 2.2575     | 9.2743     | 172.3 | 11.24
Other   |            | 0.8084     |            |       |  4.02

Nlocal:        7.51562 ave          38 max           0 min
Histogram: 42 6 0 0 2 2 3 4 1 4
Nghost:         1820.8 ave        2408 max        1288 min
Histogram: 16 0 0 0 32 0 0 0 0 16
Neighs:              0 ave           0 max           0 min
Histogram: 64 0 0 0 0 0 0 0 0 0

Total # of neighbors = 0
Ave neighs/atom = 0
Ave special neighs/atom = 15.567568
Neighbor list builds = 120
Dangerous builds = 0
Generated 0 of 1 mixed pair_coeff terms from geometric mixing rule
Setting up Verlet run ...
  Unit style    : real
  Current step  : 380000
  Time step     : 0.05
Per MPI rank memory allocation (min/avg/max) = 13.32 | 13.62 | 14.95 Mbytes
   Step          Temp          E_pair         E_mol          TotEng         Press     
    380000   306.80274      393.72705      18540.074      19372.771      52.809132    
    390000   317.99005      394.66375      18535.155      19384.795      130.77617    
Loop time of 3.76097 on 64 procs for 10000 steps with 481 atoms

Performance: 11.486 ns/day, 2.089 hours/ns, 2658.887 timesteps/s, 1.279 Matom-step/s
100.0% CPU use with 64 MPI tasks x 1 OpenMP threads

MPI task timing breakdown:
Section |  min time  |  avg time  |  max time  |%varavg| %total
---------------------------------------------------------------
Pair    | 0.0032078  | 0.13574    | 1.0882     |  68.8 |  3.61
Bond    | 0.0011349  | 0.15405    | 0.91592    |  66.7 |  4.10
Neigh   | 0.010458   | 0.012119   | 0.013322   |   0.6 |  0.32
Comm    | 1.4173     | 2.8736     | 3.4203     |  36.4 | 76.41
Output  | 0.0016741  | 0.0032755  | 0.0048979  |   1.8 |  0.09
Modify  | 0.14739    | 0.43486    | 1.8193     |  78.5 | 11.56
Other   |            | 0.1473     |            |       |  3.92

Nlocal:        7.51562 ave          37 max           0 min
Histogram: 44 3 1 0 2 3 1 3 2 5
Nghost:         1823.5 ave        2423 max        1288 min
Histogram: 16 0 0 0 32 0 0 0 0 16
Neighs:              0 ave           0 max           0 min
Histogram: 64 0 0 0 0 0 0 0 0 0

Total # of neighbors = 0
Ave neighs/atom = 0
Ave special neighs/atom = 15.567568
Neighbor list builds = 24
Dangerous builds = 0
Generated 0 of 1 mixed pair_coeff terms from geometric mixing rule
Setting up Verlet run ...
  Unit style    : real
  Current step  : 390000
  Time step     : 0.05
Per MPI rank memory allocation (min/avg/max) = 13.32 | 13.62 | 14.95 Mbytes
   Step          Temp          E_pair         E_mol          TotEng         Press     
    390000   317.99005      394.66375      18535.155      19384.795      130.77617    
    400000   301.34644      380.59413      18536.45       19348.207     -233.77906    
    410000   291.59417      383.78889      18541.562      19342.561     -112.25611    
    420000   314.29692      397.29396      18523.673      19370.659      163.66328    
    430000   303.19156      382.61091      18556.367      19372.781     -214.25927    
    440000   297.20895      393.43113      18538.624      19357.299      75.261708    
Loop time of 19.0702 on 64 procs for 50000 steps with 481 atoms

Performance: 11.327 ns/day, 2.119 hours/ns, 2621.893 timesteps/s, 1.261 Matom-step/s
100.0% CPU use with 64 MPI tasks x 1 OpenMP threads

MPI task timing breakdown:
Section |  min time  |  avg time  |  max time  |%varavg| %total
---------------------------------------------------------------
Pair    | 0.016708   | 0.71805    | 5.362      | 150.0 |  3.77
Bond    | 0.0058984  | 0.82694    | 4.5782     | 151.4 |  4.34
Neigh   | 0.042993   | 0.049572   | 0.054112   |   1.3 |  0.26
Comm    | 7.5611     | 14.602     | 17.294     |  78.8 | 76.57
Output  | 0.0098174  | 0.018077   | 0.025993   |   3.8 |  0.09
Modify  | 0.82024    | 2.0856     | 8.6145     | 167.3 | 10.94
Other   |            | 0.7701     |            |       |  4.04

Nlocal:        7.51562 ave          34 max           0 min
Histogram: 42 4 2 0 0 1 2 6 2 5
Nghost:        1823.61 ave        2417 max        1291 min
Histogram: 16 0 0 0 32 0 0 0 0 16
Neighs:              0 ave           0 max           0 min
Histogram: 64 0 0 0 0 0 0 0 0 0

Total # of neighbors = 0
Ave neighs/atom = 0
Ave special neighs/atom = 15.567568
Neighbor list builds = 101
Dangerous builds = 0
Generated 0 of 1 mixed pair_coeff terms from geometric mixing rule
Setting up Verlet run ...
  Unit style    : real
  Current step  : 440000
  Time step     : 0.05
Per MPI rank memory allocation (min/avg/max) = 13.32 | 13.62 | 14.95 Mbytes
   Step          Temp          E_pair         E_mol          TotEng         Press     
    440000   297.20895      393.43113      18538.624      19357.299      75.261708    
    450000   292.23551      381.91249      18532.427      19332.467     -127.16399    
Loop time of 3.82806 on 64 procs for 10000 steps with 481 atoms

Performance: 11.285 ns/day, 2.127 hours/ns, 2612.288 timesteps/s, 1.257 Matom-step/s
100.0% CPU use with 64 MPI tasks x 1 OpenMP threads

MPI task timing breakdown:
Section |  min time  |  avg time  |  max time  |%varavg| %total
---------------------------------------------------------------
Pair    | 0.0034282  | 0.14679    | 1.0587     |  66.3 |  3.83
Bond    | 0.0011563  | 0.17047    | 0.88859    |  68.3 |  4.45
Neigh   | 0.008061   | 0.0093002  | 0.010282   |   0.6 |  0.24
Comm    | 1.5224     | 2.9071     | 3.4647     |  34.3 | 75.94
Output  | 0.0017332  | 0.0035523  | 0.005376   |   1.9 |  0.09
Modify  | 0.16196    | 0.4269     | 1.6549     |  70.2 | 11.15
Other   |            | 0.164      |            |       |  4.28

Nlocal:        7.51562 ave          36 max           0 min
Histogram: 42 6 0 0 1 2 2 4 3 4
Nghost:        1822.11 ave        2410 max        1291 min
Histogram: 16 0 0 0 32 0 0 0 0 16
Neighs:              0 ave           0 max           0 min
Histogram: 64 0 0 0 0 0 0 0 0 0

Total # of neighbors = 0
Ave neighs/atom = 0
Ave special neighs/atom = 15.567568
Neighbor list builds = 19
Dangerous builds = 0
Generated 0 of 1 mixed pair_coeff terms from geometric mixing rule
Setting up Verlet run ...
  Unit style    : real
  Current step  : 450000
  Time step     : 0.05
Per MPI rank memory allocation (min/avg/max) = 13.32 | 13.62 | 14.95 Mbytes
   Step          Temp          E_pair         E_mol          TotEng         Press     
    450000   292.23551      381.91249      18532.427      19332.467     -127.16399    
    460000   280.97844      387.71942      18515.947      19305.688      19.565023    
    470000   293.88424      389.74853      18535.444      19345.679     -132.9652     
    480000   302.22839      384.61787      18539.395      19356.438     -195.75392    
    490000   286.60776      392.69783      18522.253      19325.026      36.363809    
    500000   276.27957      384.63965      18530.061      19309.998     -36.191306    
Loop time of 18.6429 on 64 procs for 50000 steps with 481 atoms

Performance: 11.586 ns/day, 2.071 hours/ns, 2681.991 timesteps/s, 1.290 Matom-step/s
100.0% CPU use with 64 MPI tasks x 1 OpenMP threads

MPI task timing breakdown:
Section |  min time  |  avg time  |  max time  |%varavg| %total
---------------------------------------------------------------
Pair    | 0.016764   | 0.74956    | 5.1312     | 156.1 |  4.02
Bond    | 0.0057573  | 0.83923    | 4.3671     | 152.0 |  4.50
Neigh   | 0.042497   | 0.048554   | 0.053458   |   1.2 |  0.26
Comm    | 7.4815     | 14.177     | 16.945     |  81.3 | 76.05
Output  | 0.009715   | 0.017859   | 0.025757   |   3.8 |  0.10
Modify  | 0.77897    | 2.0655     | 8.5377     | 167.3 | 11.08
Other   |            | 0.7449     |            |       |  4.00

Nlocal:        7.51562 ave          37 max           0 min
Histogram: 41 6 1 0 1 0 1 12 1 1
Nghost:        1823.52 ave        2414 max        1293 min
Histogram: 16 0 0 0 32 0 0 0 0 16
Neighs:              0 ave           0 max           0 min
Histogram: 64 0 0 0 0 0 0 0 0 0

Total # of neighbors = 0
Ave neighs/atom = 0
Ave special neighs/atom = 15.567568
Neighbor list builds = 98
Dangerous builds = 0
Generated 0 of 1 mixed pair_coeff terms from geometric mixing rule
Setting up Verlet run ...
  Unit style    : real
  Current step  : 500000
  Time step     : 0.05
Per MPI rank memory allocation (min/avg/max) = 13.32 | 13.62 | 14.95 Mbytes
   Step          Temp          E_pair         E_mol          TotEng         Press     
    500000   276.27957      384.63965      18530.061      19309.998     -36.191306    
    510000   301.52613      383.4885       18508.522      19323.431      1.9602316    
Loop time of 3.69698 on 64 procs for 10000 steps with 481 atoms

Performance: 11.685 ns/day, 2.054 hours/ns, 2704.913 timesteps/s, 1.301 Matom-step/s
100.0% CPU use with 64 MPI tasks x 1 OpenMP threads

MPI task timing breakdown:
Section |  min time  |  avg time  |  max time  |%varavg| %total
---------------------------------------------------------------
Pair    | 0.0032819  | 0.14351    | 1.0904     |  71.4 |  3.88
Bond    | 0.0010649  | 0.16122    | 0.91138    |  68.0 |  4.36
Neigh   | 0.0049979  | 0.0056451  | 0.0060998  |   0.4 |  0.15
Comm    | 1.388      | 2.8097     | 3.4091     |  39.4 | 76.00
Output  | 0.0015296  | 0.0030734  | 0.0046354  |   1.7 |  0.08
Modify  | 0.1314     | 0.44247    | 1.913      |  85.0 | 11.97
Other   |            | 0.1314     |            |       |  3.55

Nlocal:        7.51562 ave          40 max           0 min
Histogram: 41 6 1 1 0 1 7 4 2 1
Nghost:        1823.42 ave        2420 max        1290 min
Histogram: 16 0 0 0 32 0 0 0 0 16
Neighs:              0 ave           0 max           0 min
Histogram: 64 0 0 0 0 0 0 0 0 0

Total # of neighbors = 0
Ave neighs/atom = 0
Ave special neighs/atom = 15.567568
Neighbor list builds = 11
Dangerous builds = 0
Generated 0 of 1 mixed pair_coeff terms from geometric mixing rule
Setting up Verlet run ...
  Unit style    : real
  Current step  : 510000
  Time step     : 0.05
Per MPI rank memory allocation (min/avg/max) = 13.32 | 13.62 | 14.95 Mbytes
   Step          Temp          E_pair         E_mol          TotEng         Press     
    510000   301.52613      383.4885       18508.522      19323.431      1.9602316    
    520000   304.98397      382.67483      18515.25       19334.292     -176.58755    
    530000   320.54531      386.80321      18529.321      19374.757      24.412134    
    540000   290.59461      382.48747      18526.611      19324.878     -207.38587    
    550000   295.87464      380.94826      18522.941      19327.223     -195.36251    
    560000   301.87334      394.58399      18528.525      19355.026      108.13437    
Loop time of 20.2736 on 64 procs for 50000 steps with 481 atoms

Performance: 10.654 ns/day, 2.253 hours/ns, 2466.267 timesteps/s, 1.186 Matom-step/s
100.0% CPU use with 64 MPI tasks x 1 OpenMP threads

MPI task timing breakdown:
Section |  min time  |  avg time  |  max time  |%varavg| %total
---------------------------------------------------------------
Pair    | 0.018234   | 0.81693    | 5.8925     | 163.1 |  4.03
Bond    | 0.005486   | 0.89544    | 4.7909     | 157.6 |  4.42
Neigh   | 0.024457   | 0.027951   | 0.031186   |   1.0 |  0.14
Comm    | 7.9026     | 15.52      | 18.588     |  85.0 | 76.55
Output  | 0.010446   | 0.018764   | 0.026848   |   3.8 |  0.09
Modify  | 0.76923    | 2.2492     | 9.2365     | 177.5 | 11.09
Other   |            | 0.7457     |            |       |  3.68

Nlocal:        7.51562 ave          38 max           0 min
Histogram: 41 7 0 0 0 5 3 3 3 2
Nghost:        1817.89 ave        2404 max        1286 min
Histogram: 16 0 0 0 32 0 0 0 0 16
Neighs:              0 ave           0 max           0 min
Histogram: 64 0 0 0 0 0 0 0 0 0

Total # of neighbors = 0
Ave neighs/atom = 0
Ave special neighs/atom = 15.567568
Neighbor list builds = 53
Dangerous builds = 0
Generated 0 of 1 mixed pair_coeff terms from geometric mixing rule
Setting up Verlet run ...
  Unit style    : real
  Current step  : 560000
  Time step     : 0.05
Per MPI rank memory allocation (min/avg/max) = 13.32 | 13.62 | 14.95 Mbytes
   Step          Temp          E_pair         E_mol          TotEng         Press     
    560000   301.87334      394.58399      18528.525      19355.026      108.13437    
    570000   310.22476      387.70141      18538.616      19370.183     -206.74125    
Loop time of 4.04487 on 64 procs for 10000 steps with 481 atoms

Performance: 10.680 ns/day, 2.247 hours/ns, 2472.265 timesteps/s, 1.189 Matom-step/s
100.0% CPU use with 64 MPI tasks x 1 OpenMP threads

MPI task timing breakdown:
Section |  min time  |  avg time  |  max time  |%varavg| %total
---------------------------------------------------------------
Pair    | 0.0034974  | 0.16537    | 1.1902     |  73.2 |  4.09
Bond    | 0.0011082  | 0.18298    | 0.95398    |  71.5 |  4.52
Neigh   | 0.0041298  | 0.0046399  | 0.0052366  |   0.4 |  0.11
Comm    | 1.5862     | 3.1007     | 3.7216     |  38.6 | 76.66
Output  | 0.0017142  | 0.0034845  | 0.0052474  |   1.9 |  0.09
Modify  | 0.15101    | 0.44512    | 1.8819     |  81.3 | 11.00
Other   |            | 0.1426     |            |       |  3.52

Nlocal:        7.51562 ave          36 max           0 min
Histogram: 41 6 1 0 0 2 6 2 3 3
Nghost:        1823.05 ave        2419 max        1289 min
Histogram: 16 0 0 0 32 0 0 0 0 16
Neighs:              0 ave           0 max           0 min
Histogram: 64 0 0 0 0 0 0 0 0 0

Total # of neighbors = 0
Ave neighs/atom = 0
Ave special neighs/atom = 15.567568
Neighbor list builds = 9
Dangerous builds = 0
Generated 0 of 1 mixed pair_coeff terms from geometric mixing rule
Setting up Verlet run ...
  Unit style    : real
  Current step  : 570000
  Time step     : 0.05
Per MPI rank memory allocation (min/avg/max) = 13.32 | 13.62 | 14.95 Mbytes
   Step          Temp          E_pair         E_mol          TotEng         Press     
    570000   310.22476      387.70141      18538.616      19370.183     -206.74125    
    580000   307.87921      375.48737      18534.226      19350.223     -288.59797    
    590000   295.84835      395.03332      18527.8        19346.13       77.182358    
    600000   309.16909      387.12176      18539.874      19369.352     -222.13849    
    610000   311.2515       391.17495      18523.153      19359.663      227.95178    
    620000   307.12336      386.20177      18514.444      19340.075      51.509457    
Loop time of 18.8506 on 64 procs for 50000 steps with 481 atoms

Performance: 11.459 ns/day, 2.095 hours/ns, 2652.432 timesteps/s, 1.276 Matom-step/s
100.0% CPU use with 64 MPI tasks x 1 OpenMP threads

MPI task timing breakdown:
Section |  min time  |  avg time  |  max time  |%varavg| %total
---------------------------------------------------------------
Pair    | 0.017851   | 0.7572     | 5.4591     | 157.3 |  4.02
Bond    | 0.0057225  | 0.85809    | 4.3962     | 154.9 |  4.55
Neigh   | 0.030937   | 0.034997   | 0.03865    |   1.1 |  0.19
Comm    | 7.357      | 14.284     | 17.256     |  84.2 | 75.77
Output  | 0.0097571  | 0.017749   | 0.025511   |   3.7 |  0.09
Modify  | 0.72306    | 2.1996     | 8.9591     | 174.3 | 11.67
Other   |            | 0.6995     |            |       |  3.71

Nlocal:        7.51562 ave          34 max           0 min
Histogram: 40 8 0 0 0 2 1 6 1 6
Nghost:        1820.52 ave        2415 max        1291 min
Histogram: 16 0 0 0 32 0 0 0 0 16
Neighs:              0 ave           0 max           0 min
Histogram: 64 0 0 0 0 0 0 0 0 0

Total # of neighbors = 0
Ave neighs/atom = 0
Ave special neighs/atom = 15.567568
Neighbor list builds = 69
Dangerous builds = 0
Generated 0 of 1 mixed pair_coeff terms from geometric mixing rule
Setting up Verlet run ...
  Unit style    : real
  Current step  : 620000
  Time step     : 0.05
Per MPI rank memory allocation (min/avg/max) = 13.32 | 13.62 | 14.95 Mbytes
   Step          Temp          E_pair         E_mol          TotEng         Press     
    620000   307.12336      386.20177      18514.444      19340.075      51.509457    
    630000   300.62278      387.75681      18518.261      19336.145      7.1132833    
Loop time of 3.8859 on 64 procs for 10000 steps with 481 atoms

Performance: 11.117 ns/day, 2.159 hours/ns, 2573.407 timesteps/s, 1.238 Matom-step/s
100.0% CPU use with 64 MPI tasks x 1 OpenMP threads

MPI task timing breakdown:
Section |  min time  |  avg time  |  max time  |%varavg| %total
---------------------------------------------------------------
Pair    | 0.0036693  | 0.15985    | 1.1004     |  71.4 |  4.11
Bond    | 0.001137   | 0.18057    | 0.92455    |  71.4 |  4.65
Neigh   | 0.0074834  | 0.0086589  | 0.0096803  |   0.6 |  0.22
Comm    | 1.5824     | 2.944      | 3.5481     |  37.8 | 75.76
Output  | 0.0017551  | 0.0035264  | 0.0053051  |   1.9 |  0.09
Modify  | 0.15372    | 0.44079    | 1.778      |  76.9 | 11.34
Other   |            | 0.1485     |            |       |  3.82

Nlocal:        7.51562 ave          36 max           0 min
Histogram: 42 6 0 0 0 3 3 3 4 3
Nghost:        1820.98 ave        2411 max        1288 min
Histogram: 16 0 0 0 32 0 0 0 0 16
Neighs:              0 ave           0 max           0 min
Histogram: 64 0 0 0 0 0 0 0 0 0

Total # of neighbors = 0
Ave neighs/atom = 0
Ave special neighs/atom = 15.567568
Neighbor list builds = 17
Dangerous builds = 0
Generated 0 of 1 mixed pair_coeff terms from geometric mixing rule
Setting up Verlet run ...
  Unit style    : real
  Current step  : 630000
  Time step     : 0.05
Per MPI rank memory allocation (min/avg/max) = 13.32 | 13.62 | 14.95 Mbytes
   Step          Temp          E_pair         E_mol          TotEng         Press     
    630000   300.62278      387.75681      18518.261      19336.145      7.1132833    
    640000   308.42096      377.99956      18520.819      19340.104     -280.20569    
    650000   320.28383      388.43221      18505.839      19352.53       20.749801    
    660000   318.43676      388.02984      18515.325      19358.971      101.8171     
    670000   287.86145      382.52798      18558.831      19353.228     -180.16128    
    680000   303.09287      386.03477      18525.588      19345.284      13.896875    
Loop time of 19.9767 on 64 procs for 50000 steps with 481 atoms

Performance: 10.813 ns/day, 2.220 hours/ns, 2502.910 timesteps/s, 1.204 Matom-step/s
100.0% CPU use with 64 MPI tasks x 1 OpenMP threads

MPI task timing breakdown:
Section |  min time  |  avg time  |  max time  |%varavg| %total
---------------------------------------------------------------
Pair    | 0.018159   | 0.80445    | 5.6791     | 158.5 |  4.03
Bond    | 0.0058754  | 0.91499    | 4.6851     | 160.9 |  4.58
Neigh   | 0.032887   | 0.038117   | 0.042753   |   1.3 |  0.19
Comm    | 8.0144     | 15.131     | 18.198     |  85.5 | 75.75
Output  | 0.010092   | 0.018459   | 0.026493   |   3.8 |  0.09
Modify  | 0.82666    | 2.3145     | 9.3102     | 176.6 | 11.59
Other   |            | 0.7548     |            |       |  3.78

Nlocal:        7.51562 ave          36 max           0 min
Histogram: 43 4 1 0 0 2 3 5 3 3
Nghost:        1824.17 ave        2417 max        1288 min
Histogram: 16 0 0 0 32 0 0 0 0 16
Neighs:              0 ave           0 max           0 min
Histogram: 64 0 0 0 0 0 0 0 0 0

Total # of neighbors = 0
Ave neighs/atom = 0
Ave special neighs/atom = 15.567568
Neighbor list builds = 73
Dangerous builds = 0
Generated 0 of 1 mixed pair_coeff terms from geometric mixing rule
Setting up Verlet run ...
  Unit style    : real
  Current step  : 680000
  Time step     : 0.05
Per MPI rank memory allocation (min/avg/max) = 13.32 | 13.62 | 14.95 Mbytes
   Step          Temp          E_pair         E_mol          TotEng         Press     
    680000   303.09287      386.03477      18525.588      19345.284      13.896875    
    690000   285.35735      380.4408       18520.634      19309.361     -247.22782    
Loop time of 3.875 on 64 procs for 10000 steps with 481 atoms

Performance: 11.148 ns/day, 2.153 hours/ns, 2580.642 timesteps/s, 1.241 Matom-step/s
100.0% CPU use with 64 MPI tasks x 1 OpenMP threads

MPI task timing breakdown:
Section |  min time  |  avg time  |  max time  |%varavg| %total
---------------------------------------------------------------
Pair    | 0.003416   | 0.15252    | 1.1332     |  69.8 |  3.94
Bond    | 0.0011087  | 0.1755     | 0.93258    |  71.0 |  4.53
Neigh   | 0.0067349  | 0.0076692  | 0.0085018  |   0.5 |  0.20
Comm    | 1.5205     | 2.9662     | 3.5648     |  37.7 | 76.55
Output  | 0.001674   | 0.0034701  | 0.005223   |   1.9 |  0.09
Modify  | 0.14615    | 0.43453    | 1.8261     |  80.8 | 11.21
Other   |            | 0.1351     |            |       |  3.49

Nlocal:        7.51562 ave          39 max           0 min
Histogram: 41 7 0 0 1 4 3 4 3 1
Nghost:        1820.33 ave        2408 max        1285 min
Histogram: 16 0 0 0 32 0 0 0 0 16
Neighs:              0 ave           0 max           0 min
Histogram: 64 0 0 0 0 0 0 0 0 0

Total # of neighbors = 0
Ave neighs/atom = 0
Ave special neighs/atom = 15.567568
Neighbor list builds = 15
Dangerous builds = 0
Generated 0 of 1 mixed pair_coeff terms from geometric mixing rule
Setting up Verlet run ...
  Unit style    : real
  Current step  : 690000
  Time step     : 0.05
Per MPI rank memory allocation (min/avg/max) = 13.32 | 13.62 | 14.95 Mbytes
   Step          Temp          E_pair         E_mol          TotEng         Press     
    690000   285.35735      380.4408       18520.634      19309.361     -247.22782    
    700000   299.02999      389.74216      18543.962      19361.553     -46.344227    
    710000   304.47245      388.29409      18539.066      19362.996     -73.133636    
    720000   303.74324      383.58073      18509.877      19328.05      -64.928124    
    730000   288.35556      380.77796      18525.582      19318.936     -348.48374    
    740000   287.57289      389.01953      18526.764      19327.239     -65.728612    
Loop time of 17.3617 on 64 procs for 50000 steps with 481 atoms

Performance: 12.441 ns/day, 1.929 hours/ns, 2879.908 timesteps/s, 1.385 Matom-step/s
100.0% CPU use with 64 MPI tasks x 1 OpenMP threads

MPI task timing breakdown:
Section |  min time  |  avg time  |  max time  |%varavg| %total
---------------------------------------------------------------
Pair    | 0.017303   | 0.71424    | 4.4478     | 145.0 |  4.11
Bond    | 0.0057121  | 0.83224    | 4.126      | 151.0 |  4.79
Neigh   | 0.031883   | 0.036258   | 0.040618   |   1.1 |  0.21
Comm    | 7.2242     | 13.146     | 15.756     |  76.2 | 75.72
Output  | 0.0095242  | 0.017353   | 0.024995   |   3.7 |  0.10
Modify  | 0.77707    | 1.9544     | 7.686      | 149.4 | 11.26
Other   |            | 0.6612     |            |       |  3.81

Nlocal:        7.51562 ave          32 max           0 min
Histogram: 42 4 2 0 0 0 2 5 2 7
Nghost:        1816.11 ave        2405 max        1293 min
Histogram: 16 0 0 0 32 0 0 0 0 16
Neighs:              0 ave           0 max           0 min
Histogram: 64 0 0 0 0 0 0 0 0 0

Total # of neighbors = 0
Ave neighs/atom = 0
Ave special neighs/atom = 15.567568
Neighbor list builds = 78
Dangerous builds = 0
Generated 0 of 1 mixed pair_coeff terms from geometric mixing rule
Setting up Verlet run ...
  Unit style    : real
  Current step  : 740000
  Time step     : 0.05
Per MPI rank memory allocation (min/avg/max) = 13.32 | 13.62 | 14.95 Mbytes
   Step          Temp          E_pair         E_mol          TotEng         Press     
    740000   287.57289      389.01953      18526.764      19327.239     -65.728612    
    750000   303.15498      392.70019      18529.396      19355.847      174.55498    
Loop time of 3.71757 on 64 procs for 10000 steps with 481 atoms

Performance: 11.621 ns/day, 2.065 hours/ns, 2689.932 timesteps/s, 1.294 Matom-step/s
100.0% CPU use with 64 MPI tasks x 1 OpenMP threads

MPI task timing breakdown:
Section |  min time  |  avg time  |  max time  |%varavg| %total
---------------------------------------------------------------
Pair    | 0.003502   | 0.15716    | 1.0024     |  68.4 |  4.23
Bond    | 0.0011454  | 0.17995    | 0.89354    |  70.8 |  4.84
Neigh   | 0.011317   | 0.012809   | 0.014358   |   0.7 |  0.34
Comm    | 1.4882     | 2.8161     | 3.3713     |  36.1 | 75.75
Output  | 0.0016639  | 0.0034452  | 0.00525    |   1.9 |  0.09
Modify  | 0.17018    | 0.41167    | 1.6362     |  70.2 | 11.07
Other   |            | 0.1365     |            |       |  3.67

Nlocal:        7.51562 ave          36 max           0 min
Histogram: 41 7 0 0 0 1 5 2 5 3
Nghost:        1822.11 ave        2412 max        1288 min
Histogram: 16 0 0 0 32 0 0 0 0 16
Neighs:              0 ave           0 max           0 min
Histogram: 64 0 0 0 0 0 0 0 0 0

Total # of neighbors = 0
Ave neighs/atom = 0
Ave special neighs/atom = 15.567568
Neighbor list builds = 26
Dangerous builds = 0
Generated 0 of 1 mixed pair_coeff terms from geometric mixing rule
Setting up Verlet run ...
  Unit style    : real
  Current step  : 750000
  Time step     : 0.05
Per MPI rank memory allocation (min/avg/max) = 13.32 | 13.62 | 14.95 Mbytes
   Step          Temp          E_pair         E_mol          TotEng         Press     
    750000   303.15498      392.70019      18529.396      19355.847      174.55498    
    760000   305.20252      386.8311       18548.041      19371.552     -186.79035    
    770000   306.70189      398.54736      18524.769      19362.142      141.74537    
    780000   298.88643      389.47582      18541.641      19358.76       151.80933    
    790000   292.2798       391.64678      18546.96       19356.797     -43.927323    
    800000   285.6822       391.13933      18540.783      19340.673     -27.114123    
Loop time of 18.2665 on 64 procs for 50000 steps with 481 atoms

Performance: 11.825 ns/day, 2.030 hours/ns, 2737.251 timesteps/s, 1.317 Matom-step/s
100.0% CPU use with 64 MPI tasks x 1 OpenMP threads

MPI task timing breakdown:
Section |  min time  |  avg time  |  max time  |%varavg| %total
---------------------------------------------------------------
Pair    | 0.017692   | 0.76119    | 4.8944     | 149.4 |  4.17
Bond    | 0.0059122  | 0.8827     | 4.5768     | 156.4 |  4.83
Neigh   | 0.041679   | 0.047833   | 0.05347    |   1.3 |  0.26
Comm    | 7.2947     | 13.84      | 16.487     |  78.5 | 75.77
Output  | 0.0094405  | 0.017675   | 0.025794   |   3.9 |  0.10
Modify  | 0.85804    | 2.0269     | 7.9537     | 152.0 | 11.10
Other   |            | 0.6903     |            |       |  3.78

Nlocal:        7.51562 ave          33 max           0 min
Histogram: 44 0 4 0 0 0 5 1 3 7
Nghost:         1816.2 ave        2406 max        1291 min
Histogram: 16 0 0 0 32 0 0 0 0 16
Neighs:              0 ave           0 max           0 min
Histogram: 64 0 0 0 0 0 0 0 0 0

Total # of neighbors = 0
Ave neighs/atom = 0
Ave special neighs/atom = 15.567568
Neighbor list builds = 102
Dangerous builds = 0
Generated 0 of 1 mixed pair_coeff terms from geometric mixing rule
Setting up Verlet run ...
  Unit style    : real
  Current step  : 800000
  Time step     : 0.05
Per MPI rank memory allocation (min/avg/max) = 13.32 | 13.62 | 14.95 Mbytes
   Step          Temp          E_pair         E_mol          TotEng         Press     
    800000   285.6822       391.13933      18540.783      19340.673     -27.114123    
    810000   310.82184      397.15135      18521.973      19363.844      62.947222    
Loop time of 3.6044 on 64 procs for 10000 steps with 481 atoms

Performance: 11.985 ns/day, 2.002 hours/ns, 2774.385 timesteps/s, 1.334 Matom-step/s
100.0% CPU use with 64 MPI tasks x 1 OpenMP threads

MPI task timing breakdown:
Section |  min time  |  avg time  |  max time  |%varavg| %total
---------------------------------------------------------------
Pair    | 0.003357   | 0.13976    | 0.96566    |  64.4 |  3.88
Bond    | 0.0011446  | 0.1636     | 0.9671     |  67.6 |  4.54
Neigh   | 0.0069517  | 0.0078504  | 0.0086952  |   0.5 |  0.22
Comm    | 1.4736     | 2.7581     | 3.2804     |  34.9 | 76.52
Output  | 0.001727   | 0.0033942  | 0.0050668  |   1.8 |  0.09
Modify  | 0.15145    | 0.40302    | 1.6593     |  73.6 | 11.18
Other   |            | 0.1287     |            |       |  3.57

Nlocal:        7.51562 ave          36 max           0 min
Histogram: 43 4 1 0 0 2 2 6 4 2
Nghost:        1817.98 ave        2406 max        1292 min
Histogram: 16 0 0 0 32 0 0 0 0 16
Neighs:              0 ave           0 max           0 min
Histogram: 64 0 0 0 0 0 0 0 0 0

Total # of neighbors = 0
Ave neighs/atom = 0
Ave special neighs/atom = 15.567568
Neighbor list builds = 17
Dangerous builds = 0
Generated 0 of 1 mixed pair_coeff terms from geometric mixing rule
Setting up Verlet run ...
  Unit style    : real
  Current step  : 810000
  Time step     : 0.05
Per MPI rank memory allocation (min/avg/max) = 13.32 | 13.62 | 14.95 Mbytes
   Step          Temp          E_pair         E_mol          TotEng         Press     
    810000   310.82184      397.15135      18521.973      19363.844      62.947222    
    820000   322.93415      392.03149      18528.923      19383.005     -130.19045    
    830000   303.95639      386.2203       18537.8        19358.918     -19.181176    
    840000   316.81085      395.10303      18489.887      19338.28      -18.512022    
    850000   294.06207      393.32796      18514.706      19328.774      9.342079     
    860000   304.46109      385.40554      18512.598      19333.623     -190.83899    
Loop time of 17.4283 on 64 procs for 50000 steps with 481 atoms

Performance: 12.394 ns/day, 1.936 hours/ns, 2868.889 timesteps/s, 1.380 Matom-step/s
100.0% CPU use with 64 MPI tasks x 1 OpenMP threads

MPI task timing breakdown:
Section |  min time  |  avg time  |  max time  |%varavg| %total
---------------------------------------------------------------
Pair    | 0.017317   | 0.70709    | 4.2464     | 142.3 |  4.06
Bond    | 0.0057439  | 0.83194    | 3.9015     | 149.8 |  4.77
Neigh   | 0.035885   | 0.041544   | 0.04605    |   1.2 |  0.24
Comm    | 7.7902     | 13.227     | 15.753     |  76.1 | 75.89
Output  | 0.0091427  | 0.017154   | 0.024959   |   3.8 |  0.10
Modify  | 0.77535    | 1.9281     | 8.0879     | 154.8 | 11.06
Other   |            | 0.6756     |            |       |  3.88

Nlocal:        7.51562 ave          36 max           0 min
Histogram: 42 6 0 0 0 0 6 5 3 2
Nghost:        1817.05 ave        2405 max        1289 min
Histogram: 16 0 0 0 32 0 0 0 0 16
Neighs:              0 ave           0 max           0 min
Histogram: 64 0 0 0 0 0 0 0 0 0

Total # of neighbors = 0
Ave neighs/atom = 0
Ave special neighs/atom = 15.567568
Neighbor list builds = 91
Dangerous builds = 0
Generated 0 of 1 mixed pair_coeff terms from geometric mixing rule
Setting up Verlet run ...
  Unit style    : real
  Current step  : 860000
  Time step     : 0.05
Per MPI rank memory allocation (min/avg/max) = 13.32 | 13.62 | 14.95 Mbytes
   Step          Temp          E_pair         E_mol          TotEng         Press     
    860000   304.46109      385.40554      18512.598      19333.623     -190.83899    
    870000   303.73224      384.23701      18528.983      19347.797     -226.39654    
Loop time of 3.65447 on 64 procs for 10000 steps with 481 atoms

Performance: 11.821 ns/day, 2.030 hours/ns, 2736.375 timesteps/s, 1.316 Matom-step/s
100.0% CPU use with 64 MPI tasks x 1 OpenMP threads

MPI task timing breakdown:
Section |  min time  |  avg time  |  max time  |%varavg| %total
---------------------------------------------------------------
Pair    | 0.0033685  | 0.15547    | 1.0066     |  66.3 |  4.25
Bond    | 0.0011648  | 0.18055    | 0.89213    |  70.1 |  4.94
Neigh   | 0.0081105  | 0.0098955  | 0.011262   |   0.8 |  0.27
Comm    | 1.4393     | 2.7697     | 3.2806     |  33.9 | 75.79
Output  | 0.0017015  | 0.0035234  | 0.005324   |   1.9 |  0.10
Modify  | 0.16583    | 0.38275    | 1.5472     |  62.4 | 10.47
Other   |            | 0.1526     |            |       |  4.18

Nlocal:        7.51562 ave          35 max           0 min
Histogram: 41 6 1 0 0 2 3 4 3 4
Nghost:        1817.98 ave        2404 max        1291 min
Histogram: 16 0 0 0 32 0 0 0 0 16
Neighs:              0 ave           0 max           0 min
Histogram: 64 0 0 0 0 0 0 0 0 0

Total # of neighbors = 0
Ave neighs/atom = 0
Ave special neighs/atom = 15.567568
Neighbor list builds = 22
Dangerous builds = 0
Generated 0 of 1 mixed pair_coeff terms from geometric mixing rule
Setting up Verlet run ...
  Unit style    : real
  Current step  : 870000
  Time step     : 0.05
Per MPI rank memory allocation (min/avg/max) = 13.32 | 13.62 | 14.95 Mbytes
   Step          Temp          E_pair         E_mol          TotEng         Press     
    870000   303.73224      384.23701      18528.983      19347.797     -226.39654    
    880000   304.86419      393.87548      18546.439      19376.51      -12.804139    
    890000   325.81493      394.60656      18543.534      19404.313      7.9123931    
    900000   290.5881       390.57052      18554.158      19360.499     -156.29838    
    910000   292.86101      386.66784      18524.681      19330.371     -133.30177    
    920000   303.68742      387.64688      18512.83       19334.989     -43.077903    
Loop time of 18.1548 on 64 procs for 50000 steps with 481 atoms

Performance: 11.898 ns/day, 2.017 hours/ns, 2754.099 timesteps/s, 1.325 Matom-step/s
100.0% CPU use with 64 MPI tasks x 1 OpenMP threads

MPI task timing breakdown:
Section |  min time  |  avg time  |  max time  |%varavg| %total
---------------------------------------------------------------
Pair    | 0.016727   | 0.7301     | 4.0332     | 141.9 |  4.02
Bond    | 0.0058077  | 0.8522     | 4.1627     | 150.9 |  4.69
Neigh   | 0.047602   | 0.057019   | 0.063965   |   1.6 |  0.31
Comm    | 8.6576     | 13.811     | 16.348     |  73.1 | 76.07
Output  | 0.009739   | 0.018131   | 0.026311   |   3.9 |  0.10
Modify  | 0.8316     | 1.9384     | 7.7345     | 145.7 | 10.68
Other   |            | 0.7479     |            |       |  4.12

Nlocal:        7.51562 ave          35 max           0 min
Histogram: 43 2 3 0 0 2 2 4 6 2
Nghost:        1818.64 ave        2406 max        1293 min
Histogram: 16 0 0 0 32 0 0 0 0 16
Neighs:              0 ave           0 max           0 min
Histogram: 64 0 0 0 0 0 0 0 0 0

Total # of neighbors = 0
Ave neighs/atom = 0
Ave special neighs/atom = 15.567568
Neighbor list builds = 122
Dangerous builds = 0
Generated 0 of 1 mixed pair_coeff terms from geometric mixing rule
Setting up Verlet run ...
  Unit style    : real
  Current step  : 920000
  Time step     : 0.05
Per MPI rank memory allocation (min/avg/max) = 13.32 | 13.62 | 14.95 Mbytes
   Step          Temp          E_pair         E_mol          TotEng         Press     
    920000   303.68742      387.64688      18512.83       19334.989     -43.077903    
    930000   310.34422      386.29689      18523.488      19353.822     -43.883132    
Loop time of 3.17685 on 64 procs for 10000 steps with 481 atoms

Performance: 13.598 ns/day, 1.765 hours/ns, 3147.771 timesteps/s, 1.514 Matom-step/s
100.0% CPU use with 64 MPI tasks x 1 OpenMP threads

MPI task timing breakdown:
Section |  min time  |  avg time  |  max time  |%varavg| %total
---------------------------------------------------------------
Pair    | 0.0031059  | 0.13145    | 0.77834    |  60.1 |  4.14
Bond    | 0.0011059  | 0.158      | 0.77084    |  64.7 |  4.97
Neigh   | 0.0068945  | 0.0081665  | 0.0090219  |   0.6 |  0.26
Comm    | 1.3433     | 2.3978     | 2.8744     |  31.1 | 75.48
Output  | 0.0016024  | 0.0032455  | 0.0049016  |   1.8 |  0.10
Modify  | 0.13995    | 0.34174    | 1.3077     |  58.8 | 10.76
Other   |            | 0.1364     |            |       |  4.29

Nlocal:        7.51562 ave          34 max           0 min
Histogram: 43 2 3 0 1 0 2 4 6 3
Nghost:        1820.52 ave        2416 max        1292 min
Histogram: 16 0 0 0 32 0 0 0 0 16
Neighs:              0 ave           0 max           0 min
Histogram: 64 0 0 0 0 0 0 0 0 0

Total # of neighbors = 0
Ave neighs/atom = 0
Ave special neighs/atom = 15.567568
Neighbor list builds = 20
Dangerous builds = 0
Generated 0 of 1 mixed pair_coeff terms from geometric mixing rule
Setting up Verlet run ...
  Unit style    : real
  Current step  : 930000
  Time step     : 0.05
Per MPI rank memory allocation (min/avg/max) = 13.32 | 13.62 | 14.95 Mbytes
   Step          Temp          E_pair         E_mol          TotEng         Press     
    930000   310.34422      386.29689      18523.488      19353.822     -43.883132    
    940000   293.60695      394.95388      18545.722      19360.766      264.73561    
    950000   291.13183      384.48613      18561.514      19362.548     -216.33116    
    960000   303.76075      390.30918      18508.298      19333.225      46.245096    
    970000   311.54525      389.01965      18532.382      19367.157     -162.94365    
    980000   321.2182       391.62162      18538.379      19389.597     -77.011599    
Loop time of 18.7719 on 64 procs for 50000 steps with 481 atoms

Performance: 11.507 ns/day, 2.086 hours/ns, 2663.558 timesteps/s, 1.281 Matom-step/s
100.0% CPU use with 64 MPI tasks x 1 OpenMP threads

MPI task timing breakdown:
Section |  min time  |  avg time  |  max time  |%varavg| %total
---------------------------------------------------------------
Pair    | 0.017463   | 0.75369    | 4.7125     | 149.2 |  4.01
Bond    | 0.0056582  | 0.86816    | 4.2506     | 152.8 |  4.62
Neigh   | 0.041222   | 0.046687   | 0.051238   |   1.2 |  0.25
Comm    | 8.6386     | 14.187     | 17.067     |  80.4 | 75.58
Output  | 0.0094085  | 0.017509   | 0.025455   |   3.8 |  0.09
Modify  | 0.76638    | 2.1734     | 8.482      | 166.7 | 11.58
Other   |            | 0.725      |            |       |  3.86

Nlocal:        7.51562 ave          36 max           0 min
Histogram: 41 6 1 0 0 1 6 1 7 1
Nghost:        1824.17 ave        2424 max        1292 min
Histogram: 16 0 0 0 32 0 0 0 0 16
Neighs:              0 ave           0 max           0 min
Histogram: 64 0 0 0 0 0 0 0 0 0

Total # of neighbors = 0
Ave neighs/atom = 0
Ave special neighs/atom = 15.567568
Neighbor list builds = 98
Dangerous builds = 0
Generated 0 of 1 mixed pair_coeff terms from geometric mixing rule
Setting up Verlet run ...
  Unit style    : real
  Current step  : 980000
  Time step     : 0.05
Per MPI rank memory allocation (min/avg/max) = 13.32 | 13.62 | 14.95 Mbytes
   Step          Temp          E_pair         E_mol          TotEng         Press     
    980000   321.2182       391.62162      18538.379      19389.597     -77.011599    
    990000   291.27867      388.5456       18531.18       19336.484     -135.30383    
Loop time of 4.21262 on 64 procs for 10000 steps with 481 atoms

Performance: 10.255 ns/day, 2.340 hours/ns, 2373.819 timesteps/s, 1.142 Matom-step/s
100.0% CPU use with 64 MPI tasks x 1 OpenMP threads

MPI task timing breakdown:
Section |  min time  |  avg time  |  max time  |%varavg| %total
---------------------------------------------------------------
Pair    | 0.0035726  | 0.16367    | 1.0698     |  69.7 |  3.89
Bond    | 0.0011671  | 0.18441    | 0.91627    |  70.3 |  4.38
Neigh   | 0.0088616  | 0.010089   | 0.011091   |   0.6 |  0.24
Comm    | 1.9361     | 3.2025     | 3.86       |  38.1 | 76.02
Output  | 0.0016708  | 0.0034997  | 0.0053278  |   1.9 |  0.08
Modify  | 0.15144    | 0.49401    | 1.9986     |  82.9 | 11.73
Other   |            | 0.1544     |            |       |  3.67

Nlocal:        7.51562 ave          35 max           0 min
Histogram: 41 6 1 0 1 0 4 4 2 5
Nghost:         1820.7 ave        2415 max        1290 min
Histogram: 16 0 0 0 32 0 0 0 0 16
Neighs:              0 ave           0 max           0 min
Histogram: 64 0 0 0 0 0 0 0 0 0

Total # of neighbors = 0
Ave neighs/atom = 0
Ave special neighs/atom = 15.567568
Neighbor list builds = 19
Dangerous builds = 0
Generated 0 of 1 mixed pair_coeff terms from geometric mixing rule
Setting up Verlet run ...
  Unit style    : real
  Current step  : 990000
  Time step     : 0.05
Per MPI rank memory allocation (min/avg/max) = 13.32 | 13.62 | 14.95 Mbytes
   Step          Temp          E_pair         E_mol          TotEng         Press     
    990000   291.27867      388.5456       18531.18       19336.484     -135.30383    
   1000000   303.09768      385.76429      18497.101      19316.534     -35.217745    
   1010000   309.58489      393.1808       18514.487      19350.618      73.694393    
   1020000   289.54128      396.17747      18522.021      19332.471      70.522453    
   1030000   280.49275      396.07154      18511.983      19309.381      84.661731    
   1040000   299.93956      394.44126      18492.24       19315.832      130.95142    
Loop time of 17.6112 on 64 procs for 50000 steps with 481 atoms

Performance: 12.265 ns/day, 1.957 hours/ns, 2839.102 timesteps/s, 1.366 Matom-step/s
100.0% CPU use with 64 MPI tasks x 1 OpenMP threads

MPI task timing breakdown:
Section |  min time  |  avg time  |  max time  |%varavg| %total
---------------------------------------------------------------
Pair    | 0.01752    | 0.70724    | 4.0492     | 139.4 |  4.02
Bond    | 0.0057801  | 0.83153    | 4.2009     | 148.4 |  4.72
Neigh   | 0.034604   | 0.040079   | 0.044462   |   1.3 |  0.23
Comm    | 7.7623     | 13.342     | 15.868     |  72.4 | 75.76
Output  | 0.009226   | 0.017277   | 0.025102   |   3.8 |  0.10
Modify  | 0.82485    | 1.9513     | 7.2597     | 144.2 | 11.08
Other   |            | 0.7214     |            |       |  4.10

Nlocal:        7.51562 ave          37 max           0 min
Histogram: 41 7 0 0 0 3 3 6 1 3
Nghost:        1821.73 ave        2415 max        1287 min
Histogram: 16 0 0 0 32 0 0 0 0 16
Neighs:              0 ave           0 max           0 min
Histogram: 64 0 0 0 0 0 0 0 0 0

Total # of neighbors = 0
Ave neighs/atom = 0
Ave special neighs/atom = 15.567568
Neighbor list builds = 91
Dangerous builds = 0
Generated 0 of 1 mixed pair_coeff terms from geometric mixing rule
Setting up Verlet run ...
  Unit style    : real
  Current step  : 1040000
  Time step     : 0.05
Per MPI rank memory allocation (min/avg/max) = 13.32 | 13.62 | 14.95 Mbytes
   Step          Temp          E_pair         E_mol          TotEng         Press     
   1040000   299.93956      394.44126      18492.24       19315.832      130.95142    
   1050000   309.1214       390.55746      18526.233      19359.077      22.714003    
Loop time of 3.14989 on 64 procs for 10000 steps with 481 atoms

Performance: 13.715 ns/day, 1.750 hours/ns, 3174.718 timesteps/s, 1.527 Matom-step/s
100.0% CPU use with 64 MPI tasks x 1 OpenMP threads

MPI task timing breakdown:
Section |  min time  |  avg time  |  max time  |%varavg| %total
---------------------------------------------------------------
Pair    | 0.0032344  | 0.12807    | 0.78619    |  58.9 |  4.07
Bond    | 0.0011095  | 0.15476    | 0.82617    |  64.6 |  4.91
Neigh   | 0.0078287  | 0.0092445  | 0.010422   |   0.7 |  0.29
Comm    | 1.2195     | 2.373      | 2.8416     |  30.1 | 75.34
Output  | 0.0015496  | 0.0031708  | 0.0048162  |   1.8 |  0.10
Modify  | 0.14059    | 0.34085    | 1.1832     |  56.6 | 10.82
Other   |            | 0.1408     |            |       |  4.47

Nlocal:        7.51562 ave          33 max           0 min
Histogram: 42 4 2 0 0 0 2 5 3 6
Nghost:        1820.14 ave        2416 max        1292 min
Histogram: 16 0 0 0 32 0 0 0 0 16
Neighs:              0 ave           0 max           0 min
Histogram: 64 0 0 0 0 0 0 0 0 0

Total # of neighbors = 0
Ave neighs/atom = 0
Ave special neighs/atom = 15.567568
Neighbor list builds = 23
Dangerous builds = 0
Generated 0 of 1 mixed pair_coeff terms from geometric mixing rule
Setting up Verlet run ...
  Unit style    : real
  Current step  : 1050000
  Time step     : 0.05
Per MPI rank memory allocation (min/avg/max) = 13.32 | 13.62 | 14.95 Mbytes
   Step          Temp          E_pair         E_mol          TotEng         Press     
   1050000   309.1214       390.55746      18526.233      19359.077      22.714003    
   1060000   306.68915      389.61461      18531.734      19360.156     -164.06147    
   1070000   292.93693      389.03534      18522.3        19330.466     -123.34168    
   1080000   279.14123      394.6956       18517.945      19312.033     -41.259445    
   1090000   299.03693      391.01657      18508.931      19327.807     -58.880736    
   1100000   300.77339      394.07575      18512.789      19337.208     -19.608942    
Loop time of 16.8864 on 64 procs for 50000 steps with 481 atoms

Performance: 12.791 ns/day, 1.876 hours/ns, 2960.959 timesteps/s, 1.424 Matom-step/s
100.0% CPU use with 64 MPI tasks x 1 OpenMP threads

MPI task timing breakdown:
Section |  min time  |  avg time  |  max time  |%varavg| %total
---------------------------------------------------------------
Pair    | 0.016574   | 0.68593    | 4.0573     | 138.9 |  4.06
Bond    | 0.0056677  | 0.80976    | 4.0735     | 147.1 |  4.80
Neigh   | 0.042494   | 0.050155   | 0.055671   |   1.5 |  0.30
Comm    | 7.2368     | 12.758     | 15.285     |  72.3 | 75.55
Output  | 0.010749   | 0.01854    | 0.026194   |   3.6 |  0.11
Modify  | 0.7593     | 1.8785     | 7.2033     | 142.0 | 11.12
Other   |            | 0.6852     |            |       |  4.06

Nlocal:        7.51562 ave          33 max           0 min
Histogram: 41 6 1 0 0 0 2 4 7 3
Nghost:        1820.33 ave        2410 max        1291 min
Histogram: 16 0 0 0 32 0 0 0 0 16
Neighs:              0 ave           0 max           0 min
Histogram: 64 0 0 0 0 0 0 0 0 0

Total # of neighbors = 0
Ave neighs/atom = 0
Ave special neighs/atom = 15.567568
Neighbor list builds = 118
Dangerous builds = 0
Generated 0 of 1 mixed pair_coeff terms from geometric mixing rule
Setting up Verlet run ...
  Unit style    : real
  Current step  : 1100000
  Time step     : 0.05
Per MPI rank memory allocation (min/avg/max) = 13.32 | 13.62 | 14.95 Mbytes
   Step          Temp          E_pair         E_mol          TotEng         Press     
   1100000   300.77339      394.07575      18512.789      19337.208     -19.608942    
   1110000   306.37642      382.2851       18556.202      19376.847     -294.83385    
Loop time of 4.04255 on 64 procs for 10000 steps with 481 atoms

Performance: 10.686 ns/day, 2.246 hours/ns, 2473.688 timesteps/s, 1.190 Matom-step/s
100.0% CPU use with 64 MPI tasks x 1 OpenMP threads

MPI task timing breakdown:
Section |  min time  |  avg time  |  max time  |%varavg| %total
---------------------------------------------------------------
Pair    | 0.0033684  | 0.15948    | 1.1149     |  69.5 |  3.95
Bond    | 0.0011605  | 0.18039    | 0.93879    |  70.2 |  4.46
Neigh   | 0.010981   | 0.012551   | 0.014014   |   0.7 |  0.31
Comm    | 1.6568     | 3.0834     | 3.6965     |  36.8 | 76.27
Output  | 0.001761   | 0.0035404  | 0.0053403  |   1.9 |  0.09
Modify  | 0.16389    | 0.4568     | 1.8516     |  77.3 | 11.30
Other   |            | 0.1464     |            |       |  3.62

Nlocal:        7.51562 ave          34 max           0 min
Histogram: 42 4 2 0 0 2 2 3 5 4
Nghost:         1822.2 ave        2420 max        1290 min
Histogram: 16 0 0 0 32 0 0 0 0 16
Neighs:              0 ave           0 max           0 min
Histogram: 64 0 0 0 0 0 0 0 0 0

Total # of neighbors = 0
Ave neighs/atom = 0
Ave special neighs/atom = 15.567568
Neighbor list builds = 25
Dangerous builds = 0
Generated 0 of 1 mixed pair_coeff terms from geometric mixing rule
Setting up Verlet run ...
  Unit style    : real
  Current step  : 1110000
  Time step     : 0.05
Per MPI rank memory allocation (min/avg/max) = 13.32 | 13.62 | 14.95 Mbytes
   Step          Temp          E_pair         E_mol          TotEng         Press     
   1110000   306.37642      382.2851       18556.202      19376.847     -294.83385    
   1120000   310.25798      392.55954      18563.054      19399.527     -16.639538    
   1130000   302.48166      389.76666      18539.432      19361.986     -37.713651    
   1140000   303.90372      391.59521      18517.939      19344.357     -44.429523    
   1150000   320.57354      386.69329      18531.449      19376.816     -225.03227    
   1160000   303.24139      393.51314      18543.595      19370.982      133.64568    
Loop time of 19.0141 on 64 procs for 50000 steps with 481 atoms

Performance: 11.360 ns/day, 2.113 hours/ns, 2629.626 timesteps/s, 1.265 Matom-step/s
100.0% CPU use with 64 MPI tasks x 1 OpenMP threads

MPI task timing breakdown:
Section |  min time  |  avg time  |  max time  |%varavg| %total
---------------------------------------------------------------
Pair    | 0.01669    | 0.74171    | 4.864      | 149.1 |  3.90
Bond    | 0.0057103  | 0.84869    | 4.2901     | 152.1 |  4.46
Neigh   | 0.057582   | 0.06585    | 0.073347   |   1.6 |  0.35
Comm    | 8.3832     | 14.501     | 17.282     |  78.3 | 76.26
Output  | 0.0096905  | 0.01791    | 0.025926   |   3.8 |  0.09
Modify  | 0.84787    | 2.1345     | 8.4854     | 163.5 | 11.23
Other   |            | 0.7047     |            |       |  3.71

Nlocal:        7.51562 ave          36 max           0 min
Histogram: 42 5 1 0 0 1 4 6 3 2
Nghost:        1822.95 ave        2411 max        1289 min
Histogram: 16 0 0 0 32 0 0 0 0 16
Neighs:              0 ave           0 max           0 min
Histogram: 64 0 0 0 0 0 0 0 0 0

Total # of neighbors = 0
Ave neighs/atom = 0
Ave special neighs/atom = 15.567568
Neighbor list builds = 135
Dangerous builds = 0
Generated 0 of 1 mixed pair_coeff terms from geometric mixing rule
Setting up Verlet run ...
  Unit style    : real
  Current step  : 1160000
  Time step     : 0.05
Per MPI rank memory allocation (min/avg/max) = 13.32 | 13.62 | 14.95 Mbytes
   Step          Temp          E_pair         E_mol          TotEng         Press     
   1160000   303.24139      393.51314      18543.595      19370.982      133.64568    
   1170000   297.31587      380.41172      18519.461      19325.269     -313.20123    
Loop time of 3.204 on 64 procs for 10000 steps with 481 atoms

Performance: 13.483 ns/day, 1.780 hours/ns, 3121.095 timesteps/s, 1.501 Matom-step/s
100.0% CPU use with 64 MPI tasks x 1 OpenMP threads

MPI task timing breakdown:
Section |  min time  |  avg time  |  max time  |%varavg| %total
---------------------------------------------------------------
Pair    | 0.0032269  | 0.12645    | 0.86337    |  59.8 |  3.95
Bond    | 0.001092   | 0.15223    | 0.88651    |  65.0 |  4.75
Neigh   | 0.0094182  | 0.011147   | 0.012452   |   0.8 |  0.35
Comm    | 1.1587     | 2.4259     | 2.9089     |  30.6 | 75.71
Output  | 0.0016452  | 0.0032643  | 0.0049044  |   1.8 |  0.10
Modify  | 0.13872    | 0.35747    | 1.2669     |  58.5 | 11.16
Other   |            | 0.1276     |            |       |  3.98

Nlocal:        7.51562 ave          38 max           0 min
Histogram: 41 7 0 0 2 1 4 5 2 2
Nghost:        1820.14 ave        2406 max        1286 min
Histogram: 16 0 0 0 32 0 0 0 0 16
Neighs:              0 ave           0 max           0 min
Histogram: 64 0 0 0 0 0 0 0 0 0

Total # of neighbors = 0
Ave neighs/atom = 0
Ave special neighs/atom = 15.567568
Neighbor list builds = 27
Dangerous builds = 0
Generated 0 of 1 mixed pair_coeff terms from geometric mixing rule
Setting up Verlet run ...
  Unit style    : real
  Current step  : 1170000
  Time step     : 0.05
Per MPI rank memory allocation (min/avg/max) = 13.32 | 13.62 | 14.95 Mbytes
   Step          Temp          E_pair         E_mol          TotEng         Press     
   1170000   297.31587      380.41172      18519.461      19325.269     -313.20123    
   1180000   285.94317      386.0492       18523.737      19318.911     -210.3958     
   1190000   313.67152      398.28846      18526.176      19373.262      122.13763    
   1200000   310.8968       385.19095      18552.095      19382.114     -148.46003    
   1210000   304.0581       385.7033       18530.857      19351.603     -142.08042    
   1220000   285.55238      385.17454      18538.158      19331.898     -276.96034    
Loop time of 17.7618 on 64 procs for 50000 steps with 481 atoms

Performance: 12.161 ns/day, 1.974 hours/ns, 2815.022 timesteps/s, 1.354 Matom-step/s
100.0% CPU use with 64 MPI tasks x 1 OpenMP threads

MPI task timing breakdown:
Section |  min time  |  avg time  |  max time  |%varavg| %total
---------------------------------------------------------------
Pair    | 0.016159   | 0.69286    | 4.448      | 139.1 |  3.90
Bond    | 0.0057947  | 0.81683    | 4.1127     | 148.0 |  4.60
Neigh   | 0.05166    | 0.059752   | 0.066534   |   1.4 |  0.34
Comm    | 7.7821     | 13.456     | 16.085     |  75.0 | 75.76
Output  | 0.0093482  | 0.017324   | 0.025145   |   3.8 |  0.10
Modify  | 0.81165    | 2.0492     | 8.0212     | 156.9 | 11.54
Other   |            | 0.6696     |            |       |  3.77

Nlocal:        7.51562 ave          38 max           0 min
Histogram: 42 4 2 0 2 1 5 4 1 3
Nghost:        1822.95 ave        2419 max        1289 min
Histogram: 16 0 0 0 32 0 0 0 0 16
Neighs:              0 ave           0 max           0 min
Histogram: 64 0 0 0 0 0 0 0 0 0

Total # of neighbors = 0
Ave neighs/atom = 0
Ave special neighs/atom = 15.567568
Neighbor list builds = 130
Dangerous builds = 0
Generated 0 of 1 mixed pair_coeff terms from geometric mixing rule
Setting up Verlet run ...
  Unit style    : real
  Current step  : 1220000
  Time step     : 0.05
Per MPI rank memory allocation (min/avg/max) = 13.32 | 13.62 | 14.95 Mbytes
[...]

Performance: 11.470 ns/day, 2.092 hours/ns, 2655.075 timesteps/s, 1.277 Matom-step/s
100.0% CPU use with 64 MPI tasks x 1 OpenMP threads

MPI task timing breakdown:
Section |  min time  |  avg time  |  max time  |%varavg| %total
---------------------------------------------------------------
Pair    | 0.016503   | 0.69125    | 4.8824     | 146.3 |  3.67
Bond    | 0.006035   | 0.79078    | 3.9303     | 145.1 |  4.20
Neigh   | 0.030471   | 0.034274   | 0.039136   |   1.0 |  0.18
Comm    | 8.5645     | 14.4       | 17.256     |  81.0 | 76.47
Output  | 0.0088828  | 0.016971   | 0.024726   |   3.8 |  0.09
Modify  | 0.70493    | 2.2193     | 9.2134     | 183.9 | 11.78
Other   |            | 0.6795     |            |       |  3.61

Nlocal:        7.51562 ave          34 max           0 min
Histogram: 42 4 2 0 0 1 1 5 7 2
Nghost:        1819.77 ave        2407 max        1293 min
Histogram: 16 0 0 0 32 0 0 0 0 16
Neighs:              0 ave           0 max           0 min
Histogram: 64 0 0 0 0 0 0 0 0 0

Total # of neighbors = 0
Ave neighs/atom = 0
Ave special neighs/atom = 15.567568
Neighbor list builds = 70
Dangerous builds = 0
Generated 0 of 1 mixed pair_coeff terms from geometric mixing rule
Setting up Verlet run ...
  Unit style    : real
  Current step  : 2780000
  Time step     : 0.05
Per MPI rank memory allocation (min/avg/max) = 13.32 | 13.62 | 14.95 Mbytes
   Step          Temp          E_pair         E_mol          TotEng         Press     
   2780000   297.31359      381.23691      18511.08       19317.71      -143.35886    
   2790000   300.10541      378.21437      18500.093      19307.694     -158.51636    
Loop time of 3.4619 on 64 procs for 10000 steps with 481 atoms

Performance: 12.479 ns/day, 1.923 hours/ns, 2888.589 timesteps/s, 1.389 Matom-step/s
100.0% CPU use with 64 MPI tasks x 1 OpenMP threads

MPI task timing breakdown:
Section |  min time  |  avg time  |  max time  |%varavg| %total
---------------------------------------------------------------
Pair    | 0.0031984  | 0.12488    | 1.0256     |  63.5 |  3.61
Bond    | 0.0010826  | 0.14566    | 0.76671    |  62.5 |  4.21
Neigh   | 0.0054854  | 0.006274   | 0.0071665  |   0.5 |  0.18
Comm    | 1.397      | 2.6529     | 3.1752     |  34.1 | 76.63
Output  | 0.001441   | 0.0030502  | 0.004641   |   1.8 |  0.09
Modify  | 0.12781    | 0.40015    | 1.6627     |  77.6 | 11.56
Other   |            | 0.1289     |            |       |  3.72

Nlocal:        7.51562 ave          37 max           0 min
Histogram: 41 6 1 1 0 1 5 4 3 2
Nghost:        1816.77 ave        2403 max        1289 min
Histogram: 16 0 0 0 32 0 0 0 0 16
Neighs:              0 ave           0 max           0 min
Histogram: 64 0 0 0 0 0 0 0 0 0

Total # of neighbors = 0
Ave neighs/atom = 0
Ave special neighs/atom = 15.567568
Neighbor list builds = 14
Dangerous builds = 0
Generated 0 of 1 mixed pair_coeff terms from geometric mixing rule
Setting up Verlet run ...
  Unit style    : real
  Current step  : 2790000
  Time step     : 0.05
Per MPI rank memory allocation (min/avg/max) = 13.32 | 13.62 | 14.95 Mbytes
   Step          Temp          E_pair         E_mol          TotEng         Press     
   2790000   300.10541      378.21437      18500.093      19307.694     -158.51636    
   2800000   282.14864      384.42956      18523.781      19311.906     -1.8169141    
   2810000   300.80239      382.04547      18526.289      19338.719     -150.57514    
   2820000   307.33023      394.49863      18514.207      19348.43       291.69276    
   2830000   290.20344      381.91641      18524.114      19321.25      -181.98324    
   2840000   280.78675      385.55506      18517.753      19305.054     -84.287808    
Loop time of 18.5472 on 64 procs for 50000 steps with 481 atoms

Performance: 11.646 ns/day, 2.061 hours/ns, 2695.820 timesteps/s, 1.297 Matom-step/s
100.0% CPU use with 64 MPI tasks x 1 OpenMP threads

MPI task timing breakdown:
Section |  min time  |  avg time  |  max time  |%varavg| %total
---------------------------------------------------------------
Pair    | 0.017153   | 0.65309    | 5.1826     | 143.4 |  3.52
Bond    | 0.0053687  | 0.75801    | 4.1403     | 142.7 |  4.09
Neigh   | 0.038884   | 0.043843   | 0.049677   |   1.2 |  0.24
Comm    | 7.7962     | 14.199     | 16.987     |  80.8 | 76.56
Output  | 0.0088279  | 0.016668   | 0.024165   |   3.8 |  0.09
Modify  | 0.72097    | 2.2161     | 9.1851     | 187.1 | 11.95
Other   |            | 0.6604     |            |       |  3.56

Nlocal:        7.51562 ave          38 max           0 min
Histogram: 42 4 2 1 1 1 3 6 3 1
Nghost:        1817.89 ave        2399 max        1291 min
Histogram: 16 0 0 0 32 0 0 0 0 16
Neighs:              0 ave           0 max           0 min
Histogram: 64 0 0 0 0 0 0 0 0 0

Total # of neighbors = 0
Ave neighs/atom = 0
Ave special neighs/atom = 15.567568
Neighbor list builds = 90
Dangerous builds = 0
Generated 0 of 1 mixed pair_coeff terms from geometric mixing rule
Setting up Verlet run ...
  Unit style    : real
  Current step  : 2840000
  Time step     : 0.05
Per MPI rank memory allocation (min/avg/max) = 13.32 | 13.62 | 14.95 Mbytes
   Step          Temp          E_pair         E_mol          TotEng         Press     
   2840000   280.78675      385.55506      18517.753      19305.054     -84.287808    
   2850000   294.89254      391.72863      18501.676      19315.333      99.748835    
Loop time of 4.06599 on 64 procs for 10000 steps with 481 atoms

Performance: 10.625 ns/day, 2.259 hours/ns, 2459.425 timesteps/s, 1.183 Matom-step/s
100.0% CPU use with 64 MPI tasks x 1 OpenMP threads

MPI task timing breakdown:
Section |  min time  |  avg time  |  max time  |%varavg| %total
---------------------------------------------------------------
Pair    | 0.0033319  | 0.15655    | 1.1027     |  71.4 |  3.85
Bond    | 0.0010863  | 0.17608    | 0.91896    |  69.7 |  4.33
Neigh   | 0.0065673  | 0.0073197  | 0.0080765  |   0.4 |  0.18
Comm    | 1.774      | 3.1058     | 3.7428     |  39.7 | 76.38
Output  | 0.0016781  | 0.0034977  | 0.0052612  |   1.9 |  0.09
Modify  | 0.13441    | 0.47231    | 2.1279     |  89.5 | 11.62
Other   |            | 0.1445     |            |       |  3.55

Nlocal:        7.51562 ave          39 max           0 min
Histogram: 41 6 1 1 1 2 3 5 3 1
Nghost:        1818.73 ave        2415 max        1290 min
Histogram: 16 0 0 0 32 0 0 0 0 16
Neighs:              0 ave           0 max           0 min
Histogram: 64 0 0 0 0 0 0 0 0 0

Total # of neighbors = 0
Ave neighs/atom = 0
Ave special neighs/atom = 15.567568
Neighbor list builds = 13
Dangerous builds = 0
Generated 0 of 1 mixed pair_coeff terms from geometric mixing rule
Setting up Verlet run ...
  Unit style    : real
  Current step  : 2850000
  Time step     : 0.05
Per MPI rank memory allocation (min/avg/max) = 13.32 | 13.62 | 14.95 Mbytes
   Step          Temp          E_pair         E_mol          TotEng         Press     
   2850000   294.89254      391.72863      18501.676      19315.333      99.748835    
   2860000   312.7887       385.19028      18513.489      19346.214     -47.568657    
   2870000   294.17383      379.61241      18502.687      19303.2       -45.998851    
   2880000   297.19675      390.81025      18498.627      19314.663      153.07103    
   2890000   299.5337       380.57518      18522.786      19331.931     -204.76118    
   2900000   295.32023      384.07783      18527.819      19334.438     -101.22692    
Loop time of 19.381 on 64 procs for 50000 steps with 481 atoms

Performance: 11.145 ns/day, 2.153 hours/ns, 2579.843 timesteps/s, 1.241 Matom-step/s
100.0% CPU use with 64 MPI tasks x 1 OpenMP threads

MPI task timing breakdown:
Section |  min time  |  avg time  |  max time  |%varavg| %total
---------------------------------------------------------------
Pair    | 0.01856    | 0.73901    | 5.1599     | 153.6 |  3.81
Bond    | 0.0054537  | 0.82562    | 4.1057     | 148.6 |  4.26
Neigh   | 0.024346   | 0.027136   | 0.030629   |   0.9 |  0.14
Comm    | 8.4484     | 14.746     | 17.669     |  83.2 | 76.08
Output  | 0.0093387  | 0.017485   | 0.025274   |   3.8 |  0.09
Modify  | 0.79051    | 2.311      | 9.4783     | 182.9 | 11.92
Other   |            | 0.7152     |            |       |  3.69

Nlocal:        7.51562 ave          35 max           0 min
Histogram: 43 2 3 0 0 1 4 4 4 3
Nghost:        1818.45 ave        2401 max        1290 min
Histogram: 16 0 0 0 32 0 0 0 0 16
Neighs:              0 ave           0 max           0 min
Histogram: 64 0 0 0 0 0 0 0 0 0

Total # of neighbors = 0
Ave neighs/atom = 0
Ave special neighs/atom = 15.567568
Neighbor list builds = 53
Dangerous builds = 0
Generated 0 of 1 mixed pair_coeff terms from geometric mixing rule
Setting up Verlet run ...
  Unit style    : real
  Current step  : 2900000
  Time step     : 0.05
Per MPI rank memory allocation (min/avg/max) = 13.32 | 13.62 | 14.95 Mbytes
   Step          Temp          E_pair         E_mol          TotEng         Press     
   2900000   295.32023      384.07783      18527.819      19334.438     -101.22692    
   2910000   309.54144      380.64982      18495.529      19319.068     -60.140277    
Loop time of 3.79298 on 64 procs for 10000 steps with 481 atoms

Performance: 11.389 ns/day, 2.107 hours/ns, 2636.450 timesteps/s, 1.268 Matom-step/s
100.0% CPU use with 64 MPI tasks x 1 OpenMP threads

MPI task timing breakdown:
Section |  min time  |  avg time  |  max time  |%varavg| %total
---------------------------------------------------------------
Pair    | 0.0033421  | 0.14568    | 1.1163     |  71.7 |  3.84
Bond    | 0.0010686  | 0.1605     | 0.84128    |  66.5 |  4.23
Neigh   | 0.0073695  | 0.008312   | 0.0094298  |   0.5 |  0.22
Comm    | 1.5755     | 2.8853     | 3.477      |  38.3 | 76.07
Output  | 0.0015516  | 0.0032315  | 0.0048878  |   1.8 |  0.09
Modify  | 0.13647    | 0.45901    | 1.9526     |  82.8 | 12.10
Other   |            | 0.131      |            |       |  3.45

Nlocal:        7.51562 ave          32 max           0 min
Histogram: 43 2 3 0 0 0 0 5 5 6
Nghost:        1816.02 ave        2392 max        1294 min
Histogram: 16 0 0 0 32 0 0 0 0 16
Neighs:              0 ave           0 max           0 min
Histogram: 64 0 0 0 0 0 0 0 0 0

Total # of neighbors = 0
Ave neighs/atom = 0
Ave special neighs/atom = 15.567568
Neighbor list builds = 16
Dangerous builds = 0
Generated 0 of 1 mixed pair_coeff terms from geometric mixing rule
Setting up Verlet run ...
  Unit style    : real
  Current step  : 2910000
  Time step     : 0.05
Per MPI rank memory allocation (min/avg/max) = 13.32 | 13.62 | 14.95 Mbytes
   Step          Temp          E_pair         E_mol          TotEng         Press     
   2910000   309.54144      380.64982      18495.529      19319.068     -60.140277    
   2920000   293.68506      378.85195      18496.475      19295.528     -115.44284    
   2930000   301.8353       381.27778      18493.444      19306.585     -37.682157    
   2940000   289.91012      379.82477      18516.913      19311.538     -87.207496    
   2950000   293.63493      380.03234      18527.409      19327.571      4.1074979    
   2960000   302.98635      388.88112      18539.437      19361.828      95.900056    
Loop time of 20.1247 on 64 procs for 50000 steps with 481 atoms

Performance: 10.733 ns/day, 2.236 hours/ns, 2484.509 timesteps/s, 1.195 Matom-step/s
100.0% CPU use with 64 MPI tasks x 1 OpenMP threads

MPI task timing breakdown:
Section |  min time  |  avg time  |  max time  |%varavg| %total
---------------------------------------------------------------
Pair    | 0.018679   | 0.79004    | 5.1089     | 160.6 |  3.93
Bond    | 0.0056689  | 0.89041    | 4.3403     | 156.8 |  4.42
Neigh   | 0.044531   | 0.050105   | 0.05579    |   1.2 |  0.25
Comm    | 8.9728     | 15.329     | 18.472     |  87.5 | 76.17
Output  | 0.0098099  | 0.018039   | 0.025875   |   3.8 |  0.09
Modify  | 0.7029     | 2.3431     | 10.057     | 190.8 | 11.64
Other   |            | 0.704      |            |       |  3.50

Nlocal:        7.51562 ave          35 max           0 min
Histogram: 43 2 3 0 0 0 4 5 5 2
Nghost:        1823.05 ave        2416 max        1289 min
Histogram: 16 0 0 0 32 0 0 0 0 16
Neighs:              0 ave           0 max           0 min
Histogram: 64 0 0 0 0 0 0 0 0 0

Total # of neighbors = 0
Ave neighs/atom = 0
Ave special neighs/atom = 15.567568
Neighbor list builds = 93
Dangerous builds = 0
Generated 0 of 1 mixed pair_coeff terms from geometric mixing rule
Setting up Verlet run ...
  Unit style    : real
  Current step  : 2960000
  Time step     : 0.05
Per MPI rank memory allocation (min/avg/max) = 13.32 | 13.62 | 14.95 Mbytes
   Step          Temp          E_pair         E_mol          TotEng         Press     
   2960000   302.98635      388.88112      18539.437      19361.828      95.900056    
   2970000   304.86212      377.406        18561.979      19375.579     -322.87312    
Loop time of 3.7456 on 64 procs for 10000 steps with 481 atoms

Performance: 11.534 ns/day, 2.081 hours/ns, 2669.796 timesteps/s, 1.284 Matom-step/s
100.0% CPU use with 64 MPI tasks x 1 OpenMP threads

MPI task timing breakdown:
Section |  min time  |  avg time  |  max time  |%varavg| %total
---------------------------------------------------------------
Pair    | 0.0032519  | 0.13531    | 1.0123     |  67.1 |  3.61
Bond    | 0.0010708  | 0.15881    | 0.91233    |  67.1 |  4.24
Neigh   | 0.0081127  | 0.0090959  | 0.010083   |   0.4 |  0.24
Comm    | 1.6277     | 2.8605     | 3.4417     |  36.9 | 76.37
Output  | 0.0016063  | 0.0032115  | 0.0048198  |   1.8 |  0.09
Modify  | 0.1294     | 0.44967    | 1.9357     |  81.4 | 12.01
Other   |            | 0.129      |            |       |  3.44

Nlocal:        7.51562 ave          34 max           0 min
Histogram: 40 7 1 0 0 0 3 6 3 4
Nghost:         1820.7 ave        2421 max        1290 min
Histogram: 16 0 0 0 32 0 0 0 0 16
Neighs:              0 ave           0 max           0 min
Histogram: 64 0 0 0 0 0 0 0 0 0

Total # of neighbors = 0
Ave neighs/atom = 0
Ave special neighs/atom = 15.567568
Neighbor list builds = 18
Dangerous builds = 0
Generated 0 of 1 mixed pair_coeff terms from geometric mixing rule
Setting up Verlet run ...
  Unit style    : real
  Current step  : 2970000
  Time step     : 0.05
Per MPI rank memory allocation (min/avg/max) = 13.32 | 13.62 | 14.95 Mbytes
   Step          Temp          E_pair         E_mol          TotEng         Press     
   2970000   304.86212      377.406        18561.979      19375.579     -322.87312    
   2980000   311.97857      384.98983      18503.11       19334.475     -46.914453    
   2990000   305.42687      388.41285      18489.616      19315.03       120.46899    
   3000000   314.15178      381.77513      18483.362      19314.622     -68.354177    
   3010000   303.36495      385.41572      18508.723      19328.19       35.042401    
   3020000   303.80358      385.91682      18524.087      19344.683      22.975296    
Loop time of 19.7524 on 64 procs for 50000 steps with 481 atoms

Performance: 10.935 ns/day, 2.195 hours/ns, 2531.337 timesteps/s, 1.218 Matom-step/s
100.0% CPU use with 64 MPI tasks x 1 OpenMP threads

MPI task timing breakdown:
Section |  min time  |  avg time  |  max time  |%varavg| %total
---------------------------------------------------------------
Pair    | 0.017784   | 0.75979    | 4.994      | 157.6 |  3.85
Bond    | 0.0058776  | 0.85172    | 4.3175     | 152.6 |  4.31
Neigh   | 0.030033   | 0.033283   | 0.037446   |   0.9 |  0.17
Comm    | 9.0608     | 15.129     | 18.161     |  84.7 | 76.59
Output  | 0.0095632  | 0.01748    | 0.025166   |   3.8 |  0.09
Modify  | 0.72329    | 2.2757     | 9.9094     | 187.4 | 11.52
Other   |            | 0.6856     |            |       |  3.47

Nlocal:        7.51562 ave          34 max           0 min
Histogram: 41 6 1 0 1 1 1 5 3 5
Nghost:        1822.39 ave        2416 max        1290 min
Histogram: 16 0 0 0 32 0 0 0 0 16
Neighs:              0 ave           0 max           0 min
Histogram: 64 0 0 0 0 0 0 0 0 0

Total # of neighbors = 0
Ave neighs/atom = 0
Ave special neighs/atom = 15.567568
Neighbor list builds = 63
Dangerous builds = 0
Generated 0 of 1 mixed pair_coeff terms from geometric mixing rule
Setting up Verlet run ...
  Unit style    : real
  Current step  : 3020000
  Time step     : 0.05
Per MPI rank memory allocation (min/avg/max) = 13.32 | 13.62 | 14.95 Mbytes
   Step          Temp          E_pair         E_mol          TotEng         Press     
   3020000   303.80358      385.91682      18524.087      19344.683      22.975296    
   3030000   315.2741       374.45518      18522.146      19347.692     -371.02122    
Loop time of 3.97609 on 64 procs for 10000 steps with 481 atoms

Performance: 10.865 ns/day, 2.209 hours/ns, 2515.035 timesteps/s, 1.210 Matom-step/s
100.0% CPU use with 64 MPI tasks x 1 OpenMP threads

MPI task timing breakdown:
Section |  min time  |  avg time  |  max time  |%varavg| %total
---------------------------------------------------------------
Pair    | 0.0032848  | 0.14729    | 1.0616     |  70.6 |  3.70
Bond    | 0.0010645  | 0.16349    | 0.8012     |  67.1 |  4.11
Neigh   | 0.0038652  | 0.0042654  | 0.0047988  |   0.3 |  0.11
Comm    | 1.7939     | 3.0493     | 3.6627     |  38.6 | 76.69
Output  | 0.0016224  | 0.0032766  | 0.0049093  |   1.8 |  0.08
Modify  | 0.14846    | 0.47844    | 2.0342     |  86.9 | 12.03
Other   |            | 0.13       |            |       |  3.27

Nlocal:        7.51562 ave          37 max           0 min
Histogram: 41 7 0 0 0 4 1 5 5 1
Nghost:        1821.64 ave        2413 max        1287 min
Histogram: 16 0 0 0 32 0 0 0 0 16
Neighs:              0 ave           0 max           0 min
Histogram: 64 0 0 0 0 0 0 0 0 0

Total # of neighbors = 0
Ave neighs/atom = 0
Ave special neighs/atom = 15.567568
Neighbor list builds = 8
Dangerous builds = 0
Generated 0 of 1 mixed pair_coeff terms from geometric mixing rule
Setting up Verlet run ...
  Unit style    : real
  Current step  : 3030000
  Time step     : 0.05
Per MPI rank memory allocation (min/avg/max) = 13.32 | 13.62 | 14.95 Mbytes
   Step          Temp          E_pair         E_mol          TotEng         Press     
   3030000   315.2741       374.45518      18522.146      19347.692     -371.02122    
   3040000   301.86154      378.88096      18523.72       19334.501     -89.17978     
   3050000   287.28635      384.78038      18498.907      19294.734      27.442158    
   3060000   298.79038      381.18749      18473.774      19282.467     -56.681486    
   3070000   301.09015      385.82496      18510.277      19326.898      79.2665      
   3080000   305.3322       390.0488       18521.631      19348.546      95.322786    
Loop time of 18.7785 on 64 procs for 50000 steps with 481 atoms

Performance: 11.503 ns/day, 2.086 hours/ns, 2662.622 timesteps/s, 1.281 Matom-step/s
100.0% CPU use with 64 MPI tasks x 1 OpenMP threads

MPI task timing breakdown:
Section |  min time  |  avg time  |  max time  |%varavg| %total
---------------------------------------------------------------
Pair    | 0.01738    | 0.71133    | 4.7646     | 151.6 |  3.79
Bond    | 0.0056831  | 0.79988    | 3.8746     | 146.7 |  4.26
Neigh   | 0.027584   | 0.030906   | 0.03453    |   0.9 |  0.16
Comm    | 8.778      | 14.375     | 17.227     |  80.0 | 76.55
Output  | 0.0093394  | 0.017352   | 0.025033   |   3.8 |  0.09
Modify  | 0.68365    | 2.1756     | 9.0459     | 174.0 | 11.59
Other   |            | 0.6684     |            |       |  3.56

Nlocal:        7.51562 ave          37 max           0 min
Histogram: 40 8 0 1 1 1 3 3 4 3
Nghost:        1822.11 ave        2413 max        1290 min
Histogram: 16 0 0 0 32 0 0 0 0 16
Neighs:              0 ave           0 max           0 min
Histogram: 64 0 0 0 0 0 0 0 0 0

Total # of neighbors = 0
Ave neighs/atom = 0
Ave special neighs/atom = 15.567568
Neighbor list builds = 61
Dangerous builds = 0
Total wall time: 0:19:06
