LAMMPS (27 Jun 2024)
OMP_NUM_THREADS environment is not set. Defaulting to 1 thread. (src/comm.cpp:98)
  using 1 OpenMP thread(s) per MPI task
Reading data file ...
  orthogonal box = (-30 -30 -30) to (30 30 30)
  4 by 4 by 4 MPI processor grid
  reading atoms ...
  480 atoms
  reading velocities ...
  480 velocities
  scanning bonds ...
  2 = max bonds/atom
  scanning angles ...
  3 = max angles/atom
  scanning dihedrals ...
  8 = max dihedrals/atom
  scanning impropers ...
  2 = max impropers/atom
  orthogonal box = (-30 -30 -30) to (30 30 30)
  4 by 4 by 4 MPI processor grid
  reading bonds ...
  676 bonds
  reading angles ...
  1268 angles
  reading dihedrals ...
  2394 dihedrals
  reading impropers ...
  396 impropers
Finding 1-2 1-3 1-4 neighbors ...
  special bond factors lj:    0        0        0       
  special bond factors coul:  0        0        0       
     3 = max # of 1-2 neighbors
     6 = max # of 1-3 neighbors
    18 = max # of 1-4 neighbors
    18 = max # of special neighbors
  special bonds CPU = 0.003 seconds
  read_data CPU = 0.050 seconds
Finding 1-2 1-3 1-4 neighbors ...
  special bond factors lj:    0        0        0.5     
  special bond factors coul:  0        0        0       
     3 = max # of 1-2 neighbors
     6 = max # of 1-3 neighbors
    18 = max # of 1-4 neighbors
    18 = max # of special neighbors
  special bonds CPU = 0.001 seconds
Created 1 atoms
  using lattice units in orthogonal box = (-30 -30 -30) to (30 30 30)
  create_atoms CPU = 0.000 seconds
480 atoms in group C
1 atoms in group H2

CITE-CITE-CITE-CITE-CITE-CITE-CITE-CITE-CITE-CITE-CITE-CITE-CITE

Your simulation uses code contributions which should be cited:
- Type Label Framework: https://doi.org/10.1021/acs.jpcb.3c08419
The log file lists these citations in BibTeX format.

CITE-CITE-CITE-CITE-CITE-CITE-CITE-CITE-CITE-CITE-CITE-CITE-CITE

Generated 0 of 1 mixed pair_coeff terms from geometric mixing rule
Neighbor list info ...
  update: every = 1 steps, delay = 3 steps, check = yes
  max neighbors/atom: 6000, page size: 100000
  master list distance cutoff = 31
  ghost atom cutoff = 31
  binsize = 15.5, bins = 4 4 4
  4 neighbor lists, perpetual/occasional/extra = 4 0 0
  (1) pair lj/cut, perpetual, skip trim from (4)
      attributes: half, newton on, cut 15
      pair build: skip/trim
      stencil: none
      bin: none
  (2) pair sg, perpetual, skip trim from (4)
      attributes: half, newton on, cut 16
      pair build: skip/trim
      stencil: none
      bin: none
  (3) pair cb, perpetual, skip from (4)
      attributes: half, newton on
      pair build: skip
      stencil: none
      bin: none
  (4) neighbor class addition, perpetual
      attributes: half, newton on
      pair build: half/bin/newton
      stencil: half/bin/3d
      bin: standard
Setting up Verlet run ...
  Unit style    : real
  Current step  : 0
  Time step     : 0.05
Per MPI rank memory allocation (min/avg/max) = 13.29 | 13.4 | 13.93 Mbytes
   Step          Temp          E_pair         E_mol          TotEng         Press          Volume    
         0   119            308.5124       19603.922      20082.698     -487.24171      216000       
     10000   157.12683      383.731        18329.367      18937.913      23.537262      166726.67    
     20000   115.81969      370.55671      18273.192      18809.462     -342.78831      116159.02    
Loop time of 7.68924 on 64 procs for 20000 steps with 481 atoms

Performance: 11.236 ns/day, 2.136 hours/ns, 2601.038 timesteps/s, 1.251 Matom-step/s
99.8% CPU use with 64 MPI tasks x 1 OpenMP threads

MPI task timing breakdown:
Section |  min time  |  avg time  |  max time  |%varavg| %total
---------------------------------------------------------------
Pair    | 0.14144    | 0.45628    | 2.28       |  74.9 |  5.93
Bond    | 0.0040098  | 0.35513    | 1.9064     | 102.1 |  4.62
Neigh   | 0.016464   | 0.018113   | 0.020006   |   0.7 |  0.24
Comm    | 2.5622     | 4.6383     | 5.5924     |  42.0 | 60.32
Output  | 0.003569   | 0.010913   | 0.019595   |   4.9 |  0.14
Modify  | 0.72362    | 1.8971     | 3.9764     |  71.3 | 24.67
Other   |            | 0.3134     |            |       |  4.08

Nlocal:        7.51562 ave          28 max           0 min
Histogram: 28 19 1 0 0 0 1 5 5 5
Nghost:         1931.8 ave        2520 max        1418 min
Histogram: 16 0 0 0 32 0 0 0 0 16
Neighs:              0 ave           0 max           0 min
Histogram: 64 0 0 0 0 0 0 0 0 0

Total # of neighbors = 0
Ave neighs/atom = 0
Ave special neighs/atom = 15.567568
Neighbor list builds = 43
Dangerous builds = 0
Generated 0 of 1 mixed pair_coeff terms from geometric mixing rule
Setting up Verlet run ...
  Unit style    : real
  Current step  : 20000
  Time step     : 0.05
Per MPI rank memory allocation (min/avg/max) = 13.32 | 13.62 | 14.95 Mbytes
   Step          Temp          E_pair         E_mol          TotEng         Press     
     20000   115.81969      370.55671      18273.192      18809.462     -342.78831    
     30000   106.90569      325.323        18420.878      18899.161     -1907.3695    
Loop time of 3.66971 on 64 procs for 10000 steps with 481 atoms

Performance: 11.772 ns/day, 2.039 hours/ns, 2725.011 timesteps/s, 1.311 Matom-step/s
99.9% CPU use with 64 MPI tasks x 1 OpenMP threads

MPI task timing breakdown:
Section |  min time  |  avg time  |  max time  |%varavg| %total
---------------------------------------------------------------
Pair    | 0.0033179  | 0.14498    | 1.021      |  60.4 |  3.95
Bond    | 0.0010629  | 0.16067    | 0.92132    |  62.3 |  4.38
Neigh   | 0.023543   | 0.026241   | 0.028536   |   0.8 |  0.72
Comm    | 1.6343     | 2.9998     | 3.3219     |  26.1 | 81.75
Output  | 0.0013944  | 0.004039   | 0.0069246  |   2.8 |  0.11
Modify  | 0.12302    | 0.20465    | 0.28986    |   8.9 |  5.58
Other   |            | 0.1293     |            |       |  3.52

Nlocal:        7.51562 ave          30 max           0 min
Histogram: 28 20 0 0 0 1 3 5 2 5
Nghost:        1927.02 ave        2516 max        1416 min
Histogram: 16 0 0 0 32 0 0 0 0 16
Neighs:              0 ave           0 max           0 min
Histogram: 64 0 0 0 0 0 0 0 0 0

Total # of neighbors = 0
Ave neighs/atom = 0
Ave special neighs/atom = 15.567568
Neighbor list builds = 64
Dangerous builds = 0
Generated 0 of 1 mixed pair_coeff terms from geometric mixing rule
Setting up Verlet run ...
  Unit style    : real
  Current step  : 30000
  Time step     : 0.05
Per MPI rank memory allocation (min/avg/max) = 13.32 | 13.62 | 14.95 Mbytes
   Step          Temp          E_pair         E_mol          TotEng         Press     
     30000   106.90569      325.323        18420.878      18899.161     -1907.3695    
     40000   121.74801      415.03951      18301.339      18890.574      1018.5028    
     50000   110.72571      402.1636       18323.625      18884.214      648.24388    
     60000   131.35416      352.86981      18364.629      18905.439     -789.2261     
     70000   107.22341      365.13731      18375.49       18894.041     -384.75505    
     80000   136.19796      382.4874       18325.655      18903.013      88.929273    
Loop time of 18.3068 on 64 procs for 50000 steps with 481 atoms

Performance: 11.799 ns/day, 2.034 hours/ns, 2731.219 timesteps/s, 1.314 Matom-step/s
100.0% CPU use with 64 MPI tasks x 1 OpenMP threads

MPI task timing breakdown:
Section |  min time  |  avg time  |  max time  |%varavg| %total
---------------------------------------------------------------
Pair    | 0.016732   | 0.71171    | 5.1284     | 133.9 |  3.89
Bond    | 0.0053555  | 0.80463    | 4.49       | 139.4 |  4.40
Neigh   | 0.071854   | 0.080469   | 0.087609   |   1.4 |  0.44
Comm    | 8.2556     | 15.072     | 16.637     |  57.4 | 82.33
Output  | 0.0069932  | 0.01741    | 0.028145   |   5.1 |  0.10
Modify  | 0.65547    | 0.97659    | 1.5962     |  20.0 |  5.33
Other   |            | 0.6435     |            |       |  3.52

Nlocal:        7.51562 ave          27 max           0 min
Histogram: 29 17 2 0 0 0 1 2 6 7
Nghost:        1933.58 ave        2524 max        1416 min
Histogram: 16 0 0 0 32 0 0 0 0 16
Neighs:              0 ave           0 max           0 min
Histogram: 64 0 0 0 0 0 0 0 0 0

Total # of neighbors = 0
Ave neighs/atom = 0
Ave special neighs/atom = 15.567568
Neighbor list builds = 194
Dangerous builds = 0
Generated 0 of 1 mixed pair_coeff terms from geometric mixing rule
Setting up Verlet run ...
  Unit style    : real
  Current step  : 80000
  Time step     : 0.05
Per MPI rank memory allocation (min/avg/max) = 13.32 | 13.62 | 14.95 Mbytes
   Step          Temp          E_pair         E_mol          TotEng         Press     
     80000   136.19796      382.4874       18325.655      18903.013      88.929273    
     90000   108.38667      398.52887      18343.882      18897.489      466.61823    
Loop time of 3.68188 on 64 procs for 10000 steps with 481 atoms

Performance: 11.733 ns/day, 2.045 hours/ns, 2716.007 timesteps/s, 1.306 Matom-step/s
100.0% CPU use with 64 MPI tasks x 1 OpenMP threads

MPI task timing breakdown:
Section |  min time  |  avg time  |  max time  |%varavg| %total
---------------------------------------------------------------
Pair    | 0.0032938  | 0.14254    | 1.0711     |  60.0 |  3.87
Bond    | 0.001079   | 0.16084    | 0.87201    |  62.0 |  4.37
Neigh   | 0.01169    | 0.013062   | 0.014182   |   0.6 |  0.35
Comm    | 1.6259     | 3.0447     | 3.3464     |  25.6 | 82.69
Output  | 0.001357   | 0.0030293  | 0.004736   |   1.9 |  0.08
Modify  | 0.12712    | 0.18866    | 0.26339    |   7.6 |  5.12
Other   |            | 0.1291     |            |       |  3.51

Nlocal:        7.51562 ave          29 max           0 min
Histogram: 29 18 1 0 0 0 3 4 5 4
Nghost:        1933.58 ave        2524 max        1416 min
Histogram: 16 0 0 0 32 0 0 0 0 16
Neighs:              0 ave           0 max           0 min
Histogram: 64 0 0 0 0 0 0 0 0 0

Total # of neighbors = 0
Ave neighs/atom = 0
Ave special neighs/atom = 15.567568
Neighbor list builds = 31
Dangerous builds = 0
Generated 0 of 1 mixed pair_coeff terms from geometric mixing rule
Setting up Verlet run ...
  Unit style    : real
  Current step  : 90000
  Time step     : 0.05
Per MPI rank memory allocation (min/avg/max) = 13.32 | 13.62 | 14.95 Mbytes
   Step          Temp          E_pair         E_mol          TotEng         Press     
     90000   108.38667      398.52887      18343.882      18897.489      466.61823    
    100000   123.60925      394.78155      18324.14       18895.781      361.90315    
    110000   107.41811      353.96859      18382.175      18889.836     -892.93099    
    120000   127.83889      373.44998      18338.313      18894.674     -169.93616    
    130000   116.07605      390.63813      18336.928      18893.647      251.81686    
    140000   107.78023      374.49709      18347.054      18875.762     -163.71851    
Loop time of 19.204 on 64 procs for 50000 steps with 481 atoms

Performance: 11.248 ns/day, 2.134 hours/ns, 2603.624 timesteps/s, 1.252 Matom-step/s
100.0% CPU use with 64 MPI tasks x 1 OpenMP threads

MPI task timing breakdown:
Section |  min time  |  avg time  |  max time  |%varavg| %total
---------------------------------------------------------------
Pair    | 0.018084   | 0.72002    | 5.6401     | 138.4 |  3.75
Bond    | 0.0053904  | 0.80462    | 4.4198     | 139.2 |  4.19
Neigh   | 0.04719    | 0.052539   | 0.056925   |   1.1 |  0.27
Comm    | 8.4274     | 16.028     | 17.583     |  56.7 | 83.46
Output  | 0.0072263  | 0.015159   | 0.022926   |   4.0 |  0.08
Modify  | 0.63374    | 0.94518    | 1.447      |  19.1 |  4.92
Other   |            | 0.6381     |            |       |  3.32

Nlocal:        7.51562 ave          36 max           0 min
Histogram: 36 12 1 5 1 1 0 0 2 6
Nghost:        1933.58 ave        2524 max        1408 min
Histogram: 16 0 0 0 32 0 0 0 0 16
Neighs:              0 ave           0 max           0 min
Histogram: 64 0 0 0 0 0 0 0 0 0

Total # of neighbors = 0
Ave neighs/atom = 0
Ave special neighs/atom = 15.567568
Neighbor list builds = 116
Dangerous builds = 0
Generated 0 of 1 mixed pair_coeff terms from geometric mixing rule
Setting up Verlet run ...
  Unit style    : real
  Current step  : 140000
  Time step     : 0.05
Per MPI rank memory allocation (min/avg/max) = 13.32 | 13.62 | 14.95 Mbytes
   Step          Temp          E_pair         E_mol          TotEng         Press     
    140000   107.78023      374.49709      18347.054      18875.762     -163.71851    
    150000   121.37321      378.96938      18337.71       18890.339      25.792319    
Loop time of 3.91099 on 64 procs for 10000 steps with 481 atoms

Performance: 11.046 ns/day, 2.173 hours/ns, 2556.897 timesteps/s, 1.230 Matom-step/s
100.0% CPU use with 64 MPI tasks x 1 OpenMP threads

MPI task timing breakdown:
Section |  min time  |  avg time  |  max time  |%varavg| %total
---------------------------------------------------------------
Pair    | 0.0031556  | 0.14381    | 1.0542     |  61.5 |  3.68
Bond    | 0.0011171  | 0.1619     | 0.92721    |  62.6 |  4.14
Neigh   | 0.0083667  | 0.0093781  | 0.010157   |   0.5 |  0.24
Comm    | 1.8714     | 3.2757     | 3.5881     |  25.2 | 83.76
Output  | 0.0015017  | 0.002977   | 0.004452   |   1.7 |  0.08
Modify  | 0.13605    | 0.18905    | 0.30204    |   8.0 |  4.83
Other   |            | 0.1282     |            |       |  3.28

Nlocal:        7.51562 ave          36 max           0 min
Histogram: 36 12 0 4 0 4 2 0 4 2
Nghost:        1932.55 ave        2521 max        1411 min
Histogram: 16 0 0 0 32 0 0 0 0 16
Neighs:              0 ave           0 max           0 min
Histogram: 64 0 0 0 0 0 0 0 0 0

Total # of neighbors = 0
Ave neighs/atom = 0
Ave special neighs/atom = 15.567568
Neighbor list builds = 20
Dangerous builds = 0
Generated 0 of 1 mixed pair_coeff terms from geometric mixing rule
Setting up Verlet run ...
  Unit style    : real
  Current step  : 150000
  Time step     : 0.05
Per MPI rank memory allocation (min/avg/max) = 13.32 | 13.62 | 14.95 Mbytes
   Step          Temp          E_pair         E_mol          TotEng         Press     
    150000   121.37321      378.96938      18337.71       18890.339      25.792319    
    160000   125.28547      366.23975      18355.404      18900.901     -449.81425    
    170000   118.72998      371.52359      18338.476      18879.877     -186.81367    
    180000   115.72851      389.1573       18334.933      18889.673      231.03681    
    190000   122.43543      383.57947      18353.526      18912.284      88.175261    
    200000   123.71605      375.44124      18355.342      18907.795     -144.18182    
Loop time of 18.6864 on 64 procs for 50000 steps with 481 atoms

Performance: 11.559 ns/day, 2.076 hours/ns, 2675.739 timesteps/s, 1.287 Matom-step/s
100.0% CPU use with 64 MPI tasks x 1 OpenMP threads

MPI task timing breakdown:
Section |  min time  |  avg time  |  max time  |%varavg| %total
---------------------------------------------------------------
Pair    | 0.015971   | 0.71907    | 5.594      | 138.0 |  3.85
Bond    | 0.0053667  | 0.80424    | 4.4223     | 139.0 |  4.30
Neigh   | 0.045143   | 0.050491   | 0.054899   |   1.1 |  0.27
Comm    | 7.9964     | 15.529     | 17.079     |  57.5 | 83.10
Output  | 0.007334   | 0.014549   | 0.021642   |   3.8 |  0.08
Modify  | 0.6618     | 0.93157    | 1.4299     |  18.3 |  4.99
Other   |            | 0.6374     |            |       |  3.41

Nlocal:        7.51562 ave          28 max           0 min
Histogram: 27 20 1 0 0 0 4 2 4 6
Nghost:        1931.78 ave        2522 max        1416 min
Histogram: 16 0 0 0 32 0 0 0 0 16
Neighs:              0 ave           0 max           0 min
Histogram: 64 0 0 0 0 0 0 0 0 0

Total # of neighbors = 0
Ave neighs/atom = 0
Ave special neighs/atom = 15.567568
Neighbor list builds = 116
Dangerous builds = 0
Generated 0 of 1 mixed pair_coeff terms from geometric mixing rule
Setting up Verlet run ...
  Unit style    : real
  Current step  : 200000
  Time step     : 0.05
Per MPI rank memory allocation (min/avg/max) = 13.32 | 13.62 | 14.95 Mbytes
   Step          Temp          E_pair         E_mol          TotEng         Press     
    200000   123.71605      375.44124      18355.342      18907.795     -144.18182    
    210000   121.21134      365.49078      18353.898      18892.817     -462.31985    
Loop time of 3.66677 on 64 procs for 10000 steps with 481 atoms

Performance: 11.781 ns/day, 2.037 hours/ns, 2727.193 timesteps/s, 1.312 Matom-step/s
100.0% CPU use with 64 MPI tasks x 1 OpenMP threads

MPI task timing breakdown:
Section |  min time  |  avg time  |  max time  |%varavg| %total
---------------------------------------------------------------
Pair    | 0.0031583  | 0.14389    | 1.0596     |  62.0 |  3.92
Bond    | 0.0010641  | 0.16063    | 0.92341    |  62.4 |  4.38
Neigh   | 0.0063371  | 0.0070929  | 0.0077135  |   0.4 |  0.19
Comm    | 1.6152     | 3.0247     | 3.3483     |  26.1 | 82.49
Output  | 0.0013747  | 0.0028054  | 0.0042254  |   1.7 |  0.08
Modify  | 0.12302    | 0.1996     | 0.31794    |  10.2 |  5.44
Other   |            | 0.1281     |            |       |  3.49

Nlocal:        7.51562 ave          32 max           0 min
Histogram: 34 14 0 0 0 4 3 3 2 4
Nghost:        1931.61 ave        2524 max        1412 min
Histogram: 16 0 0 0 32 0 0 0 0 16
Neighs:              0 ave           0 max           0 min
Histogram: 64 0 0 0 0 0 0 0 0 0

Total # of neighbors = 0
Ave neighs/atom = 0
Ave special neighs/atom = 15.567568
Neighbor list builds = 17
Dangerous builds = 0
Generated 0 of 1 mixed pair_coeff terms from geometric mixing rule
Setting up Verlet run ...
  Unit style    : real
  Current step  : 210000
  Time step     : 0.05
Per MPI rank memory allocation (min/avg/max) = 13.32 | 13.62 | 14.95 Mbytes
   Step          Temp          E_pair         E_mol          TotEng         Press     
    210000   121.21134      365.49078      18353.898      18892.817     -462.31985    
    220000   116.32291      368.73286      18346.691      18881.858     -299.93759    
    230000   123.85519      398.76932      18326.021      18902          583.06329    
    240000   134.55106      374.61295      18348.164      18915.291     -91.380745    
    250000   121.64649      352.42032      18383.627      18910.098     -961.25207    
    260000   126.6985       396.17952      18319.376      18896.835      506.31364    
Loop time of 18.1105 on 64 procs for 50000 steps with 481 atoms

Performance: 11.927 ns/day, 2.012 hours/ns, 2760.831 timesteps/s, 1.328 Matom-step/s
100.0% CPU use with 64 MPI tasks x 1 OpenMP threads

MPI task timing breakdown:
Section |  min time  |  avg time  |  max time  |%varavg| %total
---------------------------------------------------------------
Pair    | 0.015749   | 0.72071    | 5.4128     | 138.0 |  3.98
Bond    | 0.0053455  | 0.80517    | 4.4661     | 139.2 |  4.45
Neigh   | 0.030397   | 0.034258   | 0.037323   |   1.0 |  0.19
Comm    | 7.7207     | 14.947     | 16.516     |  58.7 | 82.53
Output  | 0.006841   | 0.01408    | 0.02111    |   3.8 |  0.08
Modify  | 0.60366    | 0.94984    | 1.4759     |  19.6 |  5.24
Other   |            | 0.639      |            |       |  3.53

Nlocal:        7.51562 ave          30 max           0 min
Histogram: 30 14 4 0 0 1 1 5 7 2
Nghost:        1934.12 ave        2524 max        1416 min
Histogram: 16 0 0 0 32 0 0 0 0 16
Neighs:              0 ave           0 max           0 min
Histogram: 64 0 0 0 0 0 0 0 0 0

Total # of neighbors = 0
Ave neighs/atom = 0
Ave special neighs/atom = 15.567568
Neighbor list builds = 83
Dangerous builds = 0
Generated 0 of 1 mixed pair_coeff terms from geometric mixing rule
Setting up Verlet run ...
  Unit style    : real
  Current step  : 260000
  Time step     : 0.05
Per MPI rank memory allocation (min/avg/max) = 13.32 | 13.62 | 14.95 Mbytes
   Step          Temp          E_pair         E_mol          TotEng         Press     
    260000   126.6985       396.17952      18319.376      18896.835      506.31364    
    270000   116.14898      391.05349      18330.371      18887.609      226.86417    
Loop time of 3.65952 on 64 procs for 10000 steps with 481 atoms

Performance: 11.805 ns/day, 2.033 hours/ns, 2732.597 timesteps/s, 1.314 Matom-step/s
100.0% CPU use with 64 MPI tasks x 1 OpenMP threads

MPI task timing breakdown:
Section |  min time  |  avg time  |  max time  |%varavg| %total
---------------------------------------------------------------
Pair    | 0.0031075  | 0.14477    | 1.1189     |  62.3 |  3.96
Bond    | 0.0010703  | 0.1608     | 0.88841    |  62.1 |  4.39
Neigh   | 0.0042958  | 0.0047459  | 0.0051312  |   0.3 |  0.13
Comm    | 1.5273     | 3.0242     | 3.3387     |  26.2 | 82.64
Output  | 0.0013739  | 0.0027603  | 0.0041407  |   1.6 |  0.08
Modify  | 0.12133    | 0.19371    | 0.32538    |   9.1 |  5.29
Other   |            | 0.1285     |            |       |  3.51

Nlocal:        7.51562 ave          31 max           0 min
Histogram: 37 11 0 0 0 4 1 5 1 5
Nghost:        1933.58 ave        2524 max        1413 min
Histogram: 16 0 0 0 32 0 0 0 0 16
Neighs:              0 ave           0 max           0 min
Histogram: 64 0 0 0 0 0 0 0 0 0

Total # of neighbors = 0
Ave neighs/atom = 0
Ave special neighs/atom = 15.567568
Neighbor list builds = 11
Dangerous builds = 0
Generated 0 of 1 mixed pair_coeff terms from geometric mixing rule
Setting up Verlet run ...
  Unit style    : real
  Current step  : 270000
  Time step     : 0.05
Per MPI rank memory allocation (min/avg/max) = 13.32 | 13.62 | 14.95 Mbytes
   Step          Temp          E_pair         E_mol          TotEng         Press     
    270000   116.14898      391.05349      18330.371      18887.609      226.86417    
    280000   131.32942      372.71757      18333.05       18893.673     -163.99787    
    290000   112.36023      376.77825      18364.779      18902.321     -129.62944    
    300000   124.63445      373.65916      18355.195      18907.18      -221.17495    
    310000   124.08095      391.64853      18326.974      18896.156      365.04502    
    320000   113.33144      384.21323      18334.939      18881.306      83.184505    
Loop time of 18.29 on 64 procs for 50000 steps with 481 atoms

Performance: 11.810 ns/day, 2.032 hours/ns, 2733.731 timesteps/s, 1.315 Matom-step/s
100.0% CPU use with 64 MPI tasks x 1 OpenMP threads

MPI task timing breakdown:
Section |  min time  |  avg time  |  max time  |%varavg| %total
---------------------------------------------------------------
Pair    | 0.01782    | 0.71473    | 5.2674     | 136.7 |  3.91
Bond    | 0.0053444  | 0.80069    | 4.4877     | 138.6 |  4.38
Neigh   | 0.019907   | 0.022477   | 0.024489   |   0.8 |  0.12
Comm    | 8.1293     | 15.144     | 16.722     |  57.7 | 82.80
Output  | 0.0069632  | 0.014129   | 0.021105   |   3.8 |  0.08
Modify  | 0.59709    | 0.95477    | 1.6075     |  20.1 |  5.22
Other   |            | 0.6394     |            |       |  3.50

Nlocal:        7.51562 ave          29 max           0 min
Histogram: 28 18 2 0 0 1 1 5 6 3
Nghost:        1934.12 ave        2524 max        1418 min
Histogram: 16 0 0 0 32 0 0 0 0 16
Neighs:              0 ave           0 max           0 min
Histogram: 64 0 0 0 0 0 0 0 0 0

Total # of neighbors = 0
Ave neighs/atom = 0
Ave special neighs/atom = 15.567568
Neighbor list builds = 53
Dangerous builds = 0
Generated 0 of 1 mixed pair_coeff terms from geometric mixing rule
Setting up Verlet run ...
  Unit style    : real
  Current step  : 320000
  Time step     : 0.05
Per MPI rank memory allocation (min/avg/max) = 13.32 | 13.62 | 14.95 Mbytes
   Step          Temp          E_pair         E_mol          TotEng         Press     
    320000   113.33144      384.21323      18334.939      18881.306      83.184505    
    330000   119.32989      352.97467      18369.578      18893.288     -887.96364    
Loop time of 3.70753 on 64 procs for 10000 steps with 481 atoms

Performance: 11.652 ns/day, 2.060 hours/ns, 2697.214 timesteps/s, 1.297 Matom-step/s
100.0% CPU use with 64 MPI tasks x 1 OpenMP threads

MPI task timing breakdown:
Section |  min time  |  avg time  |  max time  |%varavg| %total
---------------------------------------------------------------
Pair    | 0.0033989  | 0.13814    | 1.1613     |  60.8 |  3.73
Bond    | 0.0010639  | 0.15739    | 0.85539    |  61.6 |  4.25
Neigh   | 0.0030376  | 0.003509   | 0.0038131  |   0.3 |  0.09
Comm    | 1.5156     | 3.0859     | 3.3972     |  25.0 | 83.23
Output  | 0.0013675  | 0.0028507  | 0.0042929  |   1.7 |  0.08
Modify  | 0.1119     | 0.19135    | 0.35034    |  10.0 |  5.16
Other   |            | 0.1284     |            |       |  3.46

Nlocal:        7.51562 ave          33 max           0 min
Histogram: 37 10 1 0 2 2 4 3 2 3
Nghost:        1934.12 ave        2522 max        1415 min
Histogram: 16 0 0 0 32 0 0 0 0 16
Neighs:              0 ave           0 max           0 min
Histogram: 64 0 0 0 0 0 0 0 0 0

Total # of neighbors = 0
Ave neighs/atom = 0
Ave special neighs/atom = 15.567568
Neighbor list builds = 8
Dangerous builds = 0
Generated 0 of 1 mixed pair_coeff terms from geometric mixing rule
Setting up Verlet run ...
  Unit style    : real
  Current step  : 330000
  Time step     : 0.05
Per MPI rank memory allocation (min/avg/max) = 13.32 | 13.62 | 14.95 Mbytes
   Step          Temp          E_pair         E_mol          TotEng         Press     
    330000   119.32989      352.97467      18369.578      18893.288     -887.96364    
    340000   124.54969      386.78768      18335.316      18900.308      113.33086    
    350000   123.15003      386.78212      18330.203      18893.187      118.8442     
    360000   113.88599      366.19558      18358.361      18887.503     -461.31449    
    370000   121.51474      385.97472      18324.014      18883.85       260.78431    
    380000   114.96973      372.51116      18353.868      18890.876     -301.33817    
Loop time of 18.2079 on 64 procs for 50000 steps with 481 atoms

Performance: 11.863 ns/day, 2.023 hours/ns, 2746.058 timesteps/s, 1.321 Matom-step/s
100.0% CPU use with 64 MPI tasks x 1 OpenMP threads

MPI task timing breakdown:
Section |  min time  |  avg time  |  max time  |%varavg| %total
---------------------------------------------------------------
Pair    | 0.016275   | 0.6868     | 5.4453     | 134.3 |  3.77
Bond    | 0.0054141  | 0.78595    | 4.5269     | 137.8 |  4.32
Neigh   | 0.014788   | 0.01732    | 0.018841   |   0.8 |  0.10
Comm    | 7.7359     | 15.105     | 16.608     |  56.3 | 82.96
Output  | 0.0070376  | 0.014075   | 0.020995   |   3.7 |  0.08
Modify  | 0.60425    | 0.95592    | 1.2765     |  17.0 |  5.25
Other   |            | 0.6433     |            |       |  3.53

Nlocal:        7.51562 ave          36 max           0 min
Histogram: 37 11 0 1 1 3 5 3 1 2
Nghost:        1934.12 ave        2522 max        1410 min
Histogram: 16 0 0 0 32 0 0 0 0 16
Neighs:              0 ave           0 max           0 min
Histogram: 64 0 0 0 0 0 0 0 0 0

Total # of neighbors = 0
Ave neighs/atom = 0
Ave special neighs/atom = 15.567568
Neighbor list builds = 41
Dangerous builds = 0
Generated 0 of 1 mixed pair_coeff terms from geometric mixing rule
Setting up Verlet run ...
  Unit style    : real
  Current step  : 380000
  Time step     : 0.05
Per MPI rank memory allocation (min/avg/max) = 13.32 | 13.62 | 14.95 Mbytes
   Step          Temp          E_pair         E_mol          TotEng         Press     
    380000   114.96973      372.51116      18353.868      18890.876     -301.33817    
    390000   122.35003      373.37085      18342.264      18890.692     -160.41677    
Loop time of 3.57221 on 64 procs for 10000 steps with 481 atoms

Performance: 12.093 ns/day, 1.985 hours/ns, 2799.391 timesteps/s, 1.347 Matom-step/s
100.0% CPU use with 64 MPI tasks x 1 OpenMP threads

MPI task timing breakdown:
Section |  min time  |  avg time  |  max time  |%varavg| %total
---------------------------------------------------------------
Pair    | 0.0031998  | 0.13713    | 1.0712     |  59.7 |  3.84
Bond    | 0.0011056  | 0.15705    | 0.89796    |  61.5 |  4.40
Neigh   | 0.0032348  | 0.0037605  | 0.0040989  |   0.4 |  0.11
Comm    | 1.5186     | 2.9535     | 3.2485     |  25.2 | 82.68
Output  | 0.0013544  | 0.0027442  | 0.004133   |   1.7 |  0.08
Modify  | 0.11986    | 0.18944    | 0.34081    |   9.8 |  5.30
Other   |            | 0.1286     |            |       |  3.60

Nlocal:        7.51562 ave          27 max           0 min
Histogram: 32 13 3 0 0 0 1 3 4 8
Nghost:        1933.58 ave        2524 max        1418 min
Histogram: 16 0 0 0 32 0 0 0 0 16
Neighs:              0 ave           0 max           0 min
Histogram: 64 0 0 0 0 0 0 0 0 0

Total # of neighbors = 0
Ave neighs/atom = 0
Ave special neighs/atom = 15.567568
Neighbor list builds = 9
Dangerous builds = 0
Generated 0 of 1 mixed pair_coeff terms from geometric mixing rule
Setting up Verlet run ...
  Unit style    : real
  Current step  : 390000
  Time step     : 0.05
Per MPI rank memory allocation (min/avg/max) = 13.32 | 13.62 | 14.95 Mbytes
   Step          Temp          E_pair         E_mol          TotEng         Press     
    390000   122.35003      373.37085      18342.264      18890.692     -160.41677    
    400000   112.75952      385.09668      18333.646      18880.077      179.83816    
    410000   119.54049      377.17073      18344.101      18892.308     -153.98934    
    420000   132.67098      377.99829      18345.664      18913.487     -84.074091    
    430000   119.51262      372.02345      18355.399      18898.42      -282.37975    
    440000   120.5584       371.66013      18339.407      18883.561     -129.78668    
Loop time of 17.7854 on 64 procs for 50000 steps with 481 atoms

Performance: 12.145 ns/day, 1.976 hours/ns, 2811.300 timesteps/s, 1.352 Matom-step/s
100.0% CPU use with 64 MPI tasks x 1 OpenMP threads

MPI task timing breakdown:
Section |  min time  |  avg time  |  max time  |%varavg| %total
---------------------------------------------------------------
Pair    | 0.016249   | 0.68684    | 5.3731     | 133.2 |  3.86
Bond    | 0.0055434  | 0.78477    | 4.3203     | 137.2 |  4.41
Neigh   | 0.010785   | 0.012687   | 0.013843   |   0.7 |  0.07
Comm    | 7.4896     | 14.698     | 16.179     |  56.4 | 82.64
Output  | 0.0068925  | 0.013967   | 0.020898   |   3.8 |  0.08
Modify  | 0.6043     | 0.94528    | 1.6836     |  21.1 |  5.31
Other   |            | 0.6434     |            |       |  3.62

Nlocal:        7.51562 ave          33 max           0 min
Histogram: 35 13 0 0 1 3 5 1 3 3
Nghost:        1931.78 ave        2516 max        1410 min
Histogram: 16 0 0 0 32 0 0 0 0 16
Neighs:              0 ave           0 max           0 min
Histogram: 64 0 0 0 0 0 0 0 0 0

Total # of neighbors = 0
Ave neighs/atom = 0
Ave special neighs/atom = 15.567568
Neighbor list builds = 31
Dangerous builds = 0
Generated 0 of 1 mixed pair_coeff terms from geometric mixing rule
Setting up Verlet run ...
  Unit style    : real
  Current step  : 440000
  Time step     : 0.05
Per MPI rank memory allocation (min/avg/max) = 13.32 | 13.62 | 14.95 Mbytes
   Step          Temp          E_pair         E_mol          TotEng         Press     
    440000   120.5584       371.66013      18339.407      18883.561     -129.78668    
    450000   115.08488      387.56613      18341.037      18893.265      160.8793     
Loop time of 3.57926 on 64 procs for 10000 steps with 481 atoms

Performance: 12.070 ns/day, 1.988 hours/ns, 2793.876 timesteps/s, 1.344 Matom-step/s
100.0% CPU use with 64 MPI tasks x 1 OpenMP threads

MPI task timing breakdown:
Section |  min time  |  avg time  |  max time  |%varavg| %total
---------------------------------------------------------------
Pair    | 0.0033512  | 0.13678    | 1.0143     |  58.9 |  3.82
Bond    | 0.0010699  | 0.15652    | 0.89266    |  61.2 |  4.37
Neigh   | 0.001804   | 0.0020923  | 0.0022732  |   0.3 |  0.06
Comm    | 1.6171     | 2.9468     | 3.2637     |  25.0 | 82.33
Output  | 0.0013852  | 0.0027815  | 0.0041847  |   1.7 |  0.08
Modify  | 0.12129    | 0.20612    | 0.65393    |  20.3 |  5.76
Other   |            | 0.1281     |            |       |  3.58

Nlocal:        7.51562 ave          31 max           0 min
Histogram: 34 14 0 0 2 1 1 5 3 4
Nghost:         1931.8 ave        2524 max        1414 min
Histogram: 16 0 0 0 32 0 0 0 0 16
Neighs:              0 ave           0 max           0 min
Histogram: 64 0 0 0 0 0 0 0 0 0

Total # of neighbors = 0
Ave neighs/atom = 0
Ave special neighs/atom = 15.567568
Neighbor list builds = 5
Dangerous builds = 0
Generated 0 of 1 mixed pair_coeff terms from geometric mixing rule
Setting up Verlet run ...
  Unit style    : real
  Current step  : 450000
  Time step     : 0.05
Per MPI rank memory allocation (min/avg/max) = 13.32 | 13.62 | 14.95 Mbytes
   Step          Temp          E_pair         E_mol          TotEng         Press     
    450000   115.08488      387.56613      18341.037      18893.265      160.8793     
    460000   131.27275      379.07639      18342.388      18909.288      39.180325    
    470000   116.63937      364.15959      18373.924      18904.97      -546.76621    
    480000   118.03665      378.88373      18340.1        18887.87      -20.869514    
    490000   114.97437      388.18474      18331.812      18884.501      255.31955    
    500000   125.38933      393.54825      18340.079      18913.033      364.12034    
Loop time of 17.7674 on 64 procs for 50000 steps with 481 atoms

Performance: 12.157 ns/day, 1.974 hours/ns, 2814.145 timesteps/s, 1.354 Matom-step/s
100.0% CPU use with 64 MPI tasks x 1 OpenMP threads

MPI task timing breakdown:
Section |  min time  |  avg time  |  max time  |%varavg| %total
---------------------------------------------------------------
Pair    | 0.015974   | 0.68682    | 5.3712     | 133.5 |  3.87
Bond    | 0.005363   | 0.78541    | 4.5584     | 137.6 |  4.42
Neigh   | 0.014538   | 0.017034   | 0.018594   |   0.8 |  0.10
Comm    | 7.4258     | 14.671     | 16.162     |  56.7 | 82.57
Output  | 0.006921   | 0.014042   | 0.021004   |   3.8 |  0.08
Modify  | 0.60018    | 0.94775    | 1.471      |  19.2 |  5.33
Other   |            | 0.645      |            |       |  3.63

Nlocal:        7.51562 ave          30 max           0 min
Histogram: 29 16 3 0 0 0 5 2 4 5
Nghost:        1933.56 ave        2522 max        1415 min
Histogram: 16 0 0 0 32 0 0 0 0 16
Neighs:              0 ave           0 max           0 min
Histogram: 64 0 0 0 0 0 0 0 0 0

Total # of neighbors = 0
Ave neighs/atom = 0
Ave special neighs/atom = 15.567568
Neighbor list builds = 42
Dangerous builds = 0
Generated 0 of 1 mixed pair_coeff terms from geometric mixing rule
Setting up Verlet run ...
  Unit style    : real
  Current step  : 500000
  Time step     : 0.05
Per MPI rank memory allocation (min/avg/max) = 13.32 | 13.62 | 14.95 Mbytes
   Step          Temp          E_pair         E_mol          TotEng         Press     
    500000   125.38933      393.54825      18340.079      18913.033      364.12034    
    510000   116.66198      365.07686      18364.439      18896.434     -504.31952    
Loop time of 3.48852 on 64 procs for 10000 steps with 481 atoms

Performance: 12.383 ns/day, 1.938 hours/ns, 2866.547 timesteps/s, 1.379 Matom-step/s
100.0% CPU use with 64 MPI tasks x 1 OpenMP threads

MPI task timing breakdown:
Section |  min time  |  avg time  |  max time  |%varavg| %total
---------------------------------------------------------------
Pair    | 0.0031313  | 0.13687    | 1.0409     |  59.4 |  3.92
Bond    | 0.0010893  | 0.15693    | 0.8697     |  61.5 |  4.50
Neigh   | 0.0037237  | 0.004378   | 0.0047856  |   0.4 |  0.13
Comm    | 1.479      | 2.8703     | 3.1622     |  25.6 | 82.28
Output  | 0.0013757  | 0.0027508  | 0.0041302  |   1.6 |  0.08
Modify  | 0.11476    | 0.18914    | 0.32356    |   8.9 |  5.42
Other   |            | 0.1281     |            |       |  3.67

Nlocal:        7.51562 ave          33 max           0 min
Histogram: 36 11 1 1 1 4 1 2 3 4
Nghost:        1934.69 ave        2524 max        1412 min
Histogram: 16 0 0 0 32 0 0 0 0 16
Neighs:              0 ave           0 max           0 min
Histogram: 64 0 0 0 0 0 0 0 0 0

Total # of neighbors = 0
Ave neighs/atom = 0
Ave special neighs/atom = 15.567568
Neighbor list builds = 11
Dangerous builds = 0
Generated 0 of 1 mixed pair_coeff terms from geometric mixing rule
Setting up Verlet run ...
  Unit style    : real
  Current step  : 510000
  Time step     : 0.05
Per MPI rank memory allocation (min/avg/max) = 13.32 | 13.62 | 14.95 Mbytes
   Step          Temp          E_pair         E_mol          TotEng         Press     
    510000   116.66198      365.07686      18364.439      18896.434     -504.31952    
    520000   118.90837      368.94606      18353.384      18892.463     -375.59697    
    530000   116.55106      404.90677      18302.838      18874.505      706.90175    
    540000   114.61704      368.59394      18348.977      18881.564     -340.46746    
    550000   111.15272      364.47927      18366.659      18890.174     -449.55389    
    560000   124.33786      390.88476      18336.843      18905.629      387.9864     
Loop time of 18.0769 on 64 procs for 50000 steps with 481 atoms

Performance: 11.949 ns/day, 2.009 hours/ns, 2765.968 timesteps/s, 1.330 Matom-step/s
100.0% CPU use with 64 MPI tasks x 1 OpenMP threads

MPI task timing breakdown:
Section |  min time  |  avg time  |  max time  |%varavg| %total
---------------------------------------------------------------
Pair    | 0.016103   | 0.6863     | 5.4106     | 133.9 |  3.80
Bond    | 0.005352   | 0.78524    | 4.4937     | 137.7 |  4.34
Neigh   | 0.013486   | 0.015674   | 0.017096   |   0.8 |  0.09
Comm    | 7.6795     | 14.953     | 16.487     |  56.0 | 82.72
Output  | 0.0069344  | 0.013843   | 0.020684   |   3.7 |  0.08
Modify  | 0.57614    | 0.98174    | 1.8799     |  24.6 |  5.43
Other   |            | 0.6406     |            |       |  3.54

Nlocal:        7.51562 ave          26 max           0 min
Histogram: 28 18 2 0 0 0 0 1 7 8
Nghost:        1934.69 ave        2524 max        1418 min
Histogram: 16 0 0 0 32 0 0 0 0 16
Neighs:              0 ave           0 max           0 min
Histogram: 64 0 0 0 0 0 0 0 0 0

Total # of neighbors = 0
Ave neighs/atom = 0
Ave special neighs/atom = 15.567568
Neighbor list builds = 37
Dangerous builds = 0
Generated 0 of 1 mixed pair_coeff terms from geometric mixing rule
Setting up Verlet run ...
  Unit style    : real
  Current step  : 560000
  Time step     : 0.05
Per MPI rank memory allocation (min/avg/max) = 13.32 | 13.62 | 14.95 Mbytes
   Step          Temp          E_pair         E_mol          TotEng         Press     
    560000   124.33786      390.88476      18336.843      18905.629      387.9864     
    570000   118.51472      382.05543      18334.51       18886.135      7.4683689    
Loop time of 3.651 on 64 procs for 10000 steps with 481 atoms

Performance: 11.832 ns/day, 2.028 hours/ns, 2738.974 timesteps/s, 1.317 Matom-step/s
100.0% CPU use with 64 MPI tasks x 1 OpenMP threads

MPI task timing breakdown:
Section |  min time  |  avg time  |  max time  |%varavg| %total
---------------------------------------------------------------
Pair    | 0.0032296  | 0.13693    | 1.0531     |  59.7 |  3.75
Bond    | 0.0010695  | 0.15681    | 0.9387     |  61.8 |  4.30
Neigh   | 0.0029311  | 0.003375   | 0.0036668  |   0.3 |  0.09
Comm    | 1.6127     | 3.0241     | 3.3423     |  24.9 | 82.83
Output  | 0.001396   | 0.0027632  | 0.0041452  |   1.6 |  0.08
Modify  | 0.11295    | 0.19903    | 0.34717    |  11.3 |  5.45
Other   |            | 0.128      |            |       |  3.51

Nlocal:        7.51562 ave          28 max           0 min
Histogram: 28 19 1 0 0 0 3 1 9 3
Nghost:        1934.12 ave        2524 max        1415 min
Histogram: 16 0 0 0 32 0 0 0 0 16
Neighs:              0 ave           0 max           0 min
Histogram: 64 0 0 0 0 0 0 0 0 0

Total # of neighbors = 0
Ave neighs/atom = 0
Ave special neighs/atom = 15.567568
Neighbor list builds = 8
Dangerous builds = 0
Generated 0 of 1 mixed pair_coeff terms from geometric mixing rule
Setting up Verlet run ...
  Unit style    : real
  Current step  : 570000
  Time step     : 0.05
Per MPI rank memory allocation (min/avg/max) = 13.32 | 13.62 | 14.95 Mbytes
   Step          Temp          E_pair         E_mol          TotEng         Press     
    570000   118.51472      382.05543      18334.51       18886.135      7.4683689    
    580000   114.85002      379.08534      18333.864      18877.276     -39.295666    
    590000   113.98104      374.27469      18354.672      18892.029     -168.97111    
    600000   124.61802      373.08555      18345.382      18896.769     -270.87996    
    610000   116.3837       383.57597      18334.537      18884.633      58.202576    
    620000   110.82406      376.32349      18334.096      18868.986     -104.45968    
Loop time of 17.8317 on 64 procs for 50000 steps with 481 atoms

Performance: 12.113 ns/day, 1.981 hours/ns, 2803.995 timesteps/s, 1.349 Matom-step/s
100.0% CPU use with 64 MPI tasks x 1 OpenMP threads

MPI task timing breakdown:
Section |  min time  |  avg time  |  max time  |%varavg| %total
---------------------------------------------------------------
Pair    | 0.01644    | 0.68725    | 5.3769     | 134.0 |  3.85
Bond    | 0.0053746  | 0.78648    | 4.4965     | 138.0 |  4.41
Neigh   | 0.014488   | 0.016899   | 0.01842    |   0.8 |  0.09
Comm    | 7.4983     | 14.726     | 16.224     |  56.7 | 82.58
Output  | 0.0069151  | 0.013884   | 0.020759   |   3.7 |  0.08
Modify  | 0.59764    | 0.95854    | 1.5207     |  20.3 |  5.38
Other   |            | 0.6425     |            |       |  3.60

Nlocal:        7.51562 ave          29 max           0 min
Histogram: 30 13 5 0 0 0 2 6 7 1
Nghost:        1933.47 ave        2524 max        1414 min
Histogram: 16 0 0 0 32 0 0 0 0 16
Neighs:              0 ave           0 max           0 min
Histogram: 64 0 0 0 0 0 0 0 0 0

Total # of neighbors = 0
Ave neighs/atom = 0
Ave special neighs/atom = 15.567568
Neighbor list builds = 41
Dangerous builds = 0
Generated 0 of 1 mixed pair_coeff terms from geometric mixing rule
Setting up Verlet run ...
  Unit style    : real
  Current step  : 620000
  Time step     : 0.05
Per MPI rank memory allocation (min/avg/max) = 13.32 | 13.62 | 14.95 Mbytes
   Step          Temp          E_pair         E_mol          TotEng         Press     
    620000   110.82406      376.32349      18334.096      18868.986     -104.45968    
    630000   117.37842      376.01989      18350.573      18894.537     -28.718876    
Loop time of 3.52374 on 64 procs for 10000 steps with 481 atoms

Performance: 12.260 ns/day, 1.958 hours/ns, 2837.891 timesteps/s, 1.365 Matom-step/s
100.0% CPU use with 64 MPI tasks x 1 OpenMP threads

MPI task timing breakdown:
Section |  min time  |  avg time  |  max time  |%varavg| %total
---------------------------------------------------------------
Pair    | 0.003221   | 0.13764    | 1.1008     |  60.1 |  3.91
Bond    | 0.0010758  | 0.15718    | 0.88123    |  61.6 |  4.46
Neigh   | 0.0031544  | 0.0036689  | 0.00398    |   0.4 |  0.10
Comm    | 1.4151     | 2.8989     | 3.2113     |  25.5 | 82.27
Output  | 0.0013234  | 0.0026974  | 0.0040733  |   1.6 |  0.08
Modify  | 0.12046    | 0.1955     | 0.40917    |  11.6 |  5.55
Other   |            | 0.1282     |            |       |  3.64

Nlocal:        7.51562 ave          28 max           0 min
Histogram: 29 14 5 0 0 0 1 4 8 3
Nghost:        1933.56 ave        2522 max        1418 min
Histogram: 16 0 0 0 32 0 0 0 0 16
Neighs:              0 ave           0 max           0 min
Histogram: 64 0 0 0 0 0 0 0 0 0

Total # of neighbors = 0
Ave neighs/atom = 0
Ave special neighs/atom = 15.567568
Neighbor list builds = 9
Dangerous builds = 0
Generated 0 of 1 mixed pair_coeff terms from geometric mixing rule
Setting up Verlet run ...
  Unit style    : real
  Current step  : 630000
  Time step     : 0.05
Per MPI rank memory allocation (min/avg/max) = 13.32 | 13.62 | 14.95 Mbytes
   Step          Temp          E_pair         E_mol          TotEng         Press     
    630000   117.37842      376.01989      18350.573      18894.537     -28.718876    
    640000   130.92224      383.34475      18337.747      18908.413      161.26778    
    650000   121.40286      367.77945      18362.237      18903.719     -399.11527    
    660000   117.60644      377.19378      18336.473      18881.937     -101.95629    
    670000   121.67645      381.05053      18334.861      18890.005      34.553119    
    680000   126.55884      377.12632      18344.672      18902.877     -61.565435    
Loop time of 17.7398 on 64 procs for 50000 steps with 481 atoms

Performance: 12.176 ns/day, 1.971 hours/ns, 2818.526 timesteps/s, 1.356 Matom-step/s
100.0% CPU use with 64 MPI tasks x 1 OpenMP threads

MPI task timing breakdown:
Section |  min time  |  avg time  |  max time  |%varavg| %total
---------------------------------------------------------------
Pair    | 0.016284   | 0.68695    | 5.3323     | 133.5 |  3.87
Bond    | 0.0053471  | 0.78636    | 4.4317     | 137.6 |  4.43
Neigh   | 0.018447   | 0.021589   | 0.023595   |   0.9 |  0.12
Comm    | 7.4896     | 14.637     | 16.132     |  56.7 | 82.51
Output  | 0.0068804  | 0.013893   | 0.02081    |   3.7 |  0.08
Modify  | 0.60012    | 0.94964    | 1.6938     |  22.3 |  5.35
Other   |            | 0.6444     |            |       |  3.63

Nlocal:        7.51562 ave          28 max           0 min
Histogram: 30 17 1 0 0 0 0 6 6 4
Nghost:        1933.02 ave        2521 max        1415 min
Histogram: 16 0 0 0 32 0 0 0 0 16
Neighs:              0 ave           0 max           0 min
Histogram: 64 0 0 0 0 0 0 0 0 0

Total # of neighbors = 0
Ave neighs/atom = 0
Ave special neighs/atom = 15.567568
Neighbor list builds = 53
Dangerous builds = 0
Generated 0 of 1 mixed pair_coeff terms from geometric mixing rule
Setting up Verlet run ...
  Unit style    : real
  Current step  : 680000
  Time step     : 0.05
Per MPI rank memory allocation (min/avg/max) = 13.32 | 13.62 | 14.95 Mbytes
   Step          Temp          E_pair         E_mol          TotEng         Press     
    680000   126.55884      377.12632      18344.672      18902.877     -61.565435    
    690000   118.58004      368.09508      18351.867      18889.625     -350.3918     
Loop time of 3.51248 on 64 procs for 10000 steps with 481 atoms

Performance: 12.299 ns/day, 1.951 hours/ns, 2846.993 timesteps/s, 1.369 Matom-step/s
100.0% CPU use with 64 MPI tasks x 1 OpenMP threads

MPI task timing breakdown:
Section |  min time  |  avg time  |  max time  |%varavg| %total
---------------------------------------------------------------
Pair    | 0.0032107  | 0.13743    | 1.0818     |  59.9 |  3.91
Bond    | 0.0010661  | 0.1569     | 0.89529    |  61.4 |  4.47
Neigh   | 0.004483   | 0.0052567  | 0.0057412  |   0.5 |  0.15
Comm    | 1.4377     | 2.894      | 3.1898     |  25.5 | 82.39
Output  | 0.0013256  | 0.0028462  | 0.0043073  |   1.8 |  0.08
Modify  | 0.12021    | 0.18781    | 0.33039    |   9.4 |  5.35
Other   |            | 0.1282     |            |       |  3.65

Nlocal:        7.51562 ave          29 max           0 min
Histogram: 29 17 2 0 0 0 3 5 5 3
Nghost:           1933 ave        2520 max        1415 min
Histogram: 16 0 0 0 32 0 0 0 0 16
Neighs:              0 ave           0 max           0 min
Histogram: 64 0 0 0 0 0 0 0 0 0

Total # of neighbors = 0
Ave neighs/atom = 0
Ave special neighs/atom = 15.567568
Neighbor list builds = 13
Dangerous builds = 0
Generated 0 of 1 mixed pair_coeff terms from geometric mixing rule
Setting up Verlet run ...
  Unit style    : real
  Current step  : 690000
  Time step     : 0.05
Per MPI rank memory allocation (min/avg/max) = 13.32 | 13.62 | 14.95 Mbytes
   Step          Temp          E_pair         E_mol          TotEng         Press     
    690000   118.58004      368.09508      18351.867      18889.625     -350.3918     
    700000   117.80071      372.12484      18340.094      18880.767     -210.60464    
    710000   113.27359      385.68031      18332.015      18879.766      110.3433     
    720000   118.75311      390.64481      18324.238      18884.793      261.84938    
    730000   117.79342      364.49786      18360.188      18893.224     -526.61872    
    740000   121.75076      372.12597      18344.487      18890.812     -310.74868    
Loop time of 17.6179 on 64 procs for 50000 steps with 481 atoms

Performance: 12.260 ns/day, 1.958 hours/ns, 2838.025 timesteps/s, 1.365 Matom-step/s
100.0% CPU use with 64 MPI tasks x 1 OpenMP threads

MPI task timing breakdown:
Section |  min time  |  avg time  |  max time  |%varavg| %total
---------------------------------------------------------------
Pair    | 0.015935   | 0.68736    | 5.2312     | 133.1 |  3.90
Bond    | 0.0056259  | 0.78606    | 4.4484     | 137.7 |  4.46
Neigh   | 0.022714   | 0.026339   | 0.028658   |   1.0 |  0.15
Comm    | 7.5399     | 14.484     | 15.99      |  56.9 | 82.21
Output  | 0.0069573  | 0.013946   | 0.020815   |   3.7 |  0.08
Modify  | 0.60412    | 0.97831    | 1.9548     |  24.4 |  5.55
Other   |            | 0.6416     |            |       |  3.64

Nlocal:        7.51562 ave          35 max           0 min
Histogram: 38 9 2 1 2 1 3 2 3 3
Nghost:        1934.14 ave        2524 max        1411 min
Histogram: 16 0 0 0 32 0 0 0 0 16
Neighs:              0 ave           0 max           0 min
Histogram: 64 0 0 0 0 0 0 0 0 0

Total # of neighbors = 0
Ave neighs/atom = 0
Ave special neighs/atom = 15.567568
Neighbor list builds = 64
Dangerous builds = 0
Generated 0 of 1 mixed pair_coeff terms from geometric mixing rule
Setting up Verlet run ...
  Unit style    : real
  Current step  : 740000
  Time step     : 0.05
Per MPI rank memory allocation (min/avg/max) = 13.32 | 13.62 | 14.95 Mbytes
   Step          Temp          E_pair         E_mol          TotEng         Press     
    740000   121.75076      372.12597      18344.487      18890.812     -310.74868    
    750000   115.27561      397.4073       18325.719      18888.061      498.84746    
Loop time of 3.55355 on 64 procs for 10000 steps with 481 atoms

Performance: 12.157 ns/day, 1.974 hours/ns, 2814.088 timesteps/s, 1.354 Matom-step/s
100.0% CPU use with 64 MPI tasks x 1 OpenMP threads

MPI task timing breakdown:
Section |  min time  |  avg time  |  max time  |%varavg| %total
---------------------------------------------------------------
Pair    | 0.0032527  | 0.13708    | 1.0483     |  59.5 |  3.86
Bond    | 0.0010914  | 0.15671    | 0.93083    |  61.4 |  4.41
Neigh   | 0.0031638  | 0.0036898  | 0.0040281  |   0.4 |  0.10
Comm    | 1.5449     | 2.9304     | 3.2402     |  25.2 | 82.47
Output  | 0.00134    | 0.0027511  | 0.0041652  |   1.7 |  0.08
Modify  | 0.11051    | 0.19474    | 0.36366    |  10.7 |  5.48
Other   |            | 0.1281     |            |       |  3.61

Nlocal:        7.51562 ave          33 max           0 min
Histogram: 37 10 1 0 2 3 3 2 3 3
Nghost:        1934.12 ave        2524 max        1410 min
Histogram: 16 0 0 0 32 0 0 0 0 16
Neighs:              0 ave           0 max           0 min
Histogram: 64 0 0 0 0 0 0 0 0 0

Total # of neighbors = 0
Ave neighs/atom = 0
Ave special neighs/atom = 15.567568
Neighbor list builds = 9
Dangerous builds = 0
Generated 0 of 1 mixed pair_coeff terms from geometric mixing rule
Setting up Verlet run ...
  Unit style    : real
  Current step  : 750000
  Time step     : 0.05
Per MPI rank memory allocation (min/avg/max) = 13.32 | 13.62 | 14.95 Mbytes
   Step          Temp          E_pair         E_mol          TotEng         Press     
    750000   115.27561      397.4073       18325.719      18888.061      498.84746    
    760000   114.89698      366.58532      18341.733      18872.711     -402.32886    
    770000   122.50333      365.3157       18354.813      18895.405     -387.1115     
    780000   119.66988      390.65141      18331.637      18893.511      382.69185    
    790000   121.83637      383.09221      18341.03       18898.444      53.341808    
    800000   117.38584      372.32498      18347.011      18887.29      -322.36079    
Loop time of 17.5025 on 64 procs for 50000 steps with 481 atoms

Performance: 12.341 ns/day, 1.945 hours/ns, 2856.734 timesteps/s, 1.374 Matom-step/s
100.0% CPU use with 64 MPI tasks x 1 OpenMP threads

MPI task timing breakdown:
Section |  min time  |  avg time  |  max time  |%varavg| %total
---------------------------------------------------------------
Pair    | 0.01622    | 0.68614    | 5.2406     | 133.3 |  3.92
Bond    | 0.0054441  | 0.7842     | 4.5567     | 137.8 |  4.48
Neigh   | 0.013789   | 0.016019   | 0.017393   |   0.7 |  0.09
Comm    | 7.4273     | 14.385     | 15.877     |  57.2 | 82.19
Output  | 0.0068734  | 0.013902   | 0.02079    |   3.7 |  0.08
Modify  | 0.5712     | 0.97541    | 1.5553     |  19.9 |  5.57
Other   |            | 0.6421     |            |       |  3.67

Nlocal:        7.51562 ave          31 max           0 min
Histogram: 34 14 0 0 0 1 4 3 6 2
Nghost:        1934.12 ave        2524 max        1414 min
Histogram: 16 0 0 0 32 0 0 0 0 16
Neighs:              0 ave           0 max           0 min
Histogram: 64 0 0 0 0 0 0 0 0 0

Total # of neighbors = 0
Ave neighs/atom = 0
Ave special neighs/atom = 15.567568
Neighbor list builds = 40
Dangerous builds = 0
Generated 0 of 1 mixed pair_coeff terms from geometric mixing rule
Setting up Verlet run ...
  Unit style    : real
  Current step  : 800000
  Time step     : 0.05
Per MPI rank memory allocation (min/avg/max) = 13.32 | 13.62 | 14.95 Mbytes
   Step          Temp          E_pair         E_mol          TotEng         Press     
    800000   117.38584      372.32498      18347.011      18887.29      -322.36079    
    810000   109.06995      376.56799      18338.245      18870.87      -69.952617    
Loop time of 3.54112 on 64 procs for 10000 steps with 481 atoms

Performance: 12.200 ns/day, 1.967 hours/ns, 2823.966 timesteps/s, 1.358 Matom-step/s
100.0% CPU use with 64 MPI tasks x 1 OpenMP threads

MPI task timing breakdown:
Section |  min time  |  avg time  |  max time  |%varavg| %total
---------------------------------------------------------------
Pair    | 0.0033147  | 0.1372     | 1.0632     |  59.7 |  3.87
Bond    | 0.0010783  | 0.15688    | 0.89071    |  61.5 |  4.43
Neigh   | 0.0046583  | 0.0053854  | 0.0058838  |   0.4 |  0.15
Comm    | 1.4981     | 2.916      | 3.2161     |  25.4 | 82.35
Output  | 0.0013668  | 0.0028054  | 0.0042315  |   1.7 |  0.08
Modify  | 0.11695    | 0.19492    | 0.40658    |  11.3 |  5.50
Other   |            | 0.128      |            |       |  3.61

Nlocal:        7.51562 ave          32 max           0 min
Histogram: 35 13 0 0 1 3 2 3 4 3
Nghost:        1934.12 ave        2522 max        1414 min
Histogram: 16 0 0 0 32 0 0 0 0 16
Neighs:              0 ave           0 max           0 min
Histogram: 64 0 0 0 0 0 0 0 0 0

Total # of neighbors = 0
Ave neighs/atom = 0
Ave special neighs/atom = 15.567568
Neighbor list builds = 13
Dangerous builds = 0
Generated 0 of 1 mixed pair_coeff terms from geometric mixing rule
Setting up Verlet run ...
  Unit style    : real
  Current step  : 810000
  Time step     : 0.05
Per MPI rank memory allocation (min/avg/max) = 13.32 | 13.62 | 14.95 Mbytes
   Step          Temp          E_pair         E_mol          TotEng         Press     
    810000   109.06995      376.56799      18338.245      18870.87      -69.952617    
    820000   122.60048      381.85208      18325.87       18883.138      160.582      
    830000   115.7132       381.10451      18336.7        18883.366     -51.055781    
    840000   125.38252      381.54992      18334.318      18895.263      49.081106    
    850000   119.21072      366.60045      18351.901      18889.066     -331.40672    
    860000   130.15081      371.52761      18332.669      18890.414     -259.0304     
Loop time of 17.7884 on 64 procs for 50000 steps with 481 atoms

Performance: 12.143 ns/day, 1.976 hours/ns, 2810.820 timesteps/s, 1.352 Matom-step/s
100.0% CPU use with 64 MPI tasks x 1 OpenMP threads

MPI task timing breakdown:
Section |  min time  |  avg time  |  max time  |%varavg| %total
---------------------------------------------------------------
Pair    | 0.016519   | 0.68792    | 5.2966     | 133.7 |  3.87
Bond    | 0.005727   | 0.78553    | 4.5197     | 137.8 |  4.42
Neigh   | 0.027409   | 0.03182    | 0.034709   |   1.1 |  0.18
Comm    | 7.6266     | 14.693     | 16.156     |  56.9 | 82.60
Output  | 0.0069973  | 0.014128   | 0.021086   |   3.7 |  0.08
Modify  | 0.5741     | 0.93365    | 1.4931     |  18.9 |  5.25
Other   |            | 0.6428     |            |       |  3.61

Nlocal:        7.51562 ave          26 max           0 min
Histogram: 28 19 1 0 0 0 0 2 5 9
Nghost:        1931.69 ave        2518 max        1418 min
Histogram: 16 0 0 0 32 0 0 0 0 16
Neighs:              0 ave           0 max           0 min
Histogram: 64 0 0 0 0 0 0 0 0 0

Total # of neighbors = 0
Ave neighs/atom = 0
Ave special neighs/atom = 15.567568
Neighbor list builds = 78
Dangerous builds = 0
Generated 0 of 1 mixed pair_coeff terms from geometric mixing rule
Setting up Verlet run ...
  Unit style    : real
  Current step  : 860000
  Time step     : 0.05
Per MPI rank memory allocation (min/avg/max) = 13.32 | 13.62 | 14.95 Mbytes
   Step          Temp          E_pair         E_mol          TotEng         Press     
    860000   130.15081      371.52761      18332.669      18890.414     -259.0304     
    870000   107.33414      388.43608      18333.688      18875.697      198.34497    
Loop time of 3.5419 on 64 procs for 10000 steps with 481 atoms

Performance: 12.197 ns/day, 1.968 hours/ns, 2823.343 timesteps/s, 1.358 Matom-step/s
100.0% CPU use with 64 MPI tasks x 1 OpenMP threads

MPI task timing breakdown:
Section |  min time  |  avg time  |  max time  |%varavg| %total
---------------------------------------------------------------
Pair    | 0.00328    | 0.13747    | 1.055      |  59.8 |  3.88
Bond    | 0.0010778  | 0.15669    | 0.93059    |  61.6 |  4.42
Neigh   | 0.0046552  | 0.0053808  | 0.0058646  |   0.4 |  0.15
Comm    | 1.5078     | 2.9117     | 3.2148     |  25.5 | 82.21
Output  | 0.0013692  | 0.0027814  | 0.004197   |   1.7 |  0.08
Modify  | 0.11665    | 0.19928    | 0.33638    |   9.5 |  5.63
Other   |            | 0.1286     |            |       |  3.63

Nlocal:        7.51562 ave          29 max           0 min
Histogram: 32 13 3 0 0 2 2 5 2 5
Nghost:        1932.45 ave        2520 max        1415 min
Histogram: 16 0 0 0 32 0 0 0 0 16
Neighs:              0 ave           0 max           0 min
Histogram: 64 0 0 0 0 0 0 0 0 0

Total # of neighbors = 0
Ave neighs/atom = 0
Ave special neighs/atom = 15.567568
Neighbor list builds = 13
Dangerous builds = 0
Generated 0 of 1 mixed pair_coeff terms from geometric mixing rule
Setting up Verlet run ...
  Unit style    : real
  Current step  : 870000
  Time step     : 0.05
Per MPI rank memory allocation (min/avg/max) = 13.32 | 13.62 | 14.95 Mbytes
   Step          Temp          E_pair         E_mol          TotEng         Press     
    870000   107.33414      388.43608      18333.688      18875.697      198.34497    
    880000   123.02172      376.09302      18340.698      18892.809     -64.845248    
    890000   113.60681      371.78833      18362.691      18897.026     -224.17252    
    900000   115.24852      383.22461      18337.248      18885.369      57.232978    
    910000   112.29048      385.95702      18332.812      18879.433      82.357283    
    920000   119.63436      374.74168      18338.2        18884.114     -126.89207    
Loop time of 17.6053 on 64 procs for 50000 steps with 481 atoms

Performance: 12.269 ns/day, 1.956 hours/ns, 2840.053 timesteps/s, 1.366 Matom-step/s
100.0% CPU use with 64 MPI tasks x 1 OpenMP threads

MPI task timing breakdown:
Section |  min time  |  avg time  |  max time  |%varavg| %total
---------------------------------------------------------------
Pair    | 0.015897   | 0.68714    | 5.3167     | 133.8 |  3.90
Bond    | 0.0054536  | 0.78446    | 4.5478     | 137.7 |  4.46
Neigh   | 0.020303   | 0.023736   | 0.025942   |   1.0 |  0.13
Comm    | 7.4239     | 14.517     | 16         |  56.8 | 82.46
Output  | 0.0070615  | 0.014065   | 0.020951   |   3.7 |  0.08
Modify  | 0.59902    | 0.93629    | 1.6604     |  24.0 |  5.32
Other   |            | 0.6428     |            |       |  3.65

Nlocal:        7.51562 ave          31 max           0 min
Histogram: 37 11 0 0 0 2 3 4 5 2
Nghost:        1933.58 ave        2524 max        1413 min
Histogram: 16 0 0 0 32 0 0 0 0 16
Neighs:              0 ave           0 max           0 min
Histogram: 64 0 0 0 0 0 0 0 0 0

Total # of neighbors = 0
Ave neighs/atom = 0
Ave special neighs/atom = 15.567568
Neighbor list builds = 59
Dangerous builds = 0
Generated 0 of 1 mixed pair_coeff terms from geometric mixing rule
Setting up Verlet run ...
  Unit style    : real
  Current step  : 920000
  Time step     : 0.05
Per MPI rank memory allocation (min/avg/max) = 13.32 | 13.62 | 14.95 Mbytes
   Step          Temp          E_pair         E_mol          TotEng         Press     
    920000   119.63436      374.74168      18338.2        18884.114     -126.89207    
    930000   120.29784      370.02681      18353.792      18895.939     -250.79927    
Loop time of 3.50998 on 64 procs for 10000 steps with 481 atoms

Performance: 12.308 ns/day, 1.950 hours/ns, 2849.019 timesteps/s, 1.370 Matom-step/s
100.0% CPU use with 64 MPI tasks x 1 OpenMP threads

MPI task timing breakdown:
Section |  min time  |  avg time  |  max time  |%varavg| %total
---------------------------------------------------------------
Pair    | 0.0032751  | 0.13696    | 1.0464     |  59.6 |  3.90
Bond    | 0.0010939  | 0.15681    | 0.89393    |  61.8 |  4.47
Neigh   | 0.0026706  | 0.0031628  | 0.0034512  |   0.4 |  0.09
Comm    | 1.5168     | 2.9122     | 3.2012     |  25.5 | 82.97
Output  | 0.0014068  | 0.0027723  | 0.0041462  |   1.6 |  0.08
Modify  | 0.12556    | 0.16928    | 0.23937    |   7.4 |  4.82
Other   |            | 0.1287     |            |       |  3.67

Nlocal:        7.51562 ave          30 max           0 min
Histogram: 30 15 3 0 0 1 2 6 3 4
Nghost:        1933.11 ave        2524 max        1413 min
Histogram: 16 0 0 0 32 0 0 0 0 16
Neighs:              0 ave           0 max           0 min
Histogram: 64 0 0 0 0 0 0 0 0 0

Total # of neighbors = 0
Ave neighs/atom = 0
Ave special neighs/atom = 15.567568
Neighbor list builds = 8
Dangerous builds = 0
Generated 0 of 1 mixed pair_coeff terms from geometric mixing rule
Setting up Verlet run ...
  Unit style    : real
  Current step  : 930000
  Time step     : 0.05
Per MPI rank memory allocation (min/avg/max) = 13.32 | 13.62 | 14.95 Mbytes
   Step          Temp          E_pair         E_mol          TotEng         Press     
    930000   120.29784      370.02681      18353.792      18895.939     -250.79927    
    940000   117.52955      378.03835      18326.768      18872.967     -74.767807    
    950000   115.11542      383.26672      18321.692      18869.665      78.584708    
    960000   118.6752       376.32072      18335.779      18881.899     -84.608846    
    970000   119.07047      381.17712      18335.305      18886.846      13.74161     
    980000   115.90345      380.47655      18328.581      18874.891     -18.390356    
Loop time of 17.7377 on 64 procs for 50000 steps with 481 atoms

Performance: 12.177 ns/day, 1.971 hours/ns, 2818.857 timesteps/s, 1.356 Matom-step/s
100.0% CPU use with 64 MPI tasks x 1 OpenMP threads

MPI task timing breakdown:
Section |  min time  |  avg time  |  max time  |%varavg| %total
---------------------------------------------------------------
Pair    | 0.016328   | 0.68711    | 5.4609     | 134.4 |  3.87
Bond    | 0.0054538  | 0.78479    | 4.5137     | 137.6 |  4.42
Neigh   | 0.019059   | 0.021974   | 0.023936   |   0.9 |  0.12
Comm    | 7.2372     | 14.611     | 16.15      |  56.7 | 82.37
Output  | 0.0070096  | 0.014867   | 0.022247   |   4.1 |  0.08
Modify  | 0.58264    | 0.97551    | 2.1088     |  27.4 |  5.50
Other   |            | 0.6425     |            |       |  3.62

Nlocal:        7.51562 ave          31 max           0 min
Histogram: 37 11 0 0 0 2 2 5 4 3
Nghost:        1934.23 ave        2524 max        1419 min
Histogram: 16 0 0 0 32 0 0 0 0 16
Neighs:              0 ave           0 max           0 min
Histogram: 64 0 0 0 0 0 0 0 0 0

Total # of neighbors = 0
Ave neighs/atom = 0
Ave special neighs/atom = 15.567568
Neighbor list builds = 53
Dangerous builds = 0
Generated 0 of 1 mixed pair_coeff terms from geometric mixing rule
Setting up Verlet run ...
  Unit style    : real
  Current step  : 980000
  Time step     : 0.05
Per MPI rank memory allocation (min/avg/max) = 13.32 | 13.62 | 14.95 Mbytes
   Step          Temp          E_pair         E_mol          TotEng         Press     
    980000   115.90345      380.47655      18328.581      18874.891     -18.390356    
    990000   114.97348      368.31948      18344.023      18876.845     -398.95106    
Loop time of 3.55735 on 64 procs for 10000 steps with 481 atoms

Performance: 12.144 ns/day, 1.976 hours/ns, 2811.081 timesteps/s, 1.352 Matom-step/s
100.0% CPU use with 64 MPI tasks x 1 OpenMP threads

MPI task timing breakdown:
Section |  min time  |  avg time  |  max time  |%varavg| %total
---------------------------------------------------------------
Pair    | 0.003277   | 0.13836    | 1.075      |  60.4 |  3.89
Bond    | 0.0010915  | 0.158      | 0.88492    |  62.0 |  4.44
Neigh   | 0.0045913  | 0.0052764  | 0.0057541  |   0.4 |  0.15
Comm    | 1.4756     | 2.9249     | 3.2239     |  25.7 | 82.22
Output  | 0.0013682  | 0.0027736  | 0.0041829  |   1.7 |  0.08
Modify  | 0.12509    | 0.19691    | 0.35514    |   9.4 |  5.54
Other   |            | 0.1311     |            |       |  3.69

Nlocal:        7.51562 ave          32 max           0 min
Histogram: 38 10 0 0 0 3 3 6 2 2
Nghost:        1933.58 ave        2522 max        1416 min
Histogram: 16 0 0 0 32 0 0 0 0 16
Neighs:              0 ave           0 max           0 min
Histogram: 64 0 0 0 0 0 0 0 0 0

Total # of neighbors = 0
Ave neighs/atom = 0
Ave special neighs/atom = 15.567568
Neighbor list builds = 13
Dangerous builds = 0
Generated 0 of 1 mixed pair_coeff terms from geometric mixing rule
Setting up Verlet run ...
  Unit style    : real
  Current step  : 990000
  Time step     : 0.05
Per MPI rank memory allocation (min/avg/max) = 13.32 | 13.62 | 14.95 Mbytes
   Step          Temp          E_pair         E_mol          TotEng         Press     
    990000   114.97348      368.31948      18344.023      18876.845     -398.95106    
   1000000   109.80422      385.76284      18337.306      18880.175      22.196373    
   1010000   131.51195      391.57119      18325.021      18904.758      85.365859    
   1020000   121.03661      378.56214      18340.167      18891.907     -302.82607    
   1030000   122.48673      384.94111      18337.448      18897.642     -10.590983    
   1040000   116.56486      379.26422      18331.483      18877.527     -46.000087    
Loop time of 17.7843 on 64 procs for 50000 steps with 481 atoms

Performance: 12.146 ns/day, 1.976 hours/ns, 2811.464 timesteps/s, 1.352 Matom-step/s
100.0% CPU use with 64 MPI tasks x 1 OpenMP threads

MPI task timing breakdown:
Section |  min time  |  avg time  |  max time  |%varavg| %total
---------------------------------------------------------------
Pair    | 0.016543   | 0.69457    | 5.372      | 135.7 |  3.91
Bond    | 0.0055818  | 0.78483    | 4.5095     | 137.3 |  4.41
Neigh   | 0.039771   | 0.046396   | 0.050731   |   1.3 |  0.26
Comm    | 7.4482     | 14.651     | 16.18      |  57.1 | 82.38
Output  | 0.0069803  | 0.014048   | 0.021015   |   3.7 |  0.08
Modify  | 0.57486    | 0.95293    | 1.7769     |  23.1 |  5.36
Other   |            | 0.6409     |            |       |  3.60

Nlocal:        7.51562 ave          34 max           0 min
Histogram: 34 13 1 1 0 4 3 5 1 2
Nghost:        1932.55 ave        2522 max        1410 min
Histogram: 16 0 0 0 32 0 0 0 0 16
Neighs:              0 ave           0 max           0 min
Histogram: 64 0 0 0 0 0 0 0 0 0

Total # of neighbors = 0
Ave neighs/atom = 0
Ave special neighs/atom = 15.567568
Neighbor list builds = 116
Dangerous builds = 0
Generated 0 of 1 mixed pair_coeff terms from geometric mixing rule
Setting up Verlet run ...
  Unit style    : real
  Current step  : 1040000
  Time step     : 0.05
Per MPI rank memory allocation (min/avg/max) = 13.32 | 13.62 | 14.95 Mbytes
   Step          Temp          E_pair         E_mol          TotEng         Press     
   1040000   116.56486      379.26422      18331.483      18877.527     -46.000087    
   1050000   113.81436      372.8665       18344.691      18880.402     -234.54893    
Loop time of 3.51534 on 64 procs for 10000 steps with 481 atoms

Performance: 12.289 ns/day, 1.953 hours/ns, 2844.675 timesteps/s, 1.368 Matom-step/s
100.0% CPU use with 64 MPI tasks x 1 OpenMP threads

MPI task timing breakdown:
Section |  min time  |  avg time  |  max time  |%varavg| %total
---------------------------------------------------------------
Pair    | 0.003301   | 0.13755    | 1.0868     |  60.3 |  3.91
Bond    | 0.0010796  | 0.15704    | 0.92031    |  61.8 |  4.47
Neigh   | 0.0042832  | 0.0050761  | 0.0055774  |   0.5 |  0.14
Comm    | 1.4347     | 2.8952     | 3.1954     |  25.6 | 82.36
Output  | 0.0013749  | 0.0027643  | 0.0041608  |   1.7 |  0.08
Modify  | 0.11555    | 0.1897     | 0.39249    |  11.6 |  5.40
Other   |            | 0.128      |            |       |  3.64

Nlocal:        7.51562 ave          33 max           0 min
Histogram: 38 9 1 1 1 0 6 3 2 3
Nghost:        1934.12 ave        2524 max        1414 min
Histogram: 16 0 0 0 32 0 0 0 0 16
Neighs:              0 ave           0 max           0 min
Histogram: 64 0 0 0 0 0 0 0 0 0

Total # of neighbors = 0
Ave neighs/atom = 0
Ave special neighs/atom = 15.567568
Neighbor list builds = 13
Dangerous builds = 0
Generated 0 of 1 mixed pair_coeff terms from geometric mixing rule
Setting up Verlet run ...
  Unit style    : real
  Current step  : 1050000
  Time step     : 0.05
Per MPI rank memory allocation (min/avg/max) = 13.32 | 13.62 | 14.95 Mbytes
   Step          Temp          E_pair         E_mol          TotEng         Press     
   1050000   113.81436      372.8665       18344.691      18880.402     -234.54893    
   1060000   125.848        386.37427      18323.653      18890.089      221.62417    
   1070000   129.9177       378.19591      18333.538      18897.619     -14.57478     
   1080000   119.61226      369.74338      18344.796      18885.679     -372.31605    
   1090000   109.11865      392.25529      18326.568      18874.949      81.457051    
   1100000   120.60235      391.11783      18327.731      18891.405      105.6846     
Loop time of 17.5939 on 64 procs for 50000 steps with 481 atoms

Performance: 12.277 ns/day, 1.955 hours/ns, 2841.899 timesteps/s, 1.367 Matom-step/s
100.0% CPU use with 64 MPI tasks x 1 OpenMP threads

MPI task timing breakdown:
Section |  min time  |  avg time  |  max time  |%varavg| %total
---------------------------------------------------------------
Pair    | 0.015719   | 0.69166    | 5.4156     | 134.9 |  3.93
Bond    | 0.0054661  | 0.78552    | 4.5644     | 137.7 |  4.46
Neigh   | 0.034933   | 0.04066    | 0.044321   |   1.2 |  0.23
Comm    | 7.2269     | 14.491     | 15.967     |  57.4 | 82.37
Output  | 0.0068662  | 0.013895   | 0.020834   |   3.7 |  0.08
Modify  | 0.57775    | 0.93072    | 1.5034     |  19.9 |  5.29
Other   |            | 0.6401     |            |       |  3.64

Nlocal:        7.51562 ave          30 max           0 min
Histogram: 30 16 2 0 0 0 2 5 6 3
Nghost:        1933.56 ave        2524 max        1413 min
Histogram: 16 0 0 0 32 0 0 0 0 16
Neighs:              0 ave           0 max           0 min
Histogram: 64 0 0 0 0 0 0 0 0 0

Total # of neighbors = 0
Ave neighs/atom = 0
Ave special neighs/atom = 15.567568
Neighbor list builds = 101
Dangerous builds = 0
Generated 0 of 1 mixed pair_coeff terms from geometric mixing rule
Setting up Verlet run ...
  Unit style    : real
  Current step  : 1100000
  Time step     : 0.05
Per MPI rank memory allocation (min/avg/max) = 13.32 | 13.62 | 14.95 Mbytes
   Step          Temp          E_pair         E_mol          TotEng         Press     
   1100000   120.60235      391.11783      18327.731      18891.405      105.6846     
   1110000   120.07764      381.3406       18327.134      18880.28      -148.65536    
Loop time of 3.53635 on 64 procs for 10000 steps with 481 atoms

Performance: 12.216 ns/day, 1.965 hours/ns, 2827.777 timesteps/s, 1.360 Matom-step/s
100.0% CPU use with 64 MPI tasks x 1 OpenMP threads

MPI task timing breakdown:
Section |  min time  |  avg time  |  max time  |%varavg| %total
---------------------------------------------------------------
Pair    | 0.0031732  | 0.13939    | 1.1044     |  59.2 |  3.94
Bond    | 0.0010728  | 0.15717    | 0.90505    |  61.4 |  4.44
Neigh   | 0.014809   | 0.017097   | 0.018599   |   0.8 |  0.48
Comm    | 1.4298     | 2.9057     | 3.1985     |  25.4 | 82.17
Output  | 0.0013802  | 0.0028013  | 0.0042296  |   1.7 |  0.08
Modify  | 0.12132    | 0.18618    | 0.36286    |  10.4 |  5.26
Other   |            | 0.128      |            |       |  3.62

Nlocal:        7.51562 ave          31 max           0 min
Histogram: 37 11 0 0 0 0 4 7 4 1
Nghost:           1933 ave        2522 max        1412 min
Histogram: 16 0 0 0 32 0 0 0 0 16
Neighs:              0 ave           0 max           0 min
Histogram: 64 0 0 0 0 0 0 0 0 0

Total # of neighbors = 0
Ave neighs/atom = 0
Ave special neighs/atom = 15.567568
Neighbor list builds = 42
Dangerous builds = 0
Generated 0 of 1 mixed pair_coeff terms from geometric mixing rule
Setting up Verlet run ...
  Unit style    : real
  Current step  : 1110000
  Time step     : 0.05
Per MPI rank memory allocation (min/avg/max) = 13.32 | 13.62 | 14.95 Mbytes
   Step          Temp          E_pair         E_mol          TotEng         Press     
   1110000   120.07764      381.3406       18327.134      18880.28      -148.65536    
   1120000   120.30488      382.52615      18325.873      18880.53      -146.09148    
   1130000   116.44201      392.01288      18329.927      18888.543      128.18059    
   1140000   123.70176      391.85074      18314.072      18882.914      196.35092    
   1150000   117.3338       375.508        18343.47       18886.858     -353.84125    
   1160000   111.82688      376.06743      18336.912      18872.98      -297.62418    
Loop time of 17.9268 on 64 procs for 50000 steps with 481 atoms

Performance: 12.049 ns/day, 1.992 hours/ns, 2789.114 timesteps/s, 1.342 Matom-step/s
100.0% CPU use with 64 MPI tasks x 1 OpenMP threads

MPI task timing breakdown:
Section |  min time  |  avg time  |  max time  |%varavg| %total
---------------------------------------------------------------
Pair    | 0.016357   | 0.69625    | 5.5123     | 133.3 |  3.88
Bond    | 0.0053328  | 0.78584    | 4.5392     | 137.5 |  4.38
Neigh   | 0.065012   | 0.075237   | 0.082017   |   1.6 |  0.42
Comm    | 7.387      | 14.803     | 16.244     |  56.7 | 82.57
Output  | 0.0069305  | 0.01402    | 0.021019   |   3.7 |  0.08
Modify  | 0.59617    | 0.9123     | 1.5378     |  19.2 |  5.09
Other   |            | 0.6403     |            |       |  3.57

Nlocal:        7.51562 ave          31 max           0 min
Histogram: 38 10 0 0 0 3 2 4 3 4
Nghost:        1935.45 ave        2524 max        1415 min
Histogram: 16 0 0 0 32 0 0 0 0 16
Neighs:              0 ave           0 max           0 min
Histogram: 64 0 0 0 0 0 0 0 0 0

Total # of neighbors = 0
Ave neighs/atom = 0
Ave special neighs/atom = 15.567568
Neighbor list builds = 185
Dangerous builds = 0
Generated 0 of 1 mixed pair_coeff terms from geometric mixing rule
Setting up Verlet run ...
  Unit style    : real
  Current step  : 1160000
  Time step     : 0.05
Per MPI rank memory allocation (min/avg/max) = 13.32 | 13.62 | 14.95 Mbytes
   Step          Temp          E_pair         E_mol          TotEng         Press     
   1160000   111.82688      376.06743      18336.912      18872.98      -297.62418    
   1170000   115.89408      392.94738      18318.899      18877.667      124.9667     
Loop time of 3.55235 on 64 procs for 10000 steps with 481 atoms

Performance: 12.161 ns/day, 1.974 hours/ns, 2815.041 timesteps/s, 1.354 Matom-step/s
100.0% CPU use with 64 MPI tasks x 1 OpenMP threads

MPI task timing breakdown:
Section |  min time  |  avg time  |  max time  |%varavg| %total
---------------------------------------------------------------
Pair    | 0.0032093  | 0.13966    | 1.0877     |  60.7 |  3.93
Bond    | 0.0010703  | 0.15707    | 0.86813    |  61.4 |  4.42
Neigh   | 0.013503   | 0.015622   | 0.017013   |   0.7 |  0.44
Comm    | 1.4749     | 2.9332     | 3.227      |  25.7 | 82.57
Output  | 0.001361   | 0.0027753  | 0.0041898  |   1.7 |  0.08
Modify  | 0.11747    | 0.17557    | 0.29349    |   8.6 |  4.94
Other   |            | 0.1284     |            |       |  3.62

Nlocal:        7.51562 ave          30 max           0 min
Histogram: 32 12 4 0 0 2 4 1 4 5
Nghost:        1935.45 ave        2524 max        1414 min
Histogram: 16 0 0 0 32 0 0 0 0 16
Neighs:              0 ave           0 max           0 min
Histogram: 64 0 0 0 0 0 0 0 0 0

Total # of neighbors = 0
Ave neighs/atom = 0
Ave special neighs/atom = 15.567568
Neighbor list builds = 39
Dangerous builds = 0
Generated 0 of 1 mixed pair_coeff terms from geometric mixing rule
Setting up Verlet run ...
  Unit style    : real
  Current step  : 1170000
  Time step     : 0.05
Per MPI rank memory allocation (min/avg/max) = 13.32 | 13.62 | 14.95 Mbytes
   Step          Temp          E_pair         E_mol          TotEng         Press     
   1170000   115.89408      392.94738      18318.899      18877.667      124.9667     
   1180000   123.1723       392.29885      18329.597      18898.129      99.779406    
   1190000   118.45474      380.23655      18337.325      18887.045     -197.97073    
   1200000   121.19671      381.01827      18334.165      18888.59      -253.74718    
   1210000   117.90626      385.34346      18332.983      18887.025     -95.448468    
   1220000   125.61789      391.20194      18325.069      18896.004      131.00042    
Loop time of 17.9599 on 64 procs for 50000 steps with 481 atoms

Performance: 12.027 ns/day, 1.996 hours/ns, 2783.981 timesteps/s, 1.339 Matom-step/s
100.0% CPU use with 64 MPI tasks x 1 OpenMP threads

MPI task timing breakdown:
Section |  min time  |  avg time  |  max time  |%varavg| %total
---------------------------------------------------------------
Pair    | 0.015883   | 0.69747    | 5.4838     | 133.0 |  3.88
Bond    | 0.0053391  | 0.78743    | 4.5151     | 137.5 |  4.38
Neigh   | 0.06299    | 0.072857   | 0.079375   |   1.6 |  0.41
Comm    | 7.4439     | 14.802     | 16.274     |  56.6 | 82.42
Output  | 0.006846   | 0.013948   | 0.02095    |   3.8 |  0.08
Modify  | 0.61106    | 0.94241    | 1.8602     |  23.8 |  5.25
Other   |            | 0.6437     |            |       |  3.58

Nlocal:        7.51562 ave          29 max           0 min
Histogram: 30 15 3 0 0 0 2 5 8 1
Nghost:        1934.89 ave        2524 max        1415 min
Histogram: 16 0 0 0 32 0 0 0 0 16
Neighs:              0 ave           0 max           0 min
Histogram: 64 0 0 0 0 0 0 0 0 0

Total # of neighbors = 0
Ave neighs/atom = 0
Ave special neighs/atom = 15.567568
Neighbor list builds = 178
Dangerous builds = 0
Generated 0 of 1 mixed pair_coeff terms from geometric mixing rule
Setting up Verlet run ...
  Unit style    : real
  Current step  : 1220000
  Time step     : 0.05
[...]

Performance: 10.873 ns/day, 2.207 hours/ns, 2516.897 timesteps/s, 1.211 Matom-step/s
99.7% CPU use with 64 MPI tasks x 1 OpenMP threads

MPI task timing breakdown:
Section |  min time  |  avg time  |  max time  |%varavg| %total
---------------------------------------------------------------
Pair    | 0.016904   | 0.66538    | 5.0682     | 128.7 |  3.35
Bond    | 0.0054411  | 0.77851    | 4.4775     | 137.4 |  3.92
Neigh   | 0.0181     | 0.019592   | 0.021095   |   0.6 |  0.10
Comm    | 8.1376     | 15.893     | 17.462     |  52.5 | 80.00
Output  | 0.0071143  | 0.014983   | 0.022564   |   4.0 |  0.08
Modify  | 1.1785     | 1.5922     | 2.8797     |  23.2 |  8.01
Other   |            | 0.9017     |            |       |  4.54

Nlocal:        7.51562 ave          30 max           0 min
Histogram: 30 15 3 0 0 0 3 5 6 2
Nghost:        1934.12 ave        2524 max        1419 min
Histogram: 16 0 0 0 32 0 0 0 0 16
Neighs:              0 ave           0 max           0 min
Histogram: 64 0 0 0 0 0 0 0 0 0

Total # of neighbors = 0
Ave neighs/atom = 0
Ave special neighs/atom = 15.567568
Neighbor list builds = 43
Dangerous builds = 0
Generated 0 of 1 mixed pair_coeff terms from geometric mixing rule
Setting up Verlet run ...
  Unit style    : real
  Current step  : 2780000
  Time step     : 0.05
Per MPI rank memory allocation (min/avg/max) = 13.32 | 13.62 | 14.95 Mbytes
   Step          Temp          E_pair         E_mol          TotEng         Press     
   2780000   118.8308       371.91235      18330.361      18872.295     -191.09704    
   2790000   120.23803      372.27125      18322.754      18867.061     -195.24255    
Loop time of 5.1867 on 64 procs for 10000 steps with 481 atoms

Performance: 8.329 ns/day, 2.882 hours/ns, 1928.008 timesteps/s, 927.372 katom-step/s
98.5% CPU use with 64 MPI tasks x 1 OpenMP threads

MPI task timing breakdown:
Section |  min time  |  avg time  |  max time  |%varavg| %total
---------------------------------------------------------------
Pair    | 0.0036189  | 0.13401    | 0.99868    |  57.4 |  2.58
Bond    | 0.0012366  | 0.15769    | 0.91962    |  61.5 |  3.04
Neigh   | 0.0051023  | 0.0057041  | 0.0062126  |   0.4 |  0.11
Comm    | 2.2442     | 3.8061     | 4.1407     |  21.7 | 73.38
Output  | 0.0014486  | 0.0030751  | 0.0046897  |   1.8 |  0.06
Modify  | 0.64226    | 0.75864    | 0.92745    |   6.6 | 14.63
Other   |            | 0.3215     |            |       |  6.20

Nlocal:        7.51562 ave          30 max           0 min
Histogram: 30 15 3 0 0 0 3 4 7 2
Nghost:        1934.12 ave        2524 max        1419 min
Histogram: 16 0 0 0 32 0 0 0 0 16
Neighs:              0 ave           0 max           0 min
Histogram: 64 0 0 0 0 0 0 0 0 0

Total # of neighbors = 0
Ave neighs/atom = 0
Ave special neighs/atom = 15.567568
Neighbor list builds = 13
Dangerous builds = 0
Generated 0 of 1 mixed pair_coeff terms from geometric mixing rule
Setting up Verlet run ...
  Unit style    : real
  Current step  : 2790000
  Time step     : 0.05
Per MPI rank memory allocation (min/avg/max) = 13.32 | 13.62 | 14.95 Mbytes
   Step          Temp          E_pair         E_mol          TotEng         Press     
   2790000   120.23803      372.27125      18322.754      18867.061     -195.24255    
   2800000   114.15844      381.54167      18322.096      18866.974      112.11341    
   2810000   116.06695      373.68712      18333.488      18873.242     -183.28165    
   2820000   130.85133      372.76329      18328.541      18888.525     -178.88344    
   2830000   124.47742      380.00881      18336.925      18895.034     -0.61623549   
   2840000   121.37521      375.3056       18332.263      18881.231     -89.978311    
Loop time of 21.9788 on 64 procs for 50000 steps with 481 atoms

Performance: 9.828 ns/day, 2.442 hours/ns, 2274.917 timesteps/s, 1.094 Matom-step/s
99.4% CPU use with 64 MPI tasks x 1 OpenMP threads

MPI task timing breakdown:
Section |  min time  |  avg time  |  max time  |%varavg| %total
---------------------------------------------------------------
Pair    | 0.01847    | 0.71017    | 4.3407     | 132.6 |  3.23
Bond    | 0.0062541  | 0.79874    | 3.9729     | 136.0 |  3.63
Neigh   | 0.016788   | 0.018363   | 0.020142   |   0.6 |  0.08
Comm    | 10.522     | 16.955     | 18.623     |  52.6 | 77.14
Output  | 0.0074424  | 0.015747   | 0.023754   |   4.1 |  0.07
Modify  | 2.1071     | 2.5229     | 3.6959     |  17.8 | 11.48
Other   |            | 0.9578     |            |       |  4.36

Nlocal:        7.51562 ave          33 max           0 min
Histogram: 38 9 1 0 3 0 5 5 0 3
Nghost:        1933.56 ave        2524 max        1413 min
Histogram: 16 0 0 0 32 0 0 0 0 16
Neighs:              0 ave           0 max           0 min
Histogram: 64 0 0 0 0 0 0 0 0 0

Total # of neighbors = 0
Ave neighs/atom = 0
Ave special neighs/atom = 15.567568
Neighbor list builds = 40
Dangerous builds = 0
Generated 0 of 1 mixed pair_coeff terms from geometric mixing rule
Setting up Verlet run ...
  Unit style    : real
  Current step  : 2840000
  Time step     : 0.05
Per MPI rank memory allocation (min/avg/max) = 13.32 | 13.62 | 14.95 Mbytes
   Step          Temp          E_pair         E_mol          TotEng         Press     
   2840000   121.37521      375.3056       18332.263      18881.231     -89.978311    
   2850000   116.38811      380.25565      18322.444      18869.226      60.966768    
Loop time of 5.54807 on 64 procs for 10000 steps with 481 atoms

Performance: 7.786 ns/day, 3.082 hours/ns, 1802.429 timesteps/s, 866.968 katom-step/s
98.7% CPU use with 64 MPI tasks x 1 OpenMP threads

MPI task timing breakdown:
Section |  min time  |  avg time  |  max time  |%varavg| %total
---------------------------------------------------------------
Pair    | 0.0039561  | 0.16056    | 0.94942    |  64.6 |  2.89
Bond    | 0.0013208  | 0.1764     | 0.90394    |  64.9 |  3.18
Neigh   | 0.0039017  | 0.0054821  | 0.0063375  |   1.2 |  0.10
Comm    | 2.519      | 3.9177     | 4.328      |  25.0 | 70.61
Output  | 0.045441   | 0.056425   | 0.068365   |   3.5 |  1.02
Modify  | 0.76473    | 0.89799    | 1.0576     |   6.7 | 16.19
Other   |            | 0.3335     |            |       |  6.01

Nlocal:        7.51562 ave          31 max           0 min
Histogram: 36 11 1 0 0 3 3 3 2 5
Nghost:        1934.12 ave        2524 max        1415 min
Histogram: 16 0 0 0 32 0 0 0 0 16
Neighs:              0 ave           0 max           0 min
Histogram: 64 0 0 0 0 0 0 0 0 0

Total # of neighbors = 0
Ave neighs/atom = 0
Ave special neighs/atom = 15.567568
Neighbor list builds = 8
Dangerous builds = 0
Generated 0 of 1 mixed pair_coeff terms from geometric mixing rule
Setting up Verlet run ...
  Unit style    : real
  Current step  : 2850000
  Time step     : 0.05
Per MPI rank memory allocation (min/avg/max) = 13.32 | 13.62 | 14.95 Mbytes
   Step          Temp          E_pair         E_mol          TotEng         Press     
   2850000   116.38811      380.25565      18322.444      18869.226      60.966768    
   2860000   115.19638      377.69099      18321.714      18864.226     -99.862819    
   2870000   120.21365      375.8299       18329.612      18877.442     -119.61789    
   2880000   129.10078      377.8333       18324.502      18887.051     -56.00263     
   2890000   118.46919      373.69935      18336.135      18879.339     -161.59922    
   2900000   120.57607      377.55502      18318.02       18868.094     -68.277953    
Loop time of 33.1917 on 64 procs for 50000 steps with 481 atoms

Performance: 6.508 ns/day, 3.688 hours/ns, 1506.401 timesteps/s, 724.579 katom-step/s
98.2% CPU use with 64 MPI tasks x 1 OpenMP threads

MPI task timing breakdown:
Section |  min time  |  avg time  |  max time  |%varavg| %total
---------------------------------------------------------------
Pair    | 0.021296   | 0.76739    | 3.9939     | 131.9 |  2.31
Bond    | 0.0069041  | 0.8525     | 3.9704     | 139.0 |  2.57
Neigh   | 0.026464   | 0.02807    | 0.029645   |   0.5 |  0.08
Comm    | 16.396     | 22.119     | 23.976     |  48.4 | 66.64
Output  | 0.0076658  | 0.016417   | 0.024598   |   4.2 |  0.05
Modify  | 6.4815     | 7.03       | 8.4242     |  14.4 | 21.18
Other   |            | 2.378      |            |       |  7.16

Nlocal:        7.51562 ave          33 max           0 min
Histogram: 36 12 0 1 1 0 6 3 3 2
Nghost:        1934.12 ave        2524 max        1411 min
Histogram: 16 0 0 0 32 0 0 0 0 16
Neighs:              0 ave           0 max           0 min
Histogram: 64 0 0 0 0 0 0 0 0 0

Total # of neighbors = 0
Ave neighs/atom = 0
Ave special neighs/atom = 15.567568
Neighbor list builds = 38
Dangerous builds = 0
Generated 0 of 1 mixed pair_coeff terms from geometric mixing rule
Setting up Verlet run ...
  Unit style    : real
  Current step  : 2900000
  Time step     : 0.05
Per MPI rank memory allocation (min/avg/max) = 13.32 | 13.62 | 14.95 Mbytes
   Step          Temp          E_pair         E_mol          TotEng         Press     
   2900000   120.57607      377.55502      18318.02       18868.094     -68.277953    
   2910000   118.38239      380.85591      18316.369      18866.606      84.088719    
Loop time of 5.45208 on 64 procs for 10000 steps with 481 atoms

Performance: 7.924 ns/day, 3.029 hours/ns, 1834.161 timesteps/s, 882.231 katom-step/s
98.5% CPU use with 64 MPI tasks x 1 OpenMP threads

MPI task timing breakdown:
Section |  min time  |  avg time  |  max time  |%varavg| %total
---------------------------------------------------------------
Pair    | 0.0041503  | 0.14165    | 0.94756    |  57.6 |  2.60
Bond    | 0.0012186  | 0.16394    | 0.81457    |  61.5 |  3.01
Neigh   | 0.0036536  | 0.0039714  | 0.004478   |   0.3 |  0.07
Comm    | 2.3963     | 3.75       | 4.1073     |  22.2 | 68.78
Output  | 0.0014158  | 0.0029506  | 0.0044644  |   1.8 |  0.05
Modify  | 0.95183    | 1.0496     | 1.4711     |   9.2 | 19.25
Other   |            | 0.34       |            |       |  6.24

Nlocal:        7.51562 ave          33 max           0 min
Histogram: 36 12 0 1 1 2 4 2 4 2
Nghost:        1933.56 ave        2524 max        1411 min
Histogram: 16 0 0 0 32 0 0 0 0 16
Neighs:              0 ave           0 max           0 min
Histogram: 64 0 0 0 0 0 0 0 0 0

Total # of neighbors = 0
Ave neighs/atom = 0
Ave special neighs/atom = 15.567568
Neighbor list builds = 9
Dangerous builds = 0
Generated 0 of 1 mixed pair_coeff terms from geometric mixing rule
Setting up Verlet run ...
  Unit style    : real
  Current step  : 2910000
  Time step     : 0.05
Per MPI rank memory allocation (min/avg/max) = 13.32 | 13.62 | 14.95 Mbytes
   Step          Temp          E_pair         E_mol          TotEng         Press     
   2910000   118.38239      380.85591      18316.369      18866.606      84.088719    
   2920000   121.33662      377.90861      18320.896      18872.412     -54.36        
   2930000   117.36024      375.22425      18337.075      18880.217     -158.05198    
   2940000   124.67333      381.71486      18324.125      18884.221      55.602724    
   2950000   122.07055      377.92835      18329.803      18882.389     -78.615507    
   2960000   119.20218      380.19877      18322.166      18872.918      50.090006    
Loop time of 18.578 on 64 procs for 50000 steps with 481 atoms

Performance: 11.627 ns/day, 2.064 hours/ns, 2691.353 timesteps/s, 1.295 Matom-step/s
100.0% CPU use with 64 MPI tasks x 1 OpenMP threads

MPI task timing breakdown:
Section |  min time  |  avg time  |  max time  |%varavg| %total
---------------------------------------------------------------
Pair    | 0.016437   | 0.65423    | 5.3094     | 126.7 |  3.52
Bond    | 0.0054698  | 0.77976    | 4.4186     | 135.5 |  4.20
Neigh   | 0.01545    | 0.017049   | 0.019128   |   0.7 |  0.09
Comm    | 7.5548     | 15.45      | 16.953     |  52.3 | 83.16
Output  | 0.0070916  | 0.01443    | 0.021571   |   3.8 |  0.08
Modify  | 0.63165    | 1.0067     | 1.4225     |  19.1 |  5.42
Other   |            | 0.656      |            |       |  3.53

Nlocal:        7.51562 ave          32 max           0 min
Histogram: 35 13 0 0 0 1 4 8 2 1
Nghost:        1934.14 ave        2524 max        1421 min
Histogram: 16 0 0 0 32 0 0 0 0 16
Neighs:              0 ave           0 max           0 min
Histogram: 64 0 0 0 0 0 0 0 0 0

Total # of neighbors = 0
Ave neighs/atom = 0
Ave special neighs/atom = 15.567568
Neighbor list builds = 36
Dangerous builds = 0
Generated 0 of 1 mixed pair_coeff terms from geometric mixing rule
Setting up Verlet run ...
  Unit style    : real
  Current step  : 2960000
  Time step     : 0.05
Per MPI rank memory allocation (min/avg/max) = 13.32 | 13.62 | 14.95 Mbytes
   Step          Temp          E_pair         E_mol          TotEng         Press     
   2960000   119.20218      380.19877      18322.166      18872.918      50.090006    
   2970000   111.63141      379.52799      18331.735      18870.984     -28.614689    
Loop time of 3.68314 on 64 procs for 10000 steps with 481 atoms

Performance: 11.729 ns/day, 2.046 hours/ns, 2715.072 timesteps/s, 1.306 Matom-step/s
100.0% CPU use with 64 MPI tasks x 1 OpenMP threads

MPI task timing breakdown:
Section |  min time  |  avg time  |  max time  |%varavg| %total
---------------------------------------------------------------
Pair    | 0.0032186  | 0.131      | 1.0511     |  56.9 |  3.56
Bond    | 0.0010755  | 0.1556     | 0.85592    |  60.5 |  4.22
Neigh   | 0.0028233  | 0.0031268  | 0.0035157  |   0.3 |  0.08
Comm    | 1.5224     | 3.0699     | 3.3651     |  23.5 | 83.35
Output  | 0.0014055  | 0.0028371  | 0.0042599  |   1.7 |  0.08
Modify  | 0.12246    | 0.19171    | 0.30476    |   8.7 |  5.20
Other   |            | 0.129      |            |       |  3.50

Nlocal:        7.51562 ave          29 max           0 min
Histogram: 28 16 4 0 0 1 2 5 4 4
Nghost:        1934.69 ave        2524 max        1415 min
Histogram: 16 0 0 0 32 0 0 0 0 16
Neighs:              0 ave           0 max           0 min
Histogram: 64 0 0 0 0 0 0 0 0 0

Total # of neighbors = 0
Ave neighs/atom = 0
Ave special neighs/atom = 15.567568
Neighbor list builds = 7
Dangerous builds = 0
Generated 0 of 1 mixed pair_coeff terms from geometric mixing rule
Setting up Verlet run ...
  Unit style    : real
  Current step  : 2970000
  Time step     : 0.05
Per MPI rank memory allocation (min/avg/max) = 13.32 | 13.62 | 14.95 Mbytes
   Step          Temp          E_pair         E_mol          TotEng         Press     
   2970000   111.63141      379.52799      18331.735      18870.984     -28.614689    
   2980000   119.12881      376.62023      18330.102      18877.171     -86.452938    
   2990000   124.53557      381.88593      18329.698      18889.768      120.90361    
   3000000   127.80609      385.3394       18317.806      18886.009      230.33895    
   3010000   125.28308      372.82194      18320.779      18872.854     -219.30209    
   3020000   124.27468      375.19624      18327.077      18880.084     -118.43678    
Loop time of 18.3567 on 64 procs for 50000 steps with 481 atoms

Performance: 11.767 ns/day, 2.040 hours/ns, 2723.806 timesteps/s, 1.310 Matom-step/s
100.0% CPU use with 64 MPI tasks x 1 OpenMP threads

MPI task timing breakdown:
Section |  min time  |  avg time  |  max time  |%varavg| %total
---------------------------------------------------------------
Pair    | 0.016166   | 0.65221    | 5.1861     | 125.7 |  3.55
Bond    | 0.0054417  | 0.77729    | 4.2723     | 134.7 |  4.23
Neigh   | 0.011495   | 0.012764   | 0.014332   |   0.6 |  0.07
Comm    | 7.6394     | 15.216     | 16.739     |  51.9 | 82.89
Output  | 0.0069768  | 0.014147   | 0.021153   |   3.8 |  0.08
Modify  | 0.61103    | 1.0405     | 2.2943     |  28.0 |  5.67
Other   |            | 0.6434     |            |       |  3.50

Nlocal:        7.51562 ave          33 max           0 min
Histogram: 36 12 0 0 1 0 7 5 2 1
Nghost:        1933.58 ave        2524 max        1419 min
Histogram: 16 0 0 0 32 0 0 0 0 16
Neighs:              0 ave           0 max           0 min
Histogram: 64 0 0 0 0 0 0 0 0 0

Total # of neighbors = 0
Ave neighs/atom = 0
Ave special neighs/atom = 15.567568
Neighbor list builds = 28
Dangerous builds = 0
Generated 0 of 1 mixed pair_coeff terms from geometric mixing rule
Setting up Verlet run ...
  Unit style    : real
  Current step  : 3020000
  Time step     : 0.05
Per MPI rank memory allocation (min/avg/max) = 13.32 | 13.62 | 14.95 Mbytes
   Step          Temp          E_pair         E_mol          TotEng         Press     
   3020000   124.27468      375.19624      18327.077      18880.084     -118.43678    
   3030000   127.30784      381.7536       18326.857      18890.761      30.053354    
Loop time of 3.69201 on 64 procs for 10000 steps with 481 atoms

Performance: 11.701 ns/day, 2.051 hours/ns, 2708.553 timesteps/s, 1.303 Matom-step/s
100.0% CPU use with 64 MPI tasks x 1 OpenMP threads

MPI task timing breakdown:
Section |  min time  |  avg time  |  max time  |%varavg| %total
---------------------------------------------------------------
Pair    | 0.0032246  | 0.13025    | 1.062      |  56.6 |  3.53
Bond    | 0.0010821  | 0.15523    | 0.87319    |  60.5 |  4.20
Neigh   | 0.0037414  | 0.004174   | 0.0046802  |   0.3 |  0.11
Comm    | 1.4981     | 3.074      | 3.3826     |  23.4 | 83.26
Output  | 0.0014301  | 0.0028847  | 0.004322   |   1.7 |  0.08
Modify  | 0.12625    | 0.19642    | 0.51107    |  14.9 |  5.32
Other   |            | 0.129      |            |       |  3.50

Nlocal:        7.51562 ave          31 max           0 min
Histogram: 37 11 0 0 0 2 4 2 7 1
Nghost:        1934.69 ave        2523 max        1417 min
Histogram: 16 0 0 0 32 0 0 0 0 16
Neighs:              0 ave           0 max           0 min
Histogram: 64 0 0 0 0 0 0 0 0 0

Total # of neighbors = 0
Ave neighs/atom = 0
Ave special neighs/atom = 15.567568
Neighbor list builds = 9
Dangerous builds = 0
Generated 0 of 1 mixed pair_coeff terms from geometric mixing rule
Setting up Verlet run ...
  Unit style    : real
  Current step  : 3030000
  Time step     : 0.05
Per MPI rank memory allocation (min/avg/max) = 13.32 | 13.62 | 14.95 Mbytes
   Step          Temp          E_pair         E_mol          TotEng         Press     
   3030000   127.30784      381.7536       18326.857      18890.761      30.053354    
   3040000   117.6207       379.47501      18337.69       18885.455     -55.561793    
   3050000   114.37737      373.81464      18331.903      18869.367     -273.68917    
   3060000   114.8225       374.6738       18340.688      18879.649     -155.28019    
   3070000   122.34965      379.85665      18326.074      18880.987     -12.442174    
   3080000   122.49803      378.62102      18323.708      18877.597      65.572732    
Loop time of 18.3023 on 64 procs for 50000 steps with 481 atoms

Performance: 11.802 ns/day, 2.034 hours/ns, 2731.893 timesteps/s, 1.314 Matom-step/s
100.0% CPU use with 64 MPI tasks x 1 OpenMP threads

MPI task timing breakdown:
Section |  min time  |  avg time  |  max time  |%varavg| %total
---------------------------------------------------------------
Pair    | 0.016458   | 0.65483    | 5.1292     | 126.1 |  3.58
Bond    | 0.0055553  | 0.77919    | 4.252      | 135.6 |  4.26
Neigh   | 0.01245    | 0.013838   | 0.015654   |   0.7 |  0.08
Comm    | 7.658      | 15.211     | 16.707     |  52.4 | 83.11
Output  | 0.0069926  | 0.014993   | 0.022887   |   4.3 |  0.08
Modify  | 0.61228    | 0.98544    | 1.7202     |  22.2 |  5.38
Other   |            | 0.6432     |            |       |  3.51

Nlocal:        7.51562 ave          34 max           0 min
Histogram: 36 12 0 1 0 0 4 10 0 1
Nghost:        1934.69 ave        2523 max        1412 min
Histogram: 16 0 0 0 32 0 0 0 0 16
Neighs:              0 ave           0 max           0 min
Histogram: 64 0 0 0 0 0 0 0 0 0

Total # of neighbors = 0
Ave neighs/atom = 0
Ave special neighs/atom = 15.567568
Neighbor list builds = 31
Dangerous builds = 0
Total wall time: 0:19:38
