LAMMPS (27 Jun 2024)
OMP_NUM_THREADS environment is not set. Defaulting to 1 thread. (src/comm.cpp:98)
  using 1 OpenMP thread(s) per MPI task
Reading data file ...
  orthogonal box = (-30 -30 -30) to (30 30 30)
  3 by 4 by 4 MPI processor grid
  reading atoms ...
  480 atoms
  reading velocities ...
  480 velocities
  scanning bonds ...
  2 = max bonds/atom
  scanning angles ...
  3 = max angles/atom
  scanning dihedrals ...
  8 = max dihedrals/atom
  scanning impropers ...
  2 = max impropers/atom
  orthogonal box = (-30 -30 -30) to (30 30 30)
  3 by 4 by 4 MPI processor grid
  reading bonds ...
  676 bonds
  reading angles ...
  1268 angles
  reading dihedrals ...
  2394 dihedrals
  reading impropers ...
  396 impropers
Finding 1-2 1-3 1-4 neighbors ...
  special bond factors lj:    0        0        0       
  special bond factors coul:  0        0        0       
     3 = max # of 1-2 neighbors
     6 = max # of 1-3 neighbors
    18 = max # of 1-4 neighbors
    18 = max # of special neighbors
  special bonds CPU = 0.002 seconds
  read_data CPU = 0.046 seconds
Finding 1-2 1-3 1-4 neighbors ...
  special bond factors lj:    0        0        0.5     
  special bond factors coul:  0        0        0       
     3 = max # of 1-2 neighbors
     6 = max # of 1-3 neighbors
    18 = max # of 1-4 neighbors
    18 = max # of special neighbors
  special bonds CPU = 0.001 seconds
Created 1 atoms
  using lattice units in orthogonal box = (-30 -30 -30) to (30 30 30)
  create_atoms CPU = 0.000 seconds
480 atoms in group C
1 atoms in group H2

CITE-CITE-CITE-CITE-CITE-CITE-CITE-CITE-CITE-CITE-CITE-CITE-CITE

Your simulation uses code contributions which should be cited:
- Type Label Framework: https://doi.org/10.1021/acs.jpcb.3c08419
The log file lists these citations in BibTeX format.

CITE-CITE-CITE-CITE-CITE-CITE-CITE-CITE-CITE-CITE-CITE-CITE-CITE

Generated 0 of 1 mixed pair_coeff terms from geometric mixing rule
Neighbor list info ...
  update: every = 1 steps, delay = 3 steps, check = yes
  max neighbors/atom: 6000, page size: 100000
  master list distance cutoff = 31
  ghost atom cutoff = 31
  binsize = 15.5, bins = 4 4 4
  4 neighbor lists, perpetual/occasional/extra = 4 0 0
  (1) pair lj/cut, perpetual, skip trim from (4)
      attributes: half, newton on, cut 15
      pair build: skip/trim
      stencil: none
      bin: none
  (2) pair sg, perpetual, skip trim from (4)
      attributes: half, newton on, cut 16
      pair build: skip/trim
      stencil: none
      bin: none
  (3) pair cb, perpetual, skip from (4)
      attributes: half, newton on
      pair build: skip
      stencil: none
      bin: none
  (4) neighbor class addition, perpetual
      attributes: half, newton on
      pair build: half/bin/newton
      stencil: half/bin/3d
      bin: standard
Setting up Verlet run ...
  Unit style    : real
  Current step  : 0
  Time step     : 0.05
Per MPI rank memory allocation (min/avg/max) = 13.28 | 13.37 | 13.93 Mbytes
   Step          Temp          E_pair         E_mol          TotEng         Press          Volume    
         0   300            308.43814      19603.922      20341.597     -432.48369      216000       
     10000   308.72719      373.58236      18568.419      19383.724     -313.9945       172136.64    
     20000   322.02648      371.05675      18538.378      19370.187     -418.66256      126544.33    
Loop time of 8.00167 on 48 procs for 20000 steps with 481 atoms

Performance: 10.798 ns/day, 2.223 hours/ns, 2499.479 timesteps/s, 1.202 Matom-step/s
99.8% CPU use with 48 MPI tasks x 1 OpenMP threads

MPI task timing breakdown:
Section |  min time  |  avg time  |  max time  |%varavg| %total
---------------------------------------------------------------
Pair    | 0.12921    | 0.45835    | 2.7233     |  79.5 |  5.73
Bond    | 0.0040669  | 0.42324    | 2.5448     | 113.7 |  5.29
Neigh   | 0.019338   | 0.022128   | 0.024603   |   0.9 |  0.28
Comm    | 1.8086     | 4.6074     | 6.6764     |  71.0 | 57.58
Output  | 0.0033682  | 0.0087772  | 0.015054   |   4.3 |  0.11
Modify  | 0.64679    | 2.209      | 4.8063     | 110.8 | 27.61
Other   |            | 0.2728     |            |       |  3.41

Nlocal:        10.0208 ave          42 max           0 min
Histogram: 21 4 10 5 0 1 0 3 3 1
Nghost:        1907.85 ave        2370 max        1332 min
Histogram: 8 0 0 0 24 0 0 0 0 16
Neighs:              0 ave           0 max           0 min
Histogram: 48 0 0 0 0 0 0 0 0 0

Total # of neighbors = 0
Ave neighs/atom = 0
Ave special neighs/atom = 15.567568
Neighbor list builds = 55
Dangerous builds = 0
Generated 0 of 1 mixed pair_coeff terms from geometric mixing rule
Setting up Verlet run ...
  Unit style    : real
  Current step  : 20000
  Time step     : 0.05
Per MPI rank memory allocation (min/avg/max) = 13.32 | 13.74 | 14.98 Mbytes
   Step          Temp          E_pair         E_mol          TotEng         Press     
     20000   322.02648      371.05675      18538.378      19370.187     -418.66256    
     30000   249.77434      339.84381      18576.333      19273.551     -1089.2605    
Loop time of 3.07224 on 48 procs for 10000 steps with 481 atoms

Performance: 14.061 ns/day, 1.707 hours/ns, 3254.956 timesteps/s, 1.566 Matom-step/s
99.9% CPU use with 48 MPI tasks x 1 OpenMP threads

MPI task timing breakdown:
Section |  min time  |  avg time  |  max time  |%varavg| %total
---------------------------------------------------------------
Pair    | 0.0031222  | 0.14535    | 0.80363    |  55.5 |  4.73
Bond    | 0.0010677  | 0.18333    | 0.76511    |  56.3 |  5.97
Neigh   | 0.043754   | 0.049294   | 0.053477   |   1.0 |  1.60
Comm    | 1.2293     | 2.2429     | 2.7533     |  32.7 | 73.00
Output  | 0.0011416  | 0.0029314  | 0.0048908  |   2.2 |  0.10
Modify  | 0.11585    | 0.34111    | 1.3491     |  71.9 | 11.10
Other   |            | 0.1073     |            |       |  3.49

Nlocal:        10.0208 ave          44 max           0 min
Histogram: 22 5 10 3 0 2 1 2 2 1
Nghost:           1911 ave        2376 max        1329 min
Histogram: 8 0 0 0 24 0 0 0 0 16
Neighs:              0 ave           0 max           0 min
Histogram: 48 0 0 0 0 0 0 0 0 0

Total # of neighbors = 0
Ave neighs/atom = 0
Ave special neighs/atom = 15.567568
Neighbor list builds = 142
Dangerous builds = 0
Generated 0 of 1 mixed pair_coeff terms from geometric mixing rule
Setting up Verlet run ...
  Unit style    : real
  Current step  : 30000
  Time step     : 0.05
Per MPI rank memory allocation (min/avg/max) = 13.32 | 13.78 | 14.98 Mbytes
   Step          Temp          E_pair         E_mol          TotEng         Press     
     30000   249.77434      339.84381      18576.333      19273.551     -1089.2605    
     40000   281.48444      402.66779      18502.784      19308.196      584.41265    
     50000   289.18975      385.48782      18543.651      19342.908      189.84402    
     60000   306.91224      351.59879      18581.534      19372.26      -725.06778    
     70000   308.61669      379.78463      18556.362      19377.712      45.806843    
     80000   290.13388      397.36365      18563.455      19375.939      438.08304    
Loop time of 14.8198 on 48 procs for 50000 steps with 481 atoms

Performance: 14.575 ns/day, 1.647 hours/ns, 3373.869 timesteps/s, 1.623 Matom-step/s
100.0% CPU use with 48 MPI tasks x 1 OpenMP threads

MPI task timing breakdown:
Section |  min time  |  avg time  |  max time  |%varavg| %total
---------------------------------------------------------------
Pair    | 0.015571   | 0.72387    | 4.2094     | 123.6 |  4.88
Bond    | 0.0053247  | 0.91745    | 3.796      | 125.9 |  6.19
Neigh   | 0.072116   | 0.081238   | 0.088246   |   1.3 |  0.55
Comm    | 5.5157     | 10.904     | 13.324     |  72.0 | 73.58
Output  | 0.0055588  | 0.012612   | 0.020065   |   4.2 |  0.09
Modify  | 0.5623     | 1.6398     | 6.4678     | 154.9 | 11.07
Other   |            | 0.5403     |            |       |  3.65

Nlocal:        10.0208 ave          43 max           0 min
Histogram: 21 3 14 2 0 1 1 4 1 1
Nghost:         1936.6 ave        2421 max        1336 min
Histogram: 8 0 0 0 24 0 0 0 0 16
Neighs:              0 ave           0 max           0 min
Histogram: 48 0 0 0 0 0 0 0 0 0

Total # of neighbors = 0
Ave neighs/atom = 0
Ave special neighs/atom = 15.567568
Neighbor list builds = 230
Dangerous builds = 0
Generated 0 of 1 mixed pair_coeff terms from geometric mixing rule
Setting up Verlet run ...
  Unit style    : real
  Current step  : 80000
  Time step     : 0.05
Per MPI rank memory allocation (min/avg/max) = 13.32 | 13.83 | 14.98 Mbytes
   Step          Temp          E_pair         E_mol          TotEng         Press     
     80000   290.13388      397.36365      18563.455      19375.939      438.08304    
     90000   290.66696      366.32598      18567.065      19349.274     -352.67882    
Loop time of 3.00222 on 48 procs for 10000 steps with 481 atoms

Performance: 14.389 ns/day, 1.668 hours/ns, 3330.874 timesteps/s, 1.602 Matom-step/s
100.0% CPU use with 48 MPI tasks x 1 OpenMP threads

MPI task timing breakdown:
Section |  min time  |  avg time  |  max time  |%varavg| %total
---------------------------------------------------------------
Pair    | 0.0031424  | 0.14439    | 0.84317    |  55.3 |  4.81
Bond    | 0.0010647  | 0.18336    | 0.74742    |  56.2 |  6.11
Neigh   | 0.0038905  | 0.004357   | 0.0047164  |   0.3 |  0.15
Comm    | 1.1443     | 2.226      | 2.722      |  32.5 | 74.15
Output  | 0.0011167  | 0.0023156  | 0.0035864  |   1.6 |  0.08
Modify  | 0.10735    | 0.33415    | 1.3552     |  71.7 | 11.13
Other   |            | 0.1076     |            |       |  3.59

Nlocal:        10.0208 ave          42 max           0 min
Histogram: 22 4 10 4 0 1 1 2 3 1
Nghost:        1930.73 ave        2412 max        1337 min
Histogram: 8 0 0 0 24 0 0 0 0 16
Neighs:              0 ave           0 max           0 min
Histogram: 48 0 0 0 0 0 0 0 0 0

Total # of neighbors = 0
Ave neighs/atom = 0
Ave special neighs/atom = 15.567568
Neighbor list builds = 12
Dangerous builds = 0
Generated 0 of 1 mixed pair_coeff terms from geometric mixing rule
Setting up Verlet run ...
  Unit style    : real
  Current step  : 90000
  Time step     : 0.05
Per MPI rank memory allocation (min/avg/max) = 13.32 | 13.83 | 14.98 Mbytes
   Step          Temp          E_pair         E_mol          TotEng         Press     
     90000   290.66696      366.32598      18567.065      19349.274     -352.67882    
    100000   288.27555      364.73929      18564.796      19341.997     -297.40209    
    110000   293.34369      388.43812      18547.377      19355.528      435.87851    
    120000   306.5521       373.87392      18571.374      19383.86      -106.80376    
    130000   313.66153      361.00255      18579.527      19389.313     -487.60865    
    140000   299.3483       384.27003      18552.683      19365.257      191.15505    
Loop time of 14.6493 on 48 procs for 50000 steps with 481 atoms

Performance: 14.745 ns/day, 1.628 hours/ns, 3413.136 timesteps/s, 1.642 Matom-step/s
100.0% CPU use with 48 MPI tasks x 1 OpenMP threads

MPI task timing breakdown:
Section |  min time  |  avg time  |  max time  |%varavg| %total
---------------------------------------------------------------
Pair    | 0.015885   | 0.72309    | 4.1623     | 123.0 |  4.94
Bond    | 0.0053011  | 0.91698    | 3.8208     | 125.5 |  6.26
Neigh   | 0.032186   | 0.036239   | 0.039217   |   0.8 |  0.25
Comm    | 5.6534     | 10.793     | 13.139     |  71.5 | 73.67
Output  | 0.0054704  | 0.010906   | 0.016449   |   3.4 |  0.07
Modify  | 0.55043    | 1.6307     | 6.5039     | 153.3 | 11.13
Other   |            | 0.5388     |            |       |  3.68

Nlocal:        10.0208 ave          40 max           0 min
Histogram: 21 2 10 5 2 0 2 0 3 3
Nghost:        1928.73 ave        2409 max        1334 min
Histogram: 8 0 0 0 24 0 0 0 0 16
Neighs:              0 ave           0 max           0 min
Histogram: 48 0 0 0 0 0 0 0 0 0

Total # of neighbors = 0
Ave neighs/atom = 0
Ave special neighs/atom = 15.567568
Neighbor list builds = 101
Dangerous builds = 0
Generated 0 of 1 mixed pair_coeff terms from geometric mixing rule
Setting up Verlet run ...
  Unit style    : real
  Current step  : 140000
  Time step     : 0.05
Per MPI rank memory allocation (min/avg/max) = 13.32 | 13.84 | 14.98 Mbytes
   Step          Temp          E_pair         E_mol          TotEng         Press     
    140000   299.3483       384.27003      18552.683      19365.257      191.15505    
    150000   307.66326      384.43141      18539.707      19364.34       270.14594    
Loop time of 2.99051 on 48 procs for 10000 steps with 481 atoms

Performance: 14.446 ns/day, 1.661 hours/ns, 3343.915 timesteps/s, 1.608 Matom-step/s
100.0% CPU use with 48 MPI tasks x 1 OpenMP threads

MPI task timing breakdown:
Section |  min time  |  avg time  |  max time  |%varavg| %total
---------------------------------------------------------------
Pair    | 0.0030898  | 0.14456    | 0.78038    |  54.7 |  4.83
Bond    | 0.0010579  | 0.1833     | 0.81405    |  56.2 |  6.13
Neigh   | 0.003944   | 0.0044325  | 0.0047636  |   0.3 |  0.15
Comm    | 1.2278     | 2.2117     | 2.709      |  31.8 | 73.96
Output  | 0.0011763  | 0.0021981  | 0.0032442  |   1.4 |  0.07
Modify  | 0.11029    | 0.33579    | 1.3041     |  69.3 | 11.23
Other   |            | 0.1086     |            |       |  3.63

Nlocal:        10.0208 ave          42 max           0 min
Histogram: 21 4 10 5 0 1 1 3 0 3
Nghost:        1936.73 ave        2422 max        1334 min
Histogram: 8 0 0 0 24 0 0 0 0 16
Neighs:              0 ave           0 max           0 min
Histogram: 48 0 0 0 0 0 0 0 0 0

Total # of neighbors = 0
Ave neighs/atom = 0
Ave special neighs/atom = 15.567568
Neighbor list builds = 12
Dangerous builds = 0
Generated 0 of 1 mixed pair_coeff terms from geometric mixing rule
Setting up Verlet run ...
  Unit style    : real
  Current step  : 150000
  Time step     : 0.05
Per MPI rank memory allocation (min/avg/max) = 13.32 | 13.84 | 14.98 Mbytes
   Step          Temp          E_pair         E_mol          TotEng         Press     
    150000   307.66326      384.43141      18539.707      19364.34       270.14594    
    160000   294.87028      360.50718      18611.962      19394.367     -416.17894    
    170000   310.39511      374.69374      18562.812      19381.615     -128.42354    
    180000   299.67931      385.48372      18532.694      19346.956      331.60058    
    190000   297.69867      364.92894      18558.013      19348.886     -335.56499    
    200000   326.20261      368.71962      18550.406      19385.852     -196.02699    
Loop time of 14.7621 on 48 procs for 50000 steps with 481 atoms

Performance: 14.632 ns/day, 1.640 hours/ns, 3387.043 timesteps/s, 1.629 Matom-step/s
100.0% CPU use with 48 MPI tasks x 1 OpenMP threads

MPI task timing breakdown:
Section |  min time  |  avg time  |  max time  |%varavg| %total
---------------------------------------------------------------
Pair    | 0.015486   | 0.7216     | 3.9399     | 122.6 |  4.89
Bond    | 0.0053259  | 0.91458    | 3.8143     | 125.4 |  6.20
Neigh   | 0.024031   | 0.027059   | 0.029214   |   0.7 |  0.18
Comm    | 6.0005     | 10.859     | 13.196     |  70.9 | 73.56
Output  | 0.0055647  | 0.010701   | 0.015805   |   3.2 |  0.07
Modify  | 0.56351    | 1.6899     | 6.6357     | 153.7 | 11.45
Other   |            | 0.5391     |            |       |  3.65

Nlocal:        10.0208 ave          40 max           0 min
Histogram: 20 4 7 8 1 0 1 2 2 3
Nghost:        1920.48 ave        2394 max        1333 min
Histogram: 8 0 0 0 24 0 0 0 0 16
Neighs:              0 ave           0 max           0 min
Histogram: 48 0 0 0 0 0 0 0 0 0

Total # of neighbors = 0
Ave neighs/atom = 0
Ave special neighs/atom = 15.567568
Neighbor list builds = 75
Dangerous builds = 0
Generated 0 of 1 mixed pair_coeff terms from geometric mixing rule
Setting up Verlet run ...
  Unit style    : real
  Current step  : 200000
  Time step     : 0.05
Per MPI rank memory allocation (min/avg/max) = 13.32 | 13.85 | 14.98 Mbytes
   Step          Temp          E_pair         E_mol          TotEng         Press     
    200000   326.20261      368.71962      18550.406      19385.852     -196.02699    
    210000   304.44979      383.46714      18554.157      19373.228      173.9043     
Loop time of 2.99068 on 48 procs for 10000 steps with 481 atoms

Performance: 14.445 ns/day, 1.661 hours/ns, 3343.724 timesteps/s, 1.608 Matom-step/s
100.0% CPU use with 48 MPI tasks x 1 OpenMP threads

MPI task timing breakdown:
Section |  min time  |  avg time  |  max time  |%varavg| %total
---------------------------------------------------------------
Pair    | 0.0030767  | 0.145      | 0.83019    |  55.4 |  4.85
Bond    | 0.0010684  | 0.18349    | 0.77582    |  56.4 |  6.14
Neigh   | 0.0035628  | 0.0040137  | 0.0043373  |   0.3 |  0.13
Comm    | 1.1936     | 2.2166     | 2.7166     |  32.5 | 74.12
Output  | 0.0011124  | 0.0021177  | 0.0031472  |   1.4 |  0.07
Modify  | 0.11076    | 0.33191    | 1.3439     |  71.3 | 11.10
Other   |            | 0.1075     |            |       |  3.59

Nlocal:        10.0208 ave          41 max           0 min
Histogram: 22 3 10 5 0 2 0 0 4 2
Nghost:        1928.85 ave        2409 max        1338 min
Histogram: 8 0 0 0 24 0 0 0 0 16
Neighs:              0 ave           0 max           0 min
Histogram: 48 0 0 0 0 0 0 0 0 0

Total # of neighbors = 0
Ave neighs/atom = 0
Ave special neighs/atom = 15.567568
Neighbor list builds = 11
Dangerous builds = 0
Generated 0 of 1 mixed pair_coeff terms from geometric mixing rule
Setting up Verlet run ...
  Unit style    : real
  Current step  : 210000
  Time step     : 0.05
Per MPI rank memory allocation (min/avg/max) = 13.32 | 13.85 | 14.98 Mbytes
   Step          Temp          E_pair         E_mol          TotEng         Press     
    210000   304.44979      383.46714      18554.157      19373.228      173.9043     
    220000   300.0265       363.35543      18565.729      19358.359     -419.59003    
    230000   300.59264      371.60984      18552.45       19354.145     -46.79828     
    240000   305.14911      379.80804      18530.956      19347.368     -16.457462    
    250000   315.34853      370.24268      18570.288      19391.728     -229.73415    
    260000   292.65536      376.63334      18553.593      19348.954      14.155678    
Loop time of 14.9419 on 48 procs for 50000 steps with 481 atoms

Performance: 14.456 ns/day, 1.660 hours/ns, 3346.290 timesteps/s, 1.610 Matom-step/s
100.0% CPU use with 48 MPI tasks x 1 OpenMP threads

MPI task timing breakdown:
Section |  min time  |  avg time  |  max time  |%varavg| %total
---------------------------------------------------------------
Pair    | 0.015491   | 0.72329    | 4.1457     | 124.7 |  4.84
Bond    | 0.005311   | 0.91628    | 3.9409     | 126.2 |  6.13
Neigh   | 0.029152   | 0.032713   | 0.035212   |   0.8 |  0.22
Comm    | 5.6867     | 11.019     | 13.348     |  72.3 | 73.75
Output  | 0.0055838  | 0.010604   | 0.015614   |   3.1 |  0.07
Modify  | 0.5626     | 1.7008     | 6.7657     | 156.8 | 11.38
Other   |            | 0.539      |            |       |  3.61

Nlocal:        10.0208 ave          42 max           0 min
Histogram: 22 3 11 3 1 0 2 3 1 2
Nghost:        1929.23 ave        2406 max        1331 min
Histogram: 8 0 0 0 24 0 0 0 0 16
Neighs:              0 ave           0 max           0 min
Histogram: 48 0 0 0 0 0 0 0 0 0

Total # of neighbors = 0
Ave neighs/atom = 0
Ave special neighs/atom = 15.567568
Neighbor list builds = 88
Dangerous builds = 0
Generated 0 of 1 mixed pair_coeff terms from geometric mixing rule
Setting up Verlet run ...
  Unit style    : real
  Current step  : 260000
  Time step     : 0.05
Per MPI rank memory allocation (min/avg/max) = 13.32 | 13.85 | 14.98 Mbytes
   Step          Temp          E_pair         E_mol          TotEng         Press     
    260000   292.65536      376.63334      18553.593      19348.954      14.155678    
    270000   283.24989      383.1465       18537.097      19325.514      258.10927    
Loop time of 2.98862 on 48 procs for 10000 steps with 481 atoms

Performance: 14.455 ns/day, 1.660 hours/ns, 3346.025 timesteps/s, 1.609 Matom-step/s
100.0% CPU use with 48 MPI tasks x 1 OpenMP threads

MPI task timing breakdown:
Section |  min time  |  avg time  |  max time  |%varavg| %total
---------------------------------------------------------------
Pair    | 0.0031212  | 0.14496    | 0.872      |  56.4 |  4.85
Bond    | 0.0010604  | 0.18328    | 0.83734    |  56.7 |  6.13
Neigh   | 0.0046094  | 0.0052047  | 0.0056069  |   0.3 |  0.17
Comm    | 1.0501     | 2.2053     | 2.7066     |  32.3 | 73.79
Output  | 0.0010877  | 0.0020545  | 0.0030858  |   1.4 |  0.07
Modify  | 0.11101    | 0.34047    | 1.3591     |  69.8 | 11.39
Other   |            | 0.1073     |            |       |  3.59

Nlocal:        10.0208 ave          40 max           0 min
Histogram: 17 8 7 7 1 0 0 3 3 2
Nghost:        1931.23 ave        2410 max        1333 min
Histogram: 8 0 0 0 24 0 0 0 0 16
Neighs:              0 ave           0 max           0 min
Histogram: 48 0 0 0 0 0 0 0 0 0

Total # of neighbors = 0
Ave neighs/atom = 0
Ave special neighs/atom = 15.567568
Neighbor list builds = 14
Dangerous builds = 0
Generated 0 of 1 mixed pair_coeff terms from geometric mixing rule
Setting up Verlet run ...
  Unit style    : real
  Current step  : 270000
  Time step     : 0.05
Per MPI rank memory allocation (min/avg/max) = 13.32 | 13.85 | 14.98 Mbytes
   Step          Temp          E_pair         E_mol          TotEng         Press     
    270000   283.24989      383.1465       18537.097      19325.514      258.10927    
    280000   290.92718      359.72948      18541.925      19317.91      -338.31969    
    290000   295.09102      368.58394      18526.827      19317.623     -55.157187    
    300000   306.88823      383.30425      18533.828      19356.224      301.53158    
    310000   308.29487      374.81906      18532.603      19348.527      21.20007     
    320000   312.8908       371.47337      18497.921      19317.075     -111.85208    
Loop time of 14.9297 on 48 procs for 50000 steps with 481 atoms

Performance: 14.468 ns/day, 1.659 hours/ns, 3349.031 timesteps/s, 1.611 Matom-step/s
100.0% CPU use with 48 MPI tasks x 1 OpenMP threads

MPI task timing breakdown:
Section |  min time  |  avg time  |  max time  |%varavg| %total
---------------------------------------------------------------
Pair    | 0.015432   | 0.723      | 4.2455     | 125.1 |  4.84
Bond    | 0.0053132  | 0.91679    | 4.0698     | 126.8 |  6.14
Neigh   | 0.027123   | 0.030544   | 0.032991   |   0.8 |  0.20
Comm    | 5.4484     | 11.051     | 13.405     |  72.7 | 74.02
Output  | 0.0056126  | 0.010578   | 0.015555   |   3.1 |  0.07
Modify  | 0.55952    | 1.6598     | 6.7388     | 157.5 | 11.12
Other   |            | 0.5385     |            |       |  3.61

Nlocal:        10.0208 ave          43 max           0 min
Histogram: 22 6 7 5 0 1 3 0 1 3
Nghost:        1928.73 ave        2422 max        1330 min
Histogram: 8 0 0 0 24 0 0 0 0 16
Neighs:              0 ave           0 max           0 min
Histogram: 48 0 0 0 0 0 0 0 0 0

Total # of neighbors = 0
Ave neighs/atom = 0
Ave special neighs/atom = 15.567568
Neighbor list builds = 83
Dangerous builds = 0
Generated 0 of 1 mixed pair_coeff terms from geometric mixing rule
Setting up Verlet run ...
  Unit style    : real
  Current step  : 320000
  Time step     : 0.05
Per MPI rank memory allocation (min/avg/max) = 13.32 | 13.86 | 14.98 Mbytes
   Step          Temp          E_pair         E_mol          TotEng         Press     
    320000   312.8908       371.47337      18497.921      19317.075     -111.85208    
    330000   293.67285      381.13754      18543.179      19344.5        188.46022    
Loop time of 2.97703 on 48 procs for 10000 steps with 481 atoms

Performance: 14.511 ns/day, 1.654 hours/ns, 3359.049 timesteps/s, 1.616 Matom-step/s
100.0% CPU use with 48 MPI tasks x 1 OpenMP threads

MPI task timing breakdown:
Section |  min time  |  avg time  |  max time  |%varavg| %total
---------------------------------------------------------------
Pair    | 0.0030545  | 0.1448     | 0.84902    |  56.1 |  4.86
Bond    | 0.0010594  | 0.18329    | 0.80943    |  56.6 |  6.16
Neigh   | 0.0063281  | 0.0070969  | 0.0076861  |   0.4 |  0.24
Comm    | 1.0759     | 2.1983     | 2.6826     |  32.4 | 73.84
Output  | 0.0011602  | 0.0021545  | 0.0031786  |   1.4 |  0.07
Modify  | 0.11615    | 0.3332     | 1.3265     |  69.1 | 11.19
Other   |            | 0.1082     |            |       |  3.63

Nlocal:        10.0208 ave          49 max           0 min
Histogram: 22 6 10 3 1 0 2 2 1 1
Nghost:        1930.73 ave        2410 max        1324 min
Histogram: 8 0 0 0 24 0 0 0 0 16
Neighs:              0 ave           0 max           0 min
Histogram: 48 0 0 0 0 0 0 0 0 0

Total # of neighbors = 0
Ave neighs/atom = 0
Ave special neighs/atom = 15.567568
Neighbor list builds = 19
Dangerous builds = 0
Generated 0 of 1 mixed pair_coeff terms from geometric mixing rule
Setting up Verlet run ...
  Unit style    : real
  Current step  : 330000
  Time step     : 0.05
Per MPI rank memory allocation (min/avg/max) = 13.32 | 13.86 | 14.98 Mbytes
   Step          Temp          E_pair         E_mol          TotEng         Press     
    330000   293.67285      381.13754      18543.179      19344.5        188.46022    
    340000   310.10072      374.9509       18515.765      19334.405     -127.98272    
    350000   301.5021       377.65987      18555.76       19364.806      35.167786    
    360000   296.34401      381.55712      18553.198      19358.761      17.183633    
    370000   325.37987      373.59988      18521.13       19360.279     -70.669684    
    380000   299.86101      363.94179      18539.196      19332.175     -228.55955    
Loop time of 14.887 on 48 procs for 50000 steps with 481 atoms

Performance: 14.509 ns/day, 1.654 hours/ns, 3358.640 timesteps/s, 1.616 Matom-step/s
100.0% CPU use with 48 MPI tasks x 1 OpenMP threads

MPI task timing breakdown:
Section |  min time  |  avg time  |  max time  |%varavg| %total
---------------------------------------------------------------
Pair    | 0.015429   | 0.72302    | 4.0563     | 124.1 |  4.86
Bond    | 0.0053097  | 0.91644    | 3.8857     | 126.2 |  6.16
Neigh   | 0.020314   | 0.022976   | 0.024896   |   0.7 |  0.15
Comm    | 5.7908     | 11.007     | 13.359     |  72.1 | 73.94
Output  | 0.0056628  | 0.010641   | 0.015574   |   3.1 |  0.07
Modify  | 0.55829    | 1.6679     | 6.6901     | 156.7 | 11.20
Other   |            | 0.5388     |            |       |  3.62

Nlocal:        10.0208 ave          44 max           0 min
Histogram: 22 4 12 1 1 1 1 4 1 1
Nghost:        1922.98 ave        2402 max        1329 min
Histogram: 8 0 0 0 24 0 0 0 0 16
Neighs:              0 ave           0 max           0 min
Histogram: 48 0 0 0 0 0 0 0 0 0

Total # of neighbors = 0
Ave neighs/atom = 0
Ave special neighs/atom = 15.567568
Neighbor list builds = 64
Dangerous builds = 0
Generated 0 of 1 mixed pair_coeff terms from geometric mixing rule
Setting up Verlet run ...
  Unit style    : real
  Current step  : 380000
  Time step     : 0.05
Per MPI rank memory allocation (min/avg/max) = 13.32 | 13.86 | 14.98 Mbytes
   Step          Temp          E_pair         E_mol          TotEng         Press     
    380000   299.86101      363.94179      18539.196      19332.175     -228.55955    
    390000   281.60216      380.67561      18521.859      19305.448      200.57801    
Loop time of 3.00764 on 48 procs for 10000 steps with 481 atoms

Performance: 14.363 ns/day, 1.671 hours/ns, 3324.864 timesteps/s, 1.599 Matom-step/s
100.0% CPU use with 48 MPI tasks x 1 OpenMP threads

MPI task timing breakdown:
Section |  min time  |  avg time  |  max time  |%varavg| %total
---------------------------------------------------------------
Pair    | 0.0030918  | 0.14486    | 0.83603    |  55.7 |  4.82
Bond    | 0.0010673  | 0.18327    | 0.86545    |  56.9 |  6.09
Neigh   | 0.003951   | 0.0044605  | 0.0048622  |   0.3 |  0.15
Comm    | 1.1413     | 2.2248     | 2.7219     |  33.0 | 73.97
Output  | 0.0011228  | 0.0020884  | 0.0030886  |   1.3 |  0.07
Modify  | 0.11009    | 0.34016    | 1.3733     |  71.8 | 11.31
Other   |            | 0.108      |            |       |  3.59

Nlocal:        10.0208 ave          39 max           0 min
Histogram: 20 3 9 8 0 0 1 2 3 2
Nghost:         1932.1 ave        2419 max        1335 min
Histogram: 8 0 0 0 24 0 0 0 0 16
Neighs:              0 ave           0 max           0 min
Histogram: 48 0 0 0 0 0 0 0 0 0

Total # of neighbors = 0
Ave neighs/atom = 0
Ave special neighs/atom = 15.567568
Neighbor list builds = 12
Dangerous builds = 0
Generated 0 of 1 mixed pair_coeff terms from geometric mixing rule
Setting up Verlet run ...
  Unit style    : real
  Current step  : 390000
  Time step     : 0.05
Per MPI rank memory allocation (min/avg/max) = 13.32 | 13.86 | 14.98 Mbytes
   Step          Temp          E_pair         E_mol          TotEng         Press     
    390000   281.60216      380.67561      18521.859      19305.448      200.57801    
    400000   298.73488      372.74599      18530.62       19330.793     -105.96908    
    410000   300.8722       370.60851      18533.832      19334.925     -168.78904    
    420000   303.01934      378.75891      18538.671      19350.986      194.44113    
    430000   316.9268       375.37576      18556.36       19385.192     -148.927      
    440000   304.87462      372.05431      18575.518      19383.784     -125.85633    
Loop time of 14.9749 on 48 procs for 50000 steps with 481 atoms

Performance: 14.424 ns/day, 1.664 hours/ns, 3338.912 timesteps/s, 1.606 Matom-step/s
100.0% CPU use with 48 MPI tasks x 1 OpenMP threads

MPI task timing breakdown:
Section |  min time  |  avg time  |  max time  |%varavg| %total
---------------------------------------------------------------
Pair    | 0.015399   | 0.72381    | 4.0603     | 123.7 |  4.83
Bond    | 0.0053389  | 0.9165     | 4.1538     | 126.5 |  6.12
Neigh   | 0.02046    | 0.023084   | 0.024958   |   0.7 |  0.15
Comm    | 5.8899     | 11.076     | 13.384     |  72.2 | 73.96
Output  | 0.0056141  | 0.010547   | 0.015474   |   3.1 |  0.07
Modify  | 0.55138    | 1.6848     | 6.5795     | 156.9 | 11.25
Other   |            | 0.5401     |            |       |  3.61

Nlocal:        10.0208 ave          43 max           0 min
Histogram: 20 6 11 3 0 1 3 0 2 2
Nghost:        1931.23 ave        2414 max        1330 min
Histogram: 8 0 0 0 24 0 0 0 0 16
Neighs:              0 ave           0 max           0 min
Histogram: 48 0 0 0 0 0 0 0 0 0

Total # of neighbors = 0
Ave neighs/atom = 0
Ave special neighs/atom = 15.567568
Neighbor list builds = 63
Dangerous builds = 0
Generated 0 of 1 mixed pair_coeff terms from geometric mixing rule
Setting up Verlet run ...
  Unit style    : real
  Current step  : 440000
  Time step     : 0.05
Per MPI rank memory allocation (min/avg/max) = 13.32 | 13.86 | 14.98 Mbytes
   Step          Temp          E_pair         E_mol          TotEng         Press     
    440000   304.87462      372.05431      18575.518      19383.784     -125.85633    
    450000   312.48358      368.87389      18509.077      19325.049     -255.61388    
Loop time of 3.01936 on 48 procs for 10000 steps with 481 atoms

Performance: 14.308 ns/day, 1.677 hours/ns, 3311.963 timesteps/s, 1.593 Matom-step/s
100.0% CPU use with 48 MPI tasks x 1 OpenMP threads

MPI task timing breakdown:
Section |  min time  |  avg time  |  max time  |%varavg| %total
---------------------------------------------------------------
Pair    | 0.0030826  | 0.1448     | 0.76945    |  55.3 |  4.80
Bond    | 0.0010711  | 0.18296    | 0.80123    |  56.6 |  6.06
Neigh   | 0.0060801  | 0.0068606  | 0.007464   |   0.4 |  0.23
Comm    | 1.2816     | 2.2326     | 2.7304     |  32.3 | 73.94
Output  | 0.0010951  | 0.0020793  | 0.0030932  |   1.4 |  0.07
Modify  | 0.10877    | 0.34264    | 1.3744     |  71.2 | 11.35
Other   |            | 0.1075     |            |       |  3.56

Nlocal:        10.0208 ave          47 max           0 min
Histogram: 20 8 10 3 0 1 0 5 0 1
Nghost:         1928.6 ave        2408 max        1337 min
Histogram: 8 0 0 0 24 0 0 0 0 16
Neighs:              0 ave           0 max           0 min
Histogram: 48 0 0 0 0 0 0 0 0 0

Total # of neighbors = 0
Ave neighs/atom = 0
Ave special neighs/atom = 15.567568
Neighbor list builds = 19
Dangerous builds = 0
Generated 0 of 1 mixed pair_coeff terms from geometric mixing rule
Setting up Verlet run ...
  Unit style    : real
  Current step  : 450000
  Time step     : 0.05
Per MPI rank memory allocation (min/avg/max) = 13.32 | 13.86 | 14.98 Mbytes
   Step          Temp          E_pair         E_mol          TotEng         Press     
    450000   312.48358      368.87389      18509.077      19325.049     -255.61388    
    460000   279.63938      379.02863      18536.637      19315.77       82.65873     
    470000   306.05876      370.93839      18521.213      19330.057     -82.02335     
    480000   295.69984      367.0987       18554.81       19344.993     -222.66846    
    490000   294.9988       377.80508      18530.555      19330.441      215.11047    
    500000   297.34538      376.6971       18499.544      19301.679     -63.012752    
Loop time of 14.8429 on 48 procs for 50000 steps with 481 atoms

Performance: 14.552 ns/day, 1.649 hours/ns, 3368.615 timesteps/s, 1.620 Matom-step/s
100.0% CPU use with 48 MPI tasks x 1 OpenMP threads

MPI task timing breakdown:
Section |  min time  |  avg time  |  max time  |%varavg| %total
---------------------------------------------------------------
Pair    | 0.015484   | 0.72415    | 3.8721     | 124.1 |  4.88
Bond    | 0.0053164  | 0.91587    | 3.9627     | 126.4 |  6.17
Neigh   | 0.024383   | 0.027653   | 0.029988   |   0.8 |  0.19
Comm    | 5.975      | 10.96      | 13.393     |  72.3 | 73.84
Output  | 0.0056921  | 0.010645   | 0.015587   |   3.1 |  0.07
Modify  | 0.55458    | 1.6662     | 6.5865     | 156.3 | 11.23
Other   |            | 0.5379     |            |       |  3.62

Nlocal:        10.0208 ave          39 max           0 min
Histogram: 20 6 8 3 3 0 0 4 1 3
Nghost:         1935.6 ave        2417 max        1334 min
Histogram: 8 0 0 0 24 0 0 0 0 16
Neighs:              0 ave           0 max           0 min
Histogram: 48 0 0 0 0 0 0 0 0 0

Total # of neighbors = 0
Ave neighs/atom = 0
Ave special neighs/atom = 15.567568
Neighbor list builds = 78
Dangerous builds = 0
Generated 0 of 1 mixed pair_coeff terms from geometric mixing rule
Setting up Verlet run ...
  Unit style    : real
  Current step  : 500000
  Time step     : 0.05
Per MPI rank memory allocation (min/avg/max) = 13.32 | 13.86 | 14.98 Mbytes
   Step          Temp          E_pair         E_mol          TotEng         Press     
    500000   297.34538      376.6971       18499.544      19301.679     -63.012752    
    510000   307.98299      374.8613       18512.154      19327.674     -56.085019    
Loop time of 3.08611 on 48 procs for 10000 steps with 481 atoms

Performance: 13.998 ns/day, 1.715 hours/ns, 3240.325 timesteps/s, 1.559 Matom-step/s
100.0% CPU use with 48 MPI tasks x 1 OpenMP threads

MPI task timing breakdown:
Section |  min time  |  avg time  |  max time  |%varavg| %total
---------------------------------------------------------------
Pair    | 0.0030846  | 0.14509    | 0.83072    |  56.2 |  4.70
Bond    | 0.0010623  | 0.18312    | 0.8057     |  56.8 |  5.93
Neigh   | 0.0042606  | 0.0048274  | 0.0052285  |   0.3 |  0.16
Comm    | 1.226      | 2.2918     | 2.7953     |  33.1 | 74.26
Output  | 0.0011546  | 0.0021188  | 0.0031076  |   1.3 |  0.07
Modify  | 0.1128     | 0.35123    | 1.4177     |  74.3 | 11.38
Other   |            | 0.108      |            |       |  3.50

Nlocal:        10.0208 ave          52 max           0 min
Histogram: 22 10 6 4 1 0 2 1 1 1
Nghost:        1934.48 ave        2418 max        1321 min
Histogram: 8 0 0 0 24 0 0 0 0 16
Neighs:              0 ave           0 max           0 min
Histogram: 48 0 0 0 0 0 0 0 0 0

Total # of neighbors = 0
Ave neighs/atom = 0
Ave special neighs/atom = 15.567568
Neighbor list builds = 13
Dangerous builds = 0
Generated 0 of 1 mixed pair_coeff terms from geometric mixing rule
Setting up Verlet run ...
  Unit style    : real
  Current step  : 510000
  Time step     : 0.05
Per MPI rank memory allocation (min/avg/max) = 13.32 | 13.86 | 14.98 Mbytes
   Step          Temp          E_pair         E_mol          TotEng         Press     
    510000   307.98299      374.8613       18512.154      19327.674     -56.085019    
    520000   306.5946       372.61167      18537.639      19348.922     -28.438719    
    530000   300.34865      377.43885      18532.881      19340.055     -39.277081    
    540000   291.1093       376.69345      18519.09       19312.299     -27.437006    
    550000   302.61306      380.20095      18521.251      19334.427     -87.404706    
    560000   325.64503      365.45393      18537.857      19369.24      -195.87105    
Loop time of 14.9538 on 48 procs for 50000 steps with 481 atoms

Performance: 14.444 ns/day, 1.662 hours/ns, 3343.621 timesteps/s, 1.608 Matom-step/s
100.0% CPU use with 48 MPI tasks x 1 OpenMP threads

MPI task timing breakdown:
Section |  min time  |  avg time  |  max time  |%varavg| %total
---------------------------------------------------------------
Pair    | 0.015412   | 0.72422    | 3.956      | 125.1 |  4.84
Bond    | 0.0053035  | 0.91553    | 4.0125     | 126.8 |  6.12
Neigh   | 0.01805    | 0.020436   | 0.022172   |   0.7 |  0.14
Comm    | 5.9089     | 11.076     | 13.501     |  73.0 | 74.07
Output  | 0.0057047  | 0.010601   | 0.015469   |   3.0 |  0.07
Modify  | 0.56327    | 1.6689     | 6.668      | 158.7 | 11.16
Other   |            | 0.5385     |            |       |  3.60

Nlocal:        10.0208 ave          46 max           0 min
Histogram: 20 10 7 3 0 1 3 2 1 1
Nghost:        1932.35 ave        2412 max        1327 min
Histogram: 8 0 0 0 24 0 0 0 0 16
Neighs:              0 ave           0 max           0 min
Histogram: 48 0 0 0 0 0 0 0 0 0

Total # of neighbors = 0
Ave neighs/atom = 0
Ave special neighs/atom = 15.567568
Neighbor list builds = 57
Dangerous builds = 0
Generated 0 of 1 mixed pair_coeff terms from geometric mixing rule
Setting up Verlet run ...
  Unit style    : real
  Current step  : 560000
  Time step     : 0.05
Per MPI rank memory allocation (min/avg/max) = 13.32 | 13.86 | 14.98 Mbytes
   Step          Temp          E_pair         E_mol          TotEng         Press     
    560000   325.64503      365.45393      18537.857      19369.24      -195.87105    
    570000   291.39063      385.63925      18538.466      19341.024      98.552667    
Loop time of 3.03293 on 48 procs for 10000 steps with 481 atoms

Performance: 14.244 ns/day, 1.685 hours/ns, 3297.139 timesteps/s, 1.586 Matom-step/s
100.0% CPU use with 48 MPI tasks x 1 OpenMP threads

MPI task timing breakdown:
Section |  min time  |  avg time  |  max time  |%varavg| %total
---------------------------------------------------------------
Pair    | 0.0030752  | 0.14549    | 0.80989    |  56.5 |  4.80
Bond    | 0.0010746  | 0.18316    | 0.82266    |  57.2 |  6.04
Neigh   | 0.0046283  | 0.0052094  | 0.0056183  |   0.3 |  0.17
Comm    | 1.1765     | 2.2432     | 2.7419     |  33.4 | 73.96
Output  | 0.0011901  | 0.0021898  | 0.0032071  |   1.4 |  0.07
Modify  | 0.11025    | 0.34557    | 1.3821     |  72.8 | 11.39
Other   |            | 0.1081     |            |       |  3.57

Nlocal:        10.0208 ave          42 max           0 min
Histogram: 21 5 10 4 0 1 2 1 1 3
Nghost:        1927.98 ave        2418 max        1331 min
Histogram: 8 0 0 0 24 0 0 0 0 16
Neighs:              0 ave           0 max           0 min
Histogram: 48 0 0 0 0 0 0 0 0 0

Total # of neighbors = 0
Ave neighs/atom = 0
Ave special neighs/atom = 15.567568
Neighbor list builds = 14
Dangerous builds = 0
Generated 0 of 1 mixed pair_coeff terms from geometric mixing rule
Setting up Verlet run ...
  Unit style    : real
  Current step  : 570000
  Time step     : 0.05
Per MPI rank memory allocation (min/avg/max) = 13.32 | 13.86 | 14.98 Mbytes
   Step          Temp          E_pair         E_mol          TotEng         Press     
    570000   291.39063      385.63925      18538.466      19341.024      98.552667    
    580000   277.73269      377.03244      18507.355      19281.765      1.7906884    
    590000   301.21567      373.89672      18513.831      19318.703     -97.375183    
    600000   293.7826       377.07629      18545.976      19343.393      121.39862    
    610000   313.78437      373.03088      18536.511      19358.501     -178.24312    
    620000   319.11533      367.64899      18544.371      19368.607     -201.64074    
Loop time of 15.0715 on 48 procs for 50000 steps with 481 atoms

Performance: 14.332 ns/day, 1.675 hours/ns, 3317.516 timesteps/s, 1.596 Matom-step/s
100.0% CPU use with 48 MPI tasks x 1 OpenMP threads

MPI task timing breakdown:
Section |  min time  |  avg time  |  max time  |%varavg| %total
---------------------------------------------------------------
Pair    | 0.015479   | 0.72575    | 3.9272     | 124.7 |  4.82
Bond    | 0.0053023  | 0.91568    | 4.1072     | 127.4 |  6.08
Neigh   | 0.01578    | 0.017854   | 0.019379   |   0.6 |  0.12
Comm    | 6.0083     | 11.174     | 13.618     |  73.3 | 74.14
Output  | 0.0056465  | 0.010619   | 0.015579   |   3.1 |  0.07
Modify  | 0.56261    | 1.6876     | 6.8015     | 160.6 | 11.20
Other   |            | 0.5403     |            |       |  3.58

Nlocal:        10.0208 ave          39 max           0 min
Histogram: 20 4 10 5 1 0 2 1 2 3
Nghost:        1926.98 ave        2414 max        1334 min
Histogram: 8 0 0 0 24 0 0 0 0 16
Neighs:              0 ave           0 max           0 min
Histogram: 48 0 0 0 0 0 0 0 0 0

Total # of neighbors = 0
Ave neighs/atom = 0
Ave special neighs/atom = 15.567568
Neighbor list builds = 49
Dangerous builds = 0
Generated 0 of 1 mixed pair_coeff terms from geometric mixing rule
Setting up Verlet run ...
  Unit style    : real
  Current step  : 620000
  Time step     : 0.05
Per MPI rank memory allocation (min/avg/max) = 13.32 | 13.86 | 14.98 Mbytes
   Step          Temp          E_pair         E_mol          TotEng         Press     
    620000   319.11533      367.64899      18544.371      19368.607     -201.64074    
    630000   299.20006      391.80305      18530.608      19350.503     -24.237336    
Loop time of 3.11919 on 48 procs for 10000 steps with 481 atoms

Performance: 13.850 ns/day, 1.733 hours/ns, 3205.961 timesteps/s, 1.542 Matom-step/s
100.0% CPU use with 48 MPI tasks x 1 OpenMP threads

MPI task timing breakdown:
Section |  min time  |  avg time  |  max time  |%varavg| %total
---------------------------------------------------------------
Pair    | 0.003093   | 0.14645    | 0.83147    |  56.8 |  4.70
Bond    | 0.001058   | 0.18325    | 0.79693    |  56.7 |  5.88
Neigh   | 0.0081446  | 0.0091765  | 0.0099317  |   0.4 |  0.29
Comm    | 1.2666     | 2.3135     | 2.8245     |  33.3 | 74.17
Output  | 0.0011366  | 0.002113   | 0.0031162  |   1.4 |  0.07
Modify  | 0.11218    | 0.35702    | 1.4721     |  75.2 | 11.45
Other   |            | 0.1076     |            |       |  3.45

Nlocal:        10.0208 ave          41 max           0 min
Histogram: 22 4 9 5 0 0 2 1 3 2
Nghost:         1935.1 ave        2421 max        1332 min
Histogram: 8 0 0 0 24 0 0 0 0 16
Neighs:              0 ave           0 max           0 min
Histogram: 48 0 0 0 0 0 0 0 0 0

Total # of neighbors = 0
Ave neighs/atom = 0
Ave special neighs/atom = 15.567568
Neighbor list builds = 25
Dangerous builds = 0
Generated 0 of 1 mixed pair_coeff terms from geometric mixing rule
Setting up Verlet run ...
  Unit style    : real
  Current step  : 630000
  Time step     : 0.05
Per MPI rank memory allocation (min/avg/max) = 13.32 | 13.86 | 14.98 Mbytes
   Step          Temp          E_pair         E_mol          TotEng         Press     
    630000   299.20006      391.80305      18530.608      19350.503     -24.237336    
    640000   299.73411      382.51283      18529.384      19340.753     -263.79444    
    650000   315.36244      378.65108      18548.84       19378.708     -224.34621    
    660000   328.64135      389.11549      18520.037      19379.369     -49.77278     
    670000   303.75057      389.19675      18526.609      19350.409     -32.771011    
    680000   290.66348      390.7778       18529.611      19336.267     -5.7274942    
Loop time of 15.3725 on 48 procs for 50000 steps with 481 atoms

Performance: 14.051 ns/day, 1.708 hours/ns, 3252.566 timesteps/s, 1.564 Matom-step/s
100.0% CPU use with 48 MPI tasks x 1 OpenMP threads

MPI task timing breakdown:
Section |  min time  |  avg time  |  max time  |%varavg| %total
---------------------------------------------------------------
Pair    | 0.015478   | 0.73169    | 4.1711     | 127.0 |  4.76
Bond    | 0.0052887  | 0.91541    | 4.0392     | 126.9 |  5.95
Neigh   | 0.026995   | 0.030581   | 0.033138   |   0.8 |  0.20
Comm    | 6.0005     | 11.413     | 13.92      |  74.2 | 74.25
Output  | 0.005825   | 0.010782   | 0.015733   |   3.0 |  0.07
Modify  | 0.56496    | 1.7307     | 7.1341     | 165.4 | 11.26
Other   |            | 0.54       |            |       |  3.51

Nlocal:        10.0208 ave          53 max           0 min
Histogram: 22 8 9 2 1 2 3 0 0 1
Nghost:         1934.1 ave        2419 max        1320 min
Histogram: 8 0 0 0 24 0 0 0 0 16
Neighs:              0 ave           0 max           0 min
Histogram: 48 0 0 0 0 0 0 0 0 0

Total # of neighbors = 0
Ave neighs/atom = 0
Ave special neighs/atom = 15.567568
Neighbor list builds = 83
Dangerous builds = 0
Generated 0 of 1 mixed pair_coeff terms from geometric mixing rule
Setting up Verlet run ...
  Unit style    : real
  Current step  : 680000
  Time step     : 0.05
Per MPI rank memory allocation (min/avg/max) = 13.32 | 13.87 | 14.98 Mbytes
   Step          Temp          E_pair         E_mol          TotEng         Press     
    680000   290.66348      390.7778       18529.611      19336.267     -5.7274942    
    690000   297.7021       392.83509      18526.009      19344.793     -45.542935    
Loop time of 3.09084 on 48 procs for 10000 steps with 481 atoms

Performance: 13.977 ns/day, 1.717 hours/ns, 3235.361 timesteps/s, 1.556 Matom-step/s
100.0% CPU use with 48 MPI tasks x 1 OpenMP threads

MPI task timing breakdown:
Section |  min time  |  avg time  |  max time  |%varavg| %total
---------------------------------------------------------------
Pair    | 0.0031042  | 0.14662    | 0.90987    |  58.0 |  4.74
Bond    | 0.0010633  | 0.18352    | 0.87655    |  57.0 |  5.94
Neigh   | 0.0057491  | 0.0064692  | 0.0069878  |   0.4 |  0.21
Comm    | 1.0702     | 2.283      | 2.805      |  33.5 | 73.86
Output  | 0.0011601  | 0.0021683  | 0.0032068  |   1.4 |  0.07
Modify  | 0.10797    | 0.36132    | 1.4421     |  74.0 | 11.69
Other   |            | 0.1077     |            |       |  3.49

Nlocal:        10.0208 ave          52 max           0 min
Histogram: 22 10 7 2 1 1 3 1 0 1
Nghost:        1931.98 ave        2412 max        1321 min
Histogram: 8 0 0 0 24 0 0 0 0 16
Neighs:              0 ave           0 max           0 min
Histogram: 48 0 0 0 0 0 0 0 0 0

Total # of neighbors = 0
Ave neighs/atom = 0
Ave special neighs/atom = 15.567568
Neighbor list builds = 17
Dangerous builds = 0
Generated 0 of 1 mixed pair_coeff terms from geometric mixing rule
Setting up Verlet run ...
  Unit style    : real
  Current step  : 690000
  Time step     : 0.05
Per MPI rank memory allocation (min/avg/max) = 13.32 | 13.87 | 14.98 Mbytes
   Step          Temp          E_pair         E_mol          TotEng         Press     
    690000   297.7021       392.83509      18526.009      19344.793     -45.542935    
    700000   290.66009      388.65804      18549.176      19353.708     -56.266498    
    710000   295.02678      390.38458      18540.746      19353.251     -19.658601    
    720000   290.48986      392.86567      18514.93       19323.425     -159.9389     
    730000   283.40295      385.08826      18525.023      19315.601     -119.26288    
    740000   296.02549      393.95757      18521.806      19339.313      16.160966    
Loop time of 15.7196 on 48 procs for 50000 steps with 481 atoms

Performance: 13.741 ns/day, 1.747 hours/ns, 3180.751 timesteps/s, 1.530 Matom-step/s
100.0% CPU use with 48 MPI tasks x 1 OpenMP threads

MPI task timing breakdown:
Section |  min time  |  avg time  |  max time  |%varavg| %total
---------------------------------------------------------------
Pair    | 0.015508   | 0.73469    | 4.2228     | 128.2 |  4.67
Bond    | 0.0052916  | 0.91625    | 4.0011     | 126.7 |  5.83
Neigh   | 0.029798   | 0.033591   | 0.036305   |   0.8 |  0.21
Comm    | 6.3261     | 11.667     | 14.267     |  76.2 | 74.22
Output  | 0.0058882  | 0.010878   | 0.015846   |   3.0 |  0.07
Modify  | 0.56886    | 1.8161     | 7.4773     | 173.0 | 11.55
Other   |            | 0.5407     |            |       |  3.44

Nlocal:        10.0208 ave          43 max           0 min
Histogram: 22 5 6 7 0 2 1 2 1 2
Nghost:        1926.35 ave        2412 max        1330 min
Histogram: 8 0 0 0 24 0 0 0 0 16
Neighs:              0 ave           0 max           0 min
Histogram: 48 0 0 0 0 0 0 0 0 0

Total # of neighbors = 0
Ave neighs/atom = 0
Ave special neighs/atom = 15.567568
Neighbor list builds = 89
Dangerous builds = 0
Generated 0 of 1 mixed pair_coeff terms from geometric mixing rule
Setting up Verlet run ...
  Unit style    : real
  Current step  : 740000
  Time step     : 0.05
Per MPI rank memory allocation (min/avg/max) = 13.32 | 13.87 | 14.98 Mbytes
   Step          Temp          E_pair         E_mol          TotEng         Press     
    740000   296.02549      393.95757      18521.806      19339.313      16.160966    
    750000   289.95126      391.22226      18540.123      19346.204     -65.423738    
Loop time of 3.08998 on 48 procs for 10000 steps with 481 atoms

Performance: 13.981 ns/day, 1.717 hours/ns, 3236.268 timesteps/s, 1.557 Matom-step/s
100.0% CPU use with 48 MPI tasks x 1 OpenMP threads

MPI task timing breakdown:
Section |  min time  |  avg time  |  max time  |%varavg| %total
---------------------------------------------------------------
Pair    | 0.0030993  | 0.14707    | 0.85004    |  57.6 |  4.76
Bond    | 0.0010566  | 0.18303    | 0.78978    |  56.7 |  5.92
Neigh   | 0.0080984  | 0.0090752  | 0.0098567  |   0.4 |  0.29
Comm    | 1.2377     | 2.2924     | 2.7898     |  33.6 | 74.19
Output  | 0.0011459  | 0.0021439  | 0.0031813  |   1.4 |  0.07
Modify  | 0.11229    | 0.34885    | 1.4289     |  74.9 | 11.29
Other   |            | 0.1075     |            |       |  3.48

Nlocal:        10.0208 ave          40 max           0 min
Histogram: 21 3 9 6 1 0 3 1 0 4
Nghost:        1921.35 ave        2395 max        1333 min
Histogram: 8 0 0 0 24 0 0 0 0 16
Neighs:              0 ave           0 max           0 min
Histogram: 48 0 0 0 0 0 0 0 0 0

Total # of neighbors = 0
Ave neighs/atom = 0
Ave special neighs/atom = 15.567568
Neighbor list builds = 25
Dangerous builds = 0
Generated 0 of 1 mixed pair_coeff terms from geometric mixing rule
Setting up Verlet run ...
  Unit style    : real
  Current step  : 750000
  Time step     : 0.05
Per MPI rank memory allocation (min/avg/max) = 13.32 | 13.87 | 14.98 Mbytes
   Step          Temp          E_pair         E_mol          TotEng         Press     
    750000   289.95126      391.22226      18540.123      19346.204     -65.423738    
    760000   296.06943      398.88367      18511.817      19334.313      182.82755    
    770000   288.8613       401.93211      18503.273      19318.504      229.53599    
    780000   293.3383       395.97598      18486.599      19302.28       79.013658    
    790000   290.33152      388.5935       18521.454      19325.45      -242.40091    
    800000   299.92566      401.44809      18525.964      19356.542      149.61536    
Loop time of 15.2241 on 48 procs for 50000 steps with 481 atoms

Performance: 14.188 ns/day, 1.692 hours/ns, 3284.260 timesteps/s, 1.580 Matom-step/s
100.0% CPU use with 48 MPI tasks x 1 OpenMP threads

MPI task timing breakdown:
Section |  min time  |  avg time  |  max time  |%varavg| %total
---------------------------------------------------------------
Pair    | 0.015522   | 0.73465    | 4.1499     | 128.4 |  4.83
Bond    | 0.0052937  | 0.91559    | 3.9525     | 126.6 |  6.01
Neigh   | 0.042763   | 0.047993   | 0.05187    |   0.9 |  0.32
Comm    | 5.9846     | 11.275     | 13.71      |  73.7 | 74.06
Output  | 0.0056147  | 0.010629   | 0.015582   |   3.1 |  0.07
Modify  | 0.56233    | 1.7028     | 6.9372     | 161.6 | 11.18
Other   |            | 0.5378     |            |       |  3.53

Nlocal:        10.0208 ave          38 max           0 min
Histogram: 20 7 5 8 0 0 1 1 3 3
Nghost:        1934.48 ave        2419 max        1335 min
Histogram: 8 0 0 0 24 0 0 0 0 16
Neighs:              0 ave           0 max           0 min
Histogram: 48 0 0 0 0 0 0 0 0 0

Total # of neighbors = 0
Ave neighs/atom = 0
Ave special neighs/atom = 15.567568
Neighbor list builds = 130
Dangerous builds = 0
Generated 0 of 1 mixed pair_coeff terms from geometric mixing rule
Setting up Verlet run ...
  Unit style    : real
  Current step  : 800000
  Time step     : 0.05
Per MPI rank memory allocation (min/avg/max) = 13.32 | 13.87 | 14.98 Mbytes
   Step          Temp          E_pair         E_mol          TotEng         Press     
    800000   299.92566      401.44809      18525.964      19356.542      149.61536    
    810000   289.27093      393.68271      18528.153      19335.721     -67.670736    
Loop time of 3.07916 on 48 procs for 10000 steps with 481 atoms

Performance: 14.030 ns/day, 1.711 hours/ns, 3247.643 timesteps/s, 1.562 Matom-step/s
100.0% CPU use with 48 MPI tasks x 1 OpenMP threads

MPI task timing breakdown:
Section |  min time  |  avg time  |  max time  |%varavg| %total
---------------------------------------------------------------
Pair    | 0.0030686  | 0.14695    | 0.88429    |  58.0 |  4.77
Bond    | 0.0010594  | 0.18318    | 0.84718    |  57.3 |  5.95
Neigh   | 0.0098631  | 0.011079   | 0.011969   |   0.5 |  0.36
Comm    | 1.1085     | 2.2848     | 2.7869     |  33.7 | 74.20
Output  | 0.0011187  | 0.0021071  | 0.0031237  |   1.4 |  0.07
Modify  | 0.11372    | 0.34334    | 1.4012     |  73.9 | 11.15
Other   |            | 0.1077     |            |       |  3.50

Nlocal:        10.0208 ave          36 max           0 min
Histogram: 21 3 7 7 1 1 0 0 3 5
Nghost:        1927.98 ave        2406 max        1338 min
Histogram: 8 0 0 0 24 0 0 0 0 16
Neighs:              0 ave           0 max           0 min
Histogram: 48 0 0 0 0 0 0 0 0 0

Total # of neighbors = 0
Ave neighs/atom = 0
Ave special neighs/atom = 15.567568
Neighbor list builds = 30
Dangerous builds = 0
Generated 0 of 1 mixed pair_coeff terms from geometric mixing rule
Setting up Verlet run ...
  Unit style    : real
  Current step  : 810000
  Time step     : 0.05
Per MPI rank memory allocation (min/avg/max) = 13.32 | 13.87 | 14.98 Mbytes
   Step          Temp          E_pair         E_mol          TotEng         Press     
    810000   289.27093      393.68271      18528.153      19335.721     -67.670736    
    820000   300.74786      391.24067      18510.72       19332.268     -28.690339    
    830000   305.48207      390.13916      18532.12       19359.339     -34.851673    
    840000   302.5453       387.13432      18556.486      19376.499     -205.92975    
    850000   311.11869      385.00075      18537.776      19367.922     -147.85987    
    860000   303.79228      383.23009      18538.928      19356.82      -260.89118    
Loop time of 15.3983 on 48 procs for 50000 steps with 481 atoms

Performance: 14.028 ns/day, 1.711 hours/ns, 3247.116 timesteps/s, 1.562 Matom-step/s
100.0% CPU use with 48 MPI tasks x 1 OpenMP threads

MPI task timing breakdown:
Section |  min time  |  avg time  |  max time  |%varavg| %total
---------------------------------------------------------------
Pair    | 0.015424   | 0.73593    | 4.1619     | 128.1 |  4.78
Bond    | 0.0053076  | 0.91724    | 4.0619     | 127.1 |  5.96
Neigh   | 0.051201   | 0.05769    | 0.062437   |   1.1 |  0.37
Comm    | 6.003      | 11.418     | 13.831     |  74.7 | 74.15
Output  | 0.0057196  | 0.010735   | 0.015926   |   3.1 |  0.07
Modify  | 0.56979    | 1.7197     | 6.8759     | 165.4 | 11.17
Other   |            | 0.5389     |            |       |  3.50

Nlocal:        10.0208 ave          55 max           0 min
Histogram: 22 9 11 0 0 1 3 0 0 2
Nghost:        1931.85 ave        2417 max        1318 min
Histogram: 8 0 0 0 24 0 0 0 0 16
Neighs:              0 ave           0 max           0 min
Histogram: 48 0 0 0 0 0 0 0 0 0

Total # of neighbors = 0
Ave neighs/atom = 0
Ave special neighs/atom = 15.567568
Neighbor list builds = 158
Dangerous builds = 0
Generated 0 of 1 mixed pair_coeff terms from geometric mixing rule
Setting up Verlet run ...
  Unit style    : real
  Current step  : 860000
  Time step     : 0.05
Per MPI rank memory allocation (min/avg/max) = 13.32 | 13.87 | 14.98 Mbytes
   Step          Temp          E_pair         E_mol          TotEng         Press     
    860000   303.79228      383.23009      18538.928      19356.82      -260.89118    
    870000   296.27846      383.36043      18530.715      19337.987     -267.35103    
Loop time of 3.08288 on 48 procs for 10000 steps with 481 atoms

Performance: 14.013 ns/day, 1.713 hours/ns, 3243.721 timesteps/s, 1.560 Matom-step/s
100.0% CPU use with 48 MPI tasks x 1 OpenMP threads

MPI task timing breakdown:
Section |  min time  |  avg time  |  max time  |%varavg| %total
---------------------------------------------------------------
Pair    | 0.0031081  | 0.14709    | 0.81732    |  56.8 |  4.77
Bond    | 0.0010652  | 0.18321    | 0.79242    |  56.4 |  5.94
Neigh   | 0.014767   | 0.016593   | 0.017891   |   0.6 |  0.54
Comm    | 1.2419     | 2.2768     | 2.7558     |  33.2 | 73.85
Output  | 0.0011561  | 0.0021385  | 0.0032404  |   1.4 |  0.07
Modify  | 0.11218    | 0.3493     | 1.4173     |  74.2 | 11.33
Other   |            | 0.1077     |            |       |  3.49

Nlocal:        10.0208 ave          55 max           0 min
Histogram: 24 7 7 5 0 1 1 1 1 1
Nghost:        1931.73 ave        2412 max        1318 min
Histogram: 8 0 0 0 24 0 0 0 0 16
Neighs:              0 ave           0 max           0 min
Histogram: 48 0 0 0 0 0 0 0 0 0

Total # of neighbors = 0
Ave neighs/atom = 0
Ave special neighs/atom = 15.567568
Neighbor list builds = 45
Dangerous builds = 0
Generated 0 of 1 mixed pair_coeff terms from geometric mixing rule
Setting up Verlet run ...
  Unit style    : real
  Current step  : 870000
  Time step     : 0.05
Per MPI rank memory allocation (min/avg/max) = 13.32 | 13.87 | 14.98 Mbytes
   Step          Temp          E_pair         E_mol          TotEng         Press     
    870000   296.27846      383.36043      18530.715      19337.987     -267.35103    
    880000   292.38437      383.08624      18523.288      19324.714     -143.67587    
    890000   323.99343      391.39197      18507.491      19362.449     -121.03241    
    900000   323.95721      393.64652      18515.283      19372.444      48.438881    
    910000   311.31874      390.16523      18525.986      19361.583     -3.5757472    
    920000   308.89545      386.27692      18516.911      19345.152     -127.79745    
Loop time of 15.7006 on 48 procs for 50000 steps with 481 atoms

Performance: 13.757 ns/day, 1.745 hours/ns, 3184.582 timesteps/s, 1.532 Matom-step/s
100.0% CPU use with 48 MPI tasks x 1 OpenMP threads

MPI task timing breakdown:
Section |  min time  |  avg time  |  max time  |%varavg| %total
---------------------------------------------------------------
Pair    | 0.015526   | 0.73574    | 4.123      | 127.1 |  4.69
Bond    | 0.0053108  | 0.9166     | 3.9692     | 126.4 |  5.84
Neigh   | 0.077117   | 0.086454   | 0.093257   |   1.3 |  0.55
Comm    | 6.5021     | 11.635     | 14.136     |  75.2 | 74.11
Output  | 0.0056826  | 0.010752   | 0.015969   |   3.1 |  0.07
Modify  | 0.54904    | 1.7788     | 7.2554     | 170.7 | 11.33
Other   |            | 0.5371     |            |       |  3.42

Nlocal:        10.0208 ave          42 max           0 min
Histogram: 21 6 9 4 0 1 1 2 2 2
Nghost:        1928.98 ave        2409 max        1337 min
Histogram: 8 0 0 0 24 0 0 0 0 16
Neighs:              0 ave           0 max           0 min
Histogram: 48 0 0 0 0 0 0 0 0 0

Total # of neighbors = 0
Ave neighs/atom = 0
Ave special neighs/atom = 15.567568
Neighbor list builds = 229
Dangerous builds = 0
Generated 0 of 1 mixed pair_coeff terms from geometric mixing rule
Setting up Verlet run ...
  Unit style    : real
  Current step  : 920000
  Time step     : 0.05
Per MPI rank memory allocation (min/avg/max) = 13.32 | 13.87 | 14.98 Mbytes
   Step          Temp          E_pair         E_mol          TotEng         Press     
    920000   308.89545      386.27692      18516.911      19345.152     -127.79745    
    930000   287.64432      390.1119       18498.559      19300.229     -34.287498    
Loop time of 3.10182 on 48 procs for 10000 steps with 481 atoms

Performance: 13.927 ns/day, 1.723 hours/ns, 3223.915 timesteps/s, 1.551 Matom-step/s
100.0% CPU use with 48 MPI tasks x 1 OpenMP threads

MPI task timing breakdown:
Section |  min time  |  avg time  |  max time  |%varavg| %total
---------------------------------------------------------------
Pair    | 0.0031045  | 0.14742    | 0.81555    |  56.6 |  4.75
Bond    | 0.001059   | 0.18338    | 0.78123    |  56.5 |  5.91
Neigh   | 0.015694   | 0.017631   | 0.019052   |   0.6 |  0.57
Comm    | 1.2715     | 2.291      | 2.7964     |  33.2 | 73.86
Output  | 0.001177   | 0.0021993  | 0.0032395  |   1.4 |  0.07
Modify  | 0.11615    | 0.35188    | 1.4291     |  73.8 | 11.34
Other   |            | 0.1083     |            |       |  3.49

Nlocal:        10.0208 ave          42 max           0 min
Histogram: 22 4 11 3 0 2 1 1 0 4
Nghost:        1926.98 ave        2407 max        1331 min
Histogram: 8 0 0 0 24 0 0 0 0 16
Neighs:              0 ave           0 max           0 min
Histogram: 48 0 0 0 0 0 0 0 0 0

Total # of neighbors = 0
Ave neighs/atom = 0
Ave special neighs/atom = 15.567568
Neighbor list builds = 47
Dangerous builds = 0
Generated 0 of 1 mixed pair_coeff terms from geometric mixing rule
Setting up Verlet run ...
  Unit style    : real
  Current step  : 930000
  Time step     : 0.05
Per MPI rank memory allocation (min/avg/max) = 13.32 | 13.87 | 14.98 Mbytes
   Step          Temp          E_pair         E_mol          TotEng         Press     
    930000   287.64432      390.1119       18498.559      19300.229     -34.287498    
    940000   303.24855      387.29729      18520.146      19341.328     -139.29089    
    950000   323.70376      389.12514      18499.274      19351.551      14.858068    
    960000   305.9569       380.84181      18514.393      19332.995     -247.93054    
    970000   288.77577      390.13407      18519.631      19322.943      25.080602    
    980000   295.56067      393.18717      18507.896      19323.968      45.246999    
Loop time of 15.7574 on 48 procs for 50000 steps with 481 atoms

Performance: 13.708 ns/day, 1.751 hours/ns, 3173.114 timesteps/s, 1.526 Matom-step/s
100.0% CPU use with 48 MPI tasks x 1 OpenMP threads

MPI task timing breakdown:
Section |  min time  |  avg time  |  max time  |%varavg| %total
---------------------------------------------------------------
Pair    | 0.015695   | 0.73619    | 4.0652     | 125.3 |  4.67
Bond    | 0.00531    | 0.91736    | 3.8881     | 125.8 |  5.82
Neigh   | 0.077645   | 0.087013   | 0.093897   |   1.3 |  0.55
Comm    | 6.8809     | 11.672     | 14.253     |  74.4 | 74.07
Output  | 0.0057639  | 0.01083    | 0.015946   |   3.1 |  0.07
Modify  | 0.54963    | 1.7971     | 7.3731     | 170.1 | 11.41
Other   |            | 0.537      |            |       |  3.41

Nlocal:        10.0208 ave          44 max           0 min
Histogram: 21 9 4 6 0 1 3 0 2 2
Nghost:         1924.6 ave        2402 max        1329 min
Histogram: 8 0 0 0 24 0 0 0 0 16
Neighs:              0 ave           0 max           0 min
Histogram: 48 0 0 0 0 0 0 0 0 0

Total # of neighbors = 0
Ave neighs/atom = 0
Ave special neighs/atom = 15.567568
Neighbor list builds = 228
Dangerous builds = 0
Generated 0 of 1 mixed pair_coeff terms from geometric mixing rule
Setting up Verlet run ...
  Unit style    : real
  Current step  : 980000
  Time step     : 0.05
Per MPI rank memory allocation (min/avg/max) = 13.32 | 13.87 | 14.98 Mbytes
   Step          Temp          E_pair         E_mol          TotEng         Press     
    980000   295.56067      393.18717      18507.896      19323.968      45.246999    
    990000   301.00355      383.36393      18542.084      19356.12      -215.08274    
Loop time of 3.17671 on 48 procs for 10000 steps with 481 atoms

Performance: 13.599 ns/day, 1.765 hours/ns, 3147.906 timesteps/s, 1.514 Matom-step/s
100.0% CPU use with 48 MPI tasks x 1 OpenMP threads

MPI task timing breakdown:
Section |  min time  |  avg time  |  max time  |%varavg| %total
---------------------------------------------------------------
Pair    | 0.0032048  | 0.14719    | 0.82735    |  56.0 |  4.63
Bond    | 0.0010626  | 0.1831     | 0.78948    |  56.3 |  5.76
Neigh   | 0.014488   | 0.01619    | 0.017478   |   0.5 |  0.51
Comm    | 1.3604     | 2.3635     | 2.877      |  33.9 | 74.40
Output  | 0.0011846  | 0.0021826  | 0.0033043  |   1.4 |  0.07
Modify  | 0.1128     | 0.35679    | 1.5182     |  78.6 | 11.23
Other   |            | 0.1077     |            |       |  3.39

Nlocal:        10.0208 ave          45 max           0 min
Histogram: 22 7 5 5 2 1 2 1 1 2
Nghost:         1923.6 ave        2394 max        1328 min
Histogram: 8 0 0 0 24 0 0 0 0 16
Neighs:              0 ave           0 max           0 min
Histogram: 48 0 0 0 0 0 0 0 0 0

Total # of neighbors = 0
Ave neighs/atom = 0
Ave special neighs/atom = 15.567568
Neighbor list builds = 42
Dangerous builds = 0
Generated 0 of 1 mixed pair_coeff terms from geometric mixing rule
Setting up Verlet run ...
  Unit style    : real
  Current step  : 990000
  Time step     : 0.05
Per MPI rank memory allocation (min/avg/max) = 13.32 | 13.87 | 14.98 Mbytes
   Step          Temp          E_pair         E_mol          TotEng         Press     
    990000   301.00355      383.36393      18542.084      19356.12      -215.08274    
   1000000   312.79182      392.90489      18520.429      19360.873      9.6473231    
   1010000   292.89146      391.35501      18525.384      19335.804      64.11035     
   1020000   294.95696      378.89323      18510.346      19311.26      -242.56323    
   1030000   299.50081      394.67571      18512.541      19335.739      101.7896     
   1040000   301.70145      393.97454      18535.796      19361.442      118.49903    
Loop time of 15.4719 on 48 procs for 50000 steps with 481 atoms

Performance: 13.961 ns/day, 1.719 hours/ns, 3231.667 timesteps/s, 1.554 Matom-step/s
100.0% CPU use with 48 MPI tasks x 1 OpenMP threads

MPI task timing breakdown:
Section |  min time  |  avg time  |  max time  |%varavg| %total
---------------------------------------------------------------
Pair    | 0.015617   | 0.73525    | 4.0716     | 125.8 |  4.75
Bond    | 0.0053139  | 0.91686    | 4.04       | 126.3 |  5.93
Neigh   | 0.059838   | 0.067281   | 0.072774   |   1.2 |  0.43
Comm    | 6.5711     | 11.488     | 14         |  73.0 | 74.25
Output  | 0.0058059  | 0.011333   | 0.017186   |   3.5 |  0.07
Modify  | 0.56679    | 1.7144     | 7.0012     | 163.6 | 11.08
Other   |            | 0.5391     |            |       |  3.48

Nlocal:        10.0208 ave          50 max           0 min
Histogram: 21 10 7 2 1 3 0 2 1 1
Nghost:        1929.48 ave        2409 max        1323 min
Histogram: 8 0 0 0 24 0 0 0 0 16
Neighs:              0 ave           0 max           0 min
Histogram: 48 0 0 0 0 0 0 0 0 0

Total # of neighbors = 0
Ave neighs/atom = 0
Ave special neighs/atom = 15.567568
Neighbor list builds = 181
Dangerous builds = 0
Generated 0 of 1 mixed pair_coeff terms from geometric mixing rule
Setting up Verlet run ...
  Unit style    : real
  Current step  : 1040000
  Time step     : 0.05
Per MPI rank memory allocation (min/avg/max) = 13.32 | 13.87 | 14.98 Mbytes
   Step          Temp          E_pair         E_mol          TotEng         Press     
   1040000   301.70145      393.97454      18535.796      19361.442      118.49903    
   1050000   328.47126      380.23738      18500.374      19350.584     -221.77778    
Loop time of 3.09201 on 48 procs for 10000 steps with 481 atoms

Performance: 13.972 ns/day, 1.718 hours/ns, 3234.145 timesteps/s, 1.556 Matom-step/s
100.0% CPU use with 48 MPI tasks x 1 OpenMP threads

MPI task timing breakdown:
Section |  min time  |  avg time  |  max time  |%varavg| %total
---------------------------------------------------------------
Pair    | 0.003073   | 0.14732    | 0.82439    |  56.2 |  4.76
Bond    | 0.0010691  | 0.18336    | 0.8037     |  56.4 |  5.93
Neigh   | 0.014912   | 0.016667   | 0.017958   |   0.5 |  0.54
Comm    | 1.3021     | 2.2898     | 2.7936     |  33.3 | 74.06
Output  | 0.0011641  | 0.0021612  | 0.0032053  |   1.4 |  0.07
Modify  | 0.1134     | 0.34501    | 1.4002     |  74.9 | 11.16
Other   |            | 0.1077     |            |       |  3.48

Nlocal:        10.0208 ave          46 max           0 min
Histogram: 21 10 4 5 0 2 2 2 1 1
Nghost:         1922.1 ave        2397 max        1327 min
Histogram: 8 0 0 0 24 0 0 0 0 16
Neighs:              0 ave           0 max           0 min
Histogram: 48 0 0 0 0 0 0 0 0 0

Total # of neighbors = 0
Ave neighs/atom = 0
Ave special neighs/atom = 15.567568
Neighbor list builds = 44
Dangerous builds = 0
Generated 0 of 1 mixed pair_coeff terms from geometric mixing rule
Setting up Verlet run ...
  Unit style    : real
  Current step  : 1050000
  Time step     : 0.05
Per MPI rank memory allocation (min/avg/max) = 13.32 | 13.87 | 14.98 Mbytes
   Step          Temp          E_pair         E_mol          TotEng         Press     
   1050000   328.47126      380.23738      18500.374      19350.584     -221.77778    
   1060000   300.82784      394.21594      18498.974      19323.611      211.41283    
   1070000   299.22635      389.87949      18481.904      19299.913     -21.124182    
   1080000   271.16357      386.55405      18492.01       19266.541     -100.72724    
   1090000   324.32918      389.69354      18491.035      19344.775      125.43942    
   1100000   307.49579      391.57885      18519.627      19351.167      57.697347    
Loop time of 15.6323 on 48 procs for 50000 steps with 481 atoms

Performance: 13.818 ns/day, 1.737 hours/ns, 3198.515 timesteps/s, 1.538 Matom-step/s
100.0% CPU use with 48 MPI tasks x 1 OpenMP threads

MPI task timing breakdown:
Section |  min time  |  avg time  |  max time  |%varavg| %total
---------------------------------------------------------------
Pair    | 0.015483   | 0.73602    | 4.1275     | 125.8 |  4.71
Bond    | 0.0053     | 0.91652    | 3.9451     | 126.0 |  5.86
Neigh   | 0.071135   | 0.079653   | 0.085936   |   1.2 |  0.51
Comm    | 6.6009     | 11.568     | 14.108     |  74.6 | 74.00
Output  | 0.0058391  | 0.010842   | 0.015898   |   3.1 |  0.07
Modify  | 0.57381    | 1.7835     | 7.2863     | 169.1 | 11.41
Other   |            | 0.5379     |            |       |  3.44

Nlocal:        10.0208 ave          42 max           0 min
Histogram: 22 5 8 5 0 0 2 3 0 3
Nghost:        1928.73 ave        2409 max        1331 min
Histogram: 8 0 0 0 24 0 0 0 0 16
Neighs:              0 ave           0 max           0 min
Histogram: 48 0 0 0 0 0 0 0 0 0

Total # of neighbors = 0
Ave neighs/atom = 0
Ave special neighs/atom = 15.567568
Neighbor list builds = 211
Dangerous builds = 0
Generated 0 of 1 mixed pair_coeff terms from geometric mixing rule
Setting up Verlet run ...
  Unit style    : real
  Current step  : 1100000
  Time step     : 0.05
Per MPI rank memory allocation (min/avg/max) = 13.32 | 13.87 | 14.98 Mbytes
   Step          Temp          E_pair         E_mol          TotEng         Press     
   1100000   307.49579      391.57885      18519.627      19351.167      57.697347    
   1110000   286.34228      388.25118      18481.673      19279.619      42.477799    
Loop time of 3.05496 on 48 procs for 10000 steps with 481 atoms

Performance: 14.141 ns/day, 1.697 hours/ns, 3273.364 timesteps/s, 1.574 Matom-step/s
100.0% CPU use with 48 MPI tasks x 1 OpenMP threads

MPI task timing breakdown:
Section |  min time  |  avg time  |  max time  |%varavg| %total
---------------------------------------------------------------
Pair    | 0.0030949  | 0.14725    | 0.80572    |  56.0 |  4.82
Bond    | 0.0010606  | 0.18311    | 0.79859    |  56.3 |  5.99
Neigh   | 0.013137   | 0.014837   | 0.016059   |   0.5 |  0.49
Comm    | 1.2888     | 2.2422     | 2.745      |  32.2 | 73.40
Output  | 0.0011604  | 0.0021458  | 0.0031782  |   1.4 |  0.07
Modify  | 0.11623    | 0.35796    | 1.3787     |  70.7 | 11.72
Other   |            | 0.1075     |            |       |  3.52

Nlocal:        10.0208 ave          37 max           0 min
Histogram: 20 6 6 6 2 0 1 1 1 5
Nghost:        1928.85 ave        2413 max        1336 min
Histogram: 8 0 0 0 24 0 0 0 0 16
Neighs:              0 ave           0 max           0 min
Histogram: 48 0 0 0 0 0 0 0 0 0

Total # of neighbors = 0
Ave neighs/atom = 0
Ave special neighs/atom = 15.567568
Neighbor list builds = 42
Dangerous builds = 0
Generated 0 of 1 mixed pair_coeff terms from geometric mixing rule
Setting up Verlet run ...
  Unit style    : real
  Current step  : 1110000
  Time step     : 0.05
Per MPI rank memory allocation (min/avg/max) = 13.32 | 13.87 | 14.98 Mbytes
   Step          Temp          E_pair         E_mol          TotEng         Press     
   1110000   286.34228      388.25118      18481.673      19279.619      42.477799    
   1120000   284.69354      388.35253      18491.485      19287.174     -160.86181    
   1130000   308.55007      388.64786      18495.337      19325.455     -52.738697    
   1140000   316.0698       394.78888      18505.891      19352.909     -115.11243    
   1150000   309.97387      387.31698      18505.539      19336.363     -162.39148    
   1160000   299.26822      383.55962      18496.767      19308.516     -183.4269     
Loop time of 14.9703 on 48 procs for 50000 steps with 481 atoms

Performance: 14.429 ns/day, 1.663 hours/ns, 3339.939 timesteps/s, 1.607 Matom-step/s
100.0% CPU use with 48 MPI tasks x 1 OpenMP threads

MPI task timing breakdown:
Section |  min time  |  avg time  |  max time  |%varavg| %total
---------------------------------------------------------------
Pair    | 0.015463   | 0.73649    | 4.1168     | 125.9 |  4.92
Bond    | 0.005303   | 0.91631    | 3.8558     | 126.2 |  6.12
Neigh   | 0.071331   | 0.080696   | 0.087444   |   1.3 |  0.54
Comm    | 5.855      | 11.039     | 13.427     |  71.8 | 73.74
Output  | 0.0056657  | 0.010709   | 0.015939   |   3.1 |  0.07
Modify  | 0.57242    | 1.6491     | 6.5379     | 153.8 | 11.02
Other   |            | 0.5379     |            |       |  3.59

Nlocal:        10.0208 ave          38 max           0 min
Histogram: 21 5 7 6 1 0 0 2 3 3
Nghost:        1928.48 ave        2406 max        1338 min
Histogram: 8 0 0 0 24 0 0 0 0 16
Neighs:              0 ave           0 max           0 min
Histogram: 48 0 0 0 0 0 0 0 0 0

Total # of neighbors = 0
Ave neighs/atom = 0
Ave special neighs/atom = 15.567568
Neighbor list builds = 234
Dangerous builds = 0
Generated 0 of 1 mixed pair_coeff terms from geometric mixing rule
Setting up Verlet run ...
  Unit style    : real
  Current step  : 1160000
  Time step     : 0.05
Per MPI rank memory allocation (min/avg/max) = 13.32 | 13.88 | 14.98 Mbytes
   Step          Temp          E_pair         E_mol          TotEng         Press     
   1160000   299.26822      383.55962      18496.767      19308.516     -183.4269     
   1170000   298.37911      388.68025      18511.443      19327.04      -75.788016    
Loop time of 2.96755 on 48 procs for 10000 steps with 481 atoms

Performance: 14.557 ns/day, 1.649 hours/ns, 3369.782 timesteps/s, 1.621 Matom-step/s
100.0% CPU use with 48 MPI tasks x 1 OpenMP threads

MPI task timing breakdown:
Section |  min time  |  avg time  |  max time  |%varavg| %total
---------------------------------------------------------------
Pair    | 0.0030865  | 0.14696    | 0.81355    |  55.9 |  4.95
Bond    | 0.0010659  | 0.18327    | 0.83911    |  56.4 |  6.18
Neigh   | 0.010798   | 0.012265   | 0.013333   |   0.5 |  0.41
Comm    | 1.1508     | 2.1812     | 2.6448     |  31.9 | 73.50
Output  | 0.0011329  | 0.0021219  | 0.0031472  |   1.4 |  0.07
Modify  | 0.11183    | 0.33385    | 1.3041     |  68.5 | 11.25
Other   |            | 0.1079     |            |       |  3.64

Nlocal:        10.0208 ave          40 max           0 min
Histogram: 19 6 8 6 1 0 1 2 2 3
Nghost:        1930.73 ave        2412 max        1333 min
Histogram: 8 0 0 0 24 0 0 0 0 16
Neighs:              0 ave           0 max           0 min
Histogram: 48 0 0 0 0 0 0 0 0 0

Total # of neighbors = 0
Ave neighs/atom = 0
Ave special neighs/atom = 15.567568
Neighbor list builds = 36
Dangerous builds = 0
Generated 0 of 1 mixed pair_coeff terms from geometric mixing rule
Setting up Verlet run ...
  Unit style    : real
  Current step  : 1170000
  Time step     : 0.05
Per MPI rank memory allocation (min/avg/max) = 13.32 | 13.88 | 14.98 Mbytes
   Step          Temp          E_pair         E_mol          TotEng         Press     
   1170000   298.37911      388.68025      18511.443      19327.04      -75.788016    
   1180000   317.76056      390.53448      18500.402      19345.585      42.56952     
   1190000   309.68177      384.81063      18515.294      19343.194     -220.56101    
   1200000   292.50628      395.36348      18497.521      19311.399      272.50947    
   1210000   278.36067      391.21026      18519.456      19308.941     -88.776548    
   1220000   295.27716      381.42182      18506.562      19310.463     -334.48079    
Loop time of 15.2611 on 48 procs for 50000 steps with 481 atoms

Performance: 14.154 ns/day, 1.696 hours/ns, 3276.294 timesteps/s, 1.576 Matom-step/s
100.0% CPU use with 48 MPI tasks x 1 OpenMP threads

MPI task timing breakdown:
Section |  min time  |  avg time  |  max time  |%varavg| %total
---------------------------------------------------------------
Pair    | 0.015453   | 0.73629    | 3.9431     | 124.5 |  4.82
Bond    | 0.0052945  | 0.91678    | 3.9598     | 125.7 |  6.01
Neigh   | 0.058975   | 0.066366   | 0.07176    |   1.1 |  0.43
Comm    | 6.5483     | 11.273     | 13.768     |  72.5 | 73.87
Output  | 0.0058185  | 0.010863   | 0.016183   |   3.1 |  0.07
Modify  | 0.55888    | 1.7194     | 6.8869     | 161.5 | 11.27
Other   |            | 0.5387     |            |       |  3.53

Nlocal:        10.0208 ave          44 max           0 min
Histogram: 22 6 8 3 1 3 1 0 1 3
Nghost:        1929.23 ave        2415 max        1329 min
Histogram: 8 0 0 0 24 0 0 0 0 16
Neighs:              0 ave           0 max           0 min
Histogram: 48 0 0 0 0 0 0 0 0 0

Total # of neighbors = 0
Ave neighs/atom = 0
Ave special neighs/atom = 15.567568
Neighbor list builds = 183
Dangerous builds = 0
Generated 0 of 1 mixed pair_coeff terms from geometric mixing rule
Setting up Verlet run ...
  Unit style    : real
  Current step  : 1220000
  Time step     : 0.05
Per MPI rank memory allocation (min/avg/max) = 13.32 | 13.88 | 14.98 Mbytes
[...]

Performance: 14.602 ns/day, 1.644 hours/ns, 3380.082 timesteps/s, 1.626 Matom-step/s
100.0% CPU use with 48 MPI tasks x 1 OpenMP threads

MPI task timing breakdown:
Section |  min time  |  avg time  |  max time  |%varavg| %total
---------------------------------------------------------------
Pair    | 0.015298   | 0.72618    | 3.9319     | 121.9 |  4.91
Bond    | 0.0052838  | 0.91733    | 3.9231     | 125.8 |  6.20
Neigh   | 0.016663   | 0.018794   | 0.020358   |   0.6 |  0.13
Comm    | 6.0951     | 10.953     | 13.332     |  70.5 | 74.04
Output  | 0.0054928  | 0.01045    | 0.015754   |   3.1 |  0.07
Modify  | 0.57901    | 1.6256     | 6.4168     | 152.1 | 10.99
Other   |            | 0.5415     |            |       |  3.66

Nlocal:        10.0208 ave          42 max           0 min
Histogram: 22 6 4 7 1 0 3 2 0 3
Nghost:        1928.85 ave        2411 max        1331 min
Histogram: 8 0 0 0 24 0 0 0 0 16
Neighs:              0 ave           0 max           0 min
Histogram: 48 0 0 0 0 0 0 0 0 0

Total # of neighbors = 0
Ave neighs/atom = 0
Ave special neighs/atom = 15.567568
Neighbor list builds = 52
Dangerous builds = 0
Generated 0 of 1 mixed pair_coeff terms from geometric mixing rule
Setting up Verlet run ...
  Unit style    : real
  Current step  : 2780000
  Time step     : 0.05
Per MPI rank memory allocation (min/avg/max) = 13.32 | 13.89 | 14.98 Mbytes
   Step          Temp          E_pair         E_mol          TotEng         Press     
   2780000   285.64016      372.74166      18541.581      19323.014      55.247154    
   2790000   301.91732      374.07153      18537.955      19344.006      167.72712    
Loop time of 3.0543 on 48 procs for 10000 steps with 481 atoms

Performance: 14.144 ns/day, 1.697 hours/ns, 3274.072 timesteps/s, 1.575 Matom-step/s
100.0% CPU use with 48 MPI tasks x 1 OpenMP threads

MPI task timing breakdown:
Section |  min time  |  avg time  |  max time  |%varavg| %total
---------------------------------------------------------------
Pair    | 0.0030859  | 0.14508    | 0.74552    |  54.4 |  4.75
Bond    | 0.0010567  | 0.18356    | 0.79156    |  56.5 |  6.01
Neigh   | 0.00369    | 0.0041552  | 0.0044864  |   0.3 |  0.14
Comm    | 1.2977     | 2.2684     | 2.7679     |  32.3 | 74.27
Output  | 0.0011128  | 0.002113   | 0.0032355  |   1.4 |  0.07
Modify  | 0.11018    | 0.3432     | 1.3578     |  72.5 | 11.24
Other   |            | 0.1078     |            |       |  3.53

Nlocal:        10.0208 ave          42 max           0 min
Histogram: 20 8 6 6 0 0 3 2 1 2
Nghost:        1937.35 ave        2426 max        1331 min
Histogram: 8 0 0 0 24 0 0 0 0 16
Neighs:              0 ave           0 max           0 min
Histogram: 48 0 0 0 0 0 0 0 0 0

Total # of neighbors = 0
Ave neighs/atom = 0
Ave special neighs/atom = 15.567568
Neighbor list builds = 11
Dangerous builds = 0
Generated 0 of 1 mixed pair_coeff terms from geometric mixing rule
Setting up Verlet run ...
  Unit style    : real
  Current step  : 2790000
  Time step     : 0.05
Per MPI rank memory allocation (min/avg/max) = 13.32 | 13.89 | 14.98 Mbytes
   Step          Temp          E_pair         E_mol          TotEng         Press     
   2790000   301.91732      374.07153      18537.955      19344.006      167.72712    
   2800000   296.65325      364.80441      18536.847      19326.099     -149.43582    
   2810000   301.03523      365.87373      18519.08       19315.672     -122.94185    
   2820000   267.12821      356.76987      18529.173      19268.147     -365.87606    
   2830000   294.16841      373.27259      18524.013      19318.179      90.526027    
   2840000   320.93386      359.9945       18515.895      19335.078     -213.33952    
Loop time of 15.3031 on 48 procs for 50000 steps with 481 atoms

Performance: 14.115 ns/day, 1.700 hours/ns, 3267.305 timesteps/s, 1.572 Matom-step/s
100.0% CPU use with 48 MPI tasks x 1 OpenMP threads

MPI task timing breakdown:
Section |  min time  |  avg time  |  max time  |%varavg| %total
---------------------------------------------------------------
Pair    | 0.015451   | 0.72542    | 3.7395     | 121.0 |  4.74
Bond    | 0.0052957  | 0.91687    | 3.9108     | 125.8 |  5.99
Neigh   | 0.018036   | 0.020225   | 0.021836   |   0.6 |  0.13
Comm    | 6.592      | 11.348     | 13.87      |  71.9 | 74.15
Output  | 0.0055534  | 0.010461   | 0.015582   |   3.1 |  0.07
Modify  | 0.56042    | 1.7434     | 6.9679     | 162.2 | 11.39
Other   |            | 0.5387     |            |       |  3.52

Nlocal:        10.0208 ave          41 max           0 min
Histogram: 22 3 11 3 1 1 1 1 2 3
Nghost:        1927.23 ave        2404 max        1332 min
Histogram: 8 0 0 0 24 0 0 0 0 16
Neighs:              0 ave           0 max           0 min
Histogram: 48 0 0 0 0 0 0 0 0 0

Total # of neighbors = 0
Ave neighs/atom = 0
Ave special neighs/atom = 15.567568
Neighbor list builds = 54
Dangerous builds = 0
Generated 0 of 1 mixed pair_coeff terms from geometric mixing rule
Setting up Verlet run ...
  Unit style    : real
  Current step  : 2840000
  Time step     : 0.05
Per MPI rank memory allocation (min/avg/max) = 13.32 | 13.89 | 14.98 Mbytes
   Step          Temp          E_pair         E_mol          TotEng         Press     
   2840000   320.93386      359.9945       18515.895      19335.078     -213.33952    
   2850000   316.6642       362.56408      18536.952      19352.596     -250.94004    
Loop time of 2.95253 on 48 procs for 10000 steps with 481 atoms

Performance: 14.632 ns/day, 1.640 hours/ns, 3386.927 timesteps/s, 1.629 Matom-step/s
100.0% CPU use with 48 MPI tasks x 1 OpenMP threads

MPI task timing breakdown:
Section |  min time  |  avg time  |  max time  |%varavg| %total
---------------------------------------------------------------
Pair    | 0.0030553  | 0.14496    | 0.7449     |  54.0 |  4.91
Bond    | 0.0010566  | 0.18346    | 0.76858    |  56.3 |  6.21
Neigh   | 0.0044055  | 0.0050002  | 0.005439   |   0.3 |  0.17
Comm    | 1.2266     | 2.1815     | 2.6678     |  30.7 | 73.89
Output  | 0.0011588  | 0.0021637  | 0.0031921  |   1.4 |  0.07
Modify  | 0.11567    | 0.32736    | 1.248      |  65.3 | 11.09
Other   |            | 0.1081     |            |       |  3.66

Nlocal:        10.0208 ave          41 max           0 min
Histogram: 21 6 7 6 0 0 3 1 2 2
Nghost:        1926.73 ave        2413 max        1332 min
Histogram: 8 0 0 0 24 0 0 0 0 16
Neighs:              0 ave           0 max           0 min
Histogram: 48 0 0 0 0 0 0 0 0 0

Total # of neighbors = 0
Ave neighs/atom = 0
Ave special neighs/atom = 15.567568
Neighbor list builds = 14
Dangerous builds = 0
Generated 0 of 1 mixed pair_coeff terms from geometric mixing rule
Setting up Verlet run ...
  Unit style    : real
  Current step  : 2850000
  Time step     : 0.05
Per MPI rank memory allocation (min/avg/max) = 13.32 | 13.89 | 14.98 Mbytes
   Step          Temp          E_pair         E_mol          TotEng         Press     
   2850000   316.6642       362.56408      18536.952      19352.596     -250.94004    
   2860000   309.12649      367.35972      18526.978      19336.632     -157.81512    
   2870000   294.99382      372.28313      18502.374      19296.731      18.583237    
   2880000   295.29179      372.26779      18513.309      19308.077      96.913379    
   2890000   302.746        368.41267      18538.618      19340.196     -162.61995    
   2900000   311.56814      359.69682      18542.654      19348.139     -327.28531    
Loop time of 14.9893 on 48 procs for 50000 steps with 481 atoms

Performance: 14.410 ns/day, 1.665 hours/ns, 3335.704 timesteps/s, 1.604 Matom-step/s
100.0% CPU use with 48 MPI tasks x 1 OpenMP threads

MPI task timing breakdown:
Section |  min time  |  avg time  |  max time  |%varavg| %total
---------------------------------------------------------------
Pair    | 0.015158   | 0.72368    | 3.8607     | 122.3 |  4.83
Bond    | 0.0052969  | 0.91598    | 3.8073     | 125.7 |  6.11
Neigh   | 0.020594   | 0.023154   | 0.024938   |   0.7 |  0.15
Comm    | 6.2052     | 11.11      | 13.576     |  71.5 | 74.12
Output  | 0.0054911  | 0.010401   | 0.015313   |   3.1 |  0.07
Modify  | 0.55342    | 1.6679     | 6.6139     | 157.5 | 11.13
Other   |            | 0.5378     |            |       |  3.59

Nlocal:        10.0208 ave          44 max           0 min
Histogram: 22 5 9 4 0 1 3 0 3 1
Nghost:        1919.48 ave        2389 max        1334 min
Histogram: 8 0 0 0 24 0 0 0 0 16
Neighs:              0 ave           0 max           0 min
Histogram: 48 0 0 0 0 0 0 0 0 0

Total # of neighbors = 0
Ave neighs/atom = 0
Ave special neighs/atom = 15.567568
Neighbor list builds = 64
Dangerous builds = 0
Generated 0 of 1 mixed pair_coeff terms from geometric mixing rule
Setting up Verlet run ...
  Unit style    : real
  Current step  : 2900000
  Time step     : 0.05
Per MPI rank memory allocation (min/avg/max) = 13.32 | 13.89 | 14.98 Mbytes
   Step          Temp          E_pair         E_mol          TotEng         Press     
   2900000   311.56814      359.69682      18542.654      19348.139     -327.28531    
   2910000   299.5631       384.45532      18494.715      19307.782      230.94093    
Loop time of 2.97508 on 48 procs for 10000 steps with 481 atoms

Performance: 14.521 ns/day, 1.653 hours/ns, 3361.255 timesteps/s, 1.617 Matom-step/s
100.0% CPU use with 48 MPI tasks x 1 OpenMP threads

MPI task timing breakdown:
Section |  min time  |  avg time  |  max time  |%varavg| %total
---------------------------------------------------------------
Pair    | 0.0030636  | 0.14429    | 0.78918    |  53.9 |  4.85
Bond    | 0.0010578  | 0.18294    | 0.78139    |  56.3 |  6.15
Neigh   | 0.003795   | 0.0042778  | 0.0046353  |   0.3 |  0.14
Comm    | 1.2717     | 2.2106     | 2.6966     |  31.4 | 74.30
Output  | 0.0011116  | 0.0020936  | 0.00311    |   1.4 |  0.07
Modify  | 0.10829    | 0.32336    | 1.2696     |  69.1 | 10.87
Other   |            | 0.1076     |            |       |  3.62

Nlocal:        10.0208 ave          49 max           0 min
Histogram: 22 6 11 1 2 1 1 3 0 1
Nghost:        1929.48 ave        2406 max        1324 min
Histogram: 8 0 0 0 24 0 0 0 0 16
Neighs:              0 ave           0 max           0 min
Histogram: 48 0 0 0 0 0 0 0 0 0

Total # of neighbors = 0
Ave neighs/atom = 0
Ave special neighs/atom = 15.567568
Neighbor list builds = 12
Dangerous builds = 0
Generated 0 of 1 mixed pair_coeff terms from geometric mixing rule
Setting up Verlet run ...
  Unit style    : real
  Current step  : 2910000
  Time step     : 0.05
Per MPI rank memory allocation (min/avg/max) = 13.32 | 13.89 | 14.98 Mbytes
   Step          Temp          E_pair         E_mol          TotEng         Press     
   2910000   299.5631       384.45532      18494.715      19307.782      230.94093    
   2920000   291.86227      363.76025      18525.408      19306.761     -229.67309    
   2930000   276.46332      366.83303      18554.907      19317.301     -345.18859    
   2940000   287.53723      388.27584      18533.671      19333.352      398.9719     
   2950000   309.52503      375.99067      18539.774      19358.63       16.91701     
   2960000   314.42263      359.84342      18509.747      19319.463     -341.48643    
Loop time of 15.009 on 48 procs for 50000 steps with 481 atoms

Performance: 14.391 ns/day, 1.668 hours/ns, 3331.332 timesteps/s, 1.602 Matom-step/s
100.0% CPU use with 48 MPI tasks x 1 OpenMP threads

MPI task timing breakdown:
Section |  min time  |  avg time  |  max time  |%varavg| %total
---------------------------------------------------------------
Pair    | 0.015462   | 0.72288    | 3.625      | 120.8 |  4.82
Bond    | 0.0052851  | 0.91513    | 3.928      | 126.0 |  6.10
Neigh   | 0.018351   | 0.020561   | 0.02223    |   0.6 |  0.14
Comm    | 6.2739     | 11.168     | 13.625     |  71.0 | 74.41
Output  | 0.0056016  | 0.01052    | 0.015865   |   3.1 |  0.07
Modify  | 0.53832    | 1.6338     | 6.4653     | 158.0 | 10.89
Other   |            | 0.5385     |            |       |  3.59

Nlocal:        10.0208 ave          42 max           0 min
Histogram: 23 4 8 4 1 1 2 1 1 3
Nghost:         1925.6 ave        2411 max        1331 min
Histogram: 8 0 0 1 23 0 0 0 0 16
Neighs:              0 ave           0 max           0 min
Histogram: 48 0 0 0 0 0 0 0 0 0

Total # of neighbors = 0
Ave neighs/atom = 0
Ave special neighs/atom = 15.567568
Neighbor list builds = 56
Dangerous builds = 0
Generated 0 of 1 mixed pair_coeff terms from geometric mixing rule
Setting up Verlet run ...
  Unit style    : real
  Current step  : 2960000
  Time step     : 0.05
Per MPI rank memory allocation (min/avg/max) = 13.32 | 13.89 | 14.98 Mbytes
   Step          Temp          E_pair         E_mol          TotEng         Press     
   2960000   314.42263      359.84342      18509.747      19319.463     -341.48643    
   2970000   301.65023      370.30552      18505.677      19307.581      71.396355    
Loop time of 3.10138 on 48 procs for 10000 steps with 481 atoms

Performance: 13.929 ns/day, 1.723 hours/ns, 3224.372 timesteps/s, 1.551 Matom-step/s
100.0% CPU use with 48 MPI tasks x 1 OpenMP threads

MPI task timing breakdown:
Section |  min time  |  avg time  |  max time  |%varavg| %total
---------------------------------------------------------------
Pair    | 0.0030284  | 0.14427    | 0.76161    |  54.3 |  4.65
Bond    | 0.00106    | 0.18295    | 0.77091    |  56.4 |  5.90
Neigh   | 0.0040354  | 0.004504   | 0.0048882  |   0.3 |  0.15
Comm    | 1.3517     | 2.3027     | 2.8235     |  32.2 | 74.25
Output  | 0.0011312  | 0.0021055  | 0.0030984  |   1.3 |  0.07
Modify  | 0.10571    | 0.3572     | 1.385      |  73.5 | 11.52
Other   |            | 0.1076     |            |       |  3.47

Nlocal:        10.0208 ave          42 max           0 min
Histogram: 21 7 6 5 1 1 1 2 3 1
Nghost:        1923.85 ave        2398 max        1331 min
Histogram: 8 0 0 0 24 0 0 0 0 16
Neighs:              0 ave           0 max           0 min
Histogram: 48 0 0 0 0 0 0 0 0 0

Total # of neighbors = 0
Ave neighs/atom = 0
Ave special neighs/atom = 15.567568
Neighbor list builds = 12
Dangerous builds = 0
Generated 0 of 1 mixed pair_coeff terms from geometric mixing rule
Setting up Verlet run ...
  Unit style    : real
  Current step  : 2970000
  Time step     : 0.05
Per MPI rank memory allocation (min/avg/max) = 13.32 | 13.89 | 14.98 Mbytes
   Step          Temp          E_pair         E_mol          TotEng         Press     
   2970000   301.65023      370.30552      18505.677      19307.581      71.396355    
   2980000   284.14949      373.10423      18514.782      19294.444     -23.125564    
   2990000   293.74191      367.7733       18524.042      19312.098     -204.93387    
   3000000   312.66008      374.37964      18514.72       19336.45       63.064515    
   3010000   312.3761       368.74505      18514.29       19329.979     -59.541763    
   3020000   294.0776       369.08914      18521.978      19311.83      -20.989706    
Loop time of 15.1921 on 48 procs for 50000 steps with 481 atoms

Performance: 14.218 ns/day, 1.688 hours/ns, 3291.185 timesteps/s, 1.583 Matom-step/s
100.0% CPU use with 48 MPI tasks x 1 OpenMP threads

MPI task timing breakdown:
Section |  min time  |  avg time  |  max time  |%varavg| %total
---------------------------------------------------------------
Pair    | 0.015379   | 0.72271    | 3.6857     | 120.5 |  4.76
Bond    | 0.0052919  | 0.91524    | 3.904      | 125.8 |  6.02
Neigh   | 0.022735   | 0.025493   | 0.027599   |   0.7 |  0.17
Comm    | 6.6645     | 11.296     | 13.807     |  71.8 | 74.35
Output  | 0.0056504  | 0.010585   | 0.01559    |   3.1 |  0.07
Modify  | 0.54031    | 1.6835     | 6.8523     | 162.6 | 11.08
Other   |            | 0.5389     |            |       |  3.55

Nlocal:        10.0208 ave          44 max           0 min
Histogram: 22 5 9 3 1 2 0 4 1 1
Nghost:         1924.1 ave        2401 max        1329 min
Histogram: 8 0 0 0 24 0 0 0 0 16
Neighs:              0 ave           0 max           0 min
Histogram: 48 0 0 0 0 0 0 0 0 0

Total # of neighbors = 0
Ave neighs/atom = 0
Ave special neighs/atom = 15.567568
Neighbor list builds = 68
Dangerous builds = 0
Generated 0 of 1 mixed pair_coeff terms from geometric mixing rule
Setting up Verlet run ...
  Unit style    : real
  Current step  : 3020000
  Time step     : 0.05
Per MPI rank memory allocation (min/avg/max) = 13.32 | 13.89 | 14.98 Mbytes
   Step          Temp          E_pair         E_mol          TotEng         Press     
   3020000   294.0776       369.08914      18521.978      19311.83      -20.989706    
   3030000   277.73804      374.53221      18501.87       19273.786      160.48019    
Loop time of 3.04971 on 48 procs for 10000 steps with 481 atoms

Performance: 14.165 ns/day, 1.694 hours/ns, 3279.005 timesteps/s, 1.577 Matom-step/s
100.0% CPU use with 48 MPI tasks x 1 OpenMP threads

MPI task timing breakdown:
Section |  min time  |  avg time  |  max time  |%varavg| %total
---------------------------------------------------------------
Pair    | 0.0030915  | 0.14428    | 0.7623     |  53.6 |  4.73
Bond    | 0.0010561  | 0.18308    | 0.81653    |  56.6 |  6.00
Neigh   | 0.003928   | 0.0044404  | 0.0047863  |   0.3 |  0.15
Comm    | 1.2997     | 2.27       | 2.7707     |  32.2 | 74.43
Output  | 0.0010946  | 0.0020594  | 0.0030561  |   1.4 |  0.07
Modify  | 0.10415    | 0.33806    | 1.3773     |  73.3 | 11.09
Other   |            | 0.1078     |            |       |  3.54

Nlocal:        10.0208 ave          36 max           0 min
Histogram: 20 7 4 7 2 0 0 0 3 5
Nghost:        1930.23 ave        2409 max        1337 min
Histogram: 8 0 0 0 24 0 0 0 0 16
Neighs:              0 ave           0 max           0 min
Histogram: 48 0 0 0 0 0 0 0 0 0

Total # of neighbors = 0
Ave neighs/atom = 0
Ave special neighs/atom = 15.567568
Neighbor list builds = 12
Dangerous builds = 0
Generated 0 of 1 mixed pair_coeff terms from geometric mixing rule
Setting up Verlet run ...
  Unit style    : real
  Current step  : 3030000
  Time step     : 0.05
Per MPI rank memory allocation (min/avg/max) = 13.32 | 13.89 | 14.98 Mbytes
   Step          Temp          E_pair         E_mol          TotEng         Press     
   3030000   277.73804      374.53221      18501.87       19273.786      160.48019    
   3040000   288.05268      371.88924      18497.101      19281.133      72.535934    
   3050000   304.09032      377.29536      18506.227      19318.611      302.76397    
   3060000   294.40432      362.41379      18524.902      19308.547     -209.37324    
   3070000   294.12342      360.96858      18509          19290.797     -219.40441    
   3080000   297.44637      372.73498      18495.301      19293.619      220.41215    
Loop time of 14.9119 on 48 procs for 50000 steps with 481 atoms

Performance: 14.485 ns/day, 1.657 hours/ns, 3353.021 timesteps/s, 1.613 Matom-step/s
100.0% CPU use with 48 MPI tasks x 1 OpenMP threads

MPI task timing breakdown:
Section |  min time  |  avg time  |  max time  |%varavg| %total
---------------------------------------------------------------
Pair    | 0.01542    | 0.72154    | 3.6985     | 119.5 |  4.84
Bond    | 0.0052962  | 0.9157     | 4.0631     | 126.4 |  6.14
Neigh   | 0.018815   | 0.021149   | 0.022918   |   0.6 |  0.14
Comm    | 6.3985     | 11.056     | 13.515     |  70.6 | 74.15
Output  | 0.0056009  | 0.010551   | 0.015691   |   3.1 |  0.07
Modify  | 0.54345    | 1.6465     | 6.5665     | 156.2 | 11.04
Other   |            | 0.54       |            |       |  3.62

Nlocal:        10.0208 ave          51 max           0 min
Histogram: 23 8 6 4 1 1 1 3 0 1
Nghost:        1930.98 ave        2412 max        1322 min
Histogram: 8 0 0 0 24 0 0 0 0 16
Neighs:              0 ave           0 max           0 min
Histogram: 48 0 0 0 0 0 0 0 0 0

Total # of neighbors = 0
Ave neighs/atom = 0
Ave special neighs/atom = 15.567568
Neighbor list builds = 57
Dangerous builds = 0
Total wall time: 0:15:50
