ITEM: TIMESTEP
150000
ITEM: NUMBER OF ATOMS
96
ITEM: BOX BOUNDS pp pp pp
-1.2500000000000000e+01 1.2500000000000000e+01
-1.2500000000000000e+01 1.2500000000000000e+01
-1.5000000000000000e+01 1.5000000000000000e+01
ITEM: ATOMS id type xs ys zs
9 1 0.377185 0.33217 0.252834
16 1 0.474146 0.332888 0.249044
22 1 0.57177 0.334396 0.249158
31 1 0.665974 0.334791 0.265648
5 1 0.32836 0.360051 0.253639
3 1 0.330696 0.414259 0.257093
6 1 0.378172 0.445151 0.254015
12 1 0.426422 0.360497 0.254579
11 1 0.424444 0.416001 0.24251
14 1 0.47352 0.443679 0.238887
21 1 0.522476 0.361017 0.243326
18 1 0.521482 0.416466 0.246738
25 1 0.571255 0.445172 0.251102
27 1 0.621822 0.36006 0.250265
28 1 0.618297 0.414343 0.258731
33 1 0.66515 0.44389 0.25264
9890 2 0.216455 0.0458259 0.181306
9833 2 0.404303 0.233843 0.276634
9910 2 0.375285 0.301072 0.0484408
9914 2 0.0254321 0.35654 0.0722698
9808 2 0.583501 0.444343 0.102776
15 1 0.473971 0.499745 0.25033
32 1 0.666534 0.499738 0.249131
9925 2 0.636863 0.0641797 0.614347
9916 2 0.98071 0.416481 0.536582
9917 2 0.408571 0.225383 0.435288
9825 2 0.582761 0.388712 0.649673
9915 2 0.771792 0.467747 0.584474
39 1 0.336829 0.410823 0.751582
38 1 0.331853 0.465238 0.750936
42 1 0.385954 0.383205 0.749404
48 1 0.481745 0.387664 0.741539
45 1 0.430479 0.41566 0.742232
44 1 0.428367 0.471108 0.749731
52 1 0.577038 0.391022 0.755811
51 1 0.530388 0.418257 0.743903
50 1 0.524119 0.472409 0.75501
55 1 0.623144 0.417373 0.76386
57 1 0.622217 0.473752 0.761124
58 1 0.669296 0.38842 0.751791
9881 2 0.692762 0.314928 0.844225
9919 2 0.737722 0.112232 0.874853
40 1 0.378754 0.497815 0.755023
9913 2 0.458681 0.388176 0.856972
9918 2 0.314666 0.229796 0.679807
9926 2 0.173452 0.495341 0.835703
47 1 0.474368 0.499708 0.745827
2 1 0.329568 0.529814 0.252684
4 1 0.328646 0.583531 0.263362
8 1 0.376872 0.609498 0.258209
10 1 0.425779 0.529203 0.242308
13 1 0.424559 0.585587 0.245264
17 1 0.471386 0.612067 0.258865
19 1 0.524782 0.528298 0.252823
20 1 0.52148 0.582653 0.262703
23 1 0.56876 0.612994 0.259821
29 1 0.620403 0.528251 0.259072
26 1 0.618242 0.585671 0.25193
30 1 0.667318 0.612155 0.258271
9897 2 0.41862 0.813553 0.15229
9912 2 0.742741 0.704016 0.17536
24 1 0.57295 0.50114 0.259016
9877 2 0.811573 0.547156 0.0543863
9886 2 0.785623 0.907351 0.0150249
7 1 0.376141 0.500952 0.246118
9853 2 0.424621 0.566603 0.382676
9859 2 0.64652 0.681527 0.62638
9901 2 0.396998 0.869103 0.596098
9920 2 0.90991 0.734432 0.663052
9900 2 0.133608 0.783343 0.377939
9927 2 0.0236357 0.848611 0.507544
37 1 0.327541 0.583307 0.753143
63 1 0.327399 0.639431 0.748307
72 1 0.666364 0.664887 0.756677
66 1 0.473737 0.664416 0.751338
68 1 0.570619 0.66638 0.749291
41 1 0.377027 0.555485 0.748371
46 1 0.47482 0.555386 0.75209
43 1 0.424913 0.582326 0.759423
65 1 0.42492 0.639292 0.758659
54 1 0.572751 0.55629 0.751863
49 1 0.524316 0.582755 0.745195
67 1 0.522831 0.638239 0.743659
56 1 0.620154 0.582687 0.741285
71 1 0.619712 0.63925 0.743021
64 1 0.377532 0.665803 0.749464
59 1 0.669636 0.559015 0.744118
53 1 0.573253 0.500321 0.753204
9891 2 0.134348 0.592945 0.685224
9759 2 0.476099 0.952809 0.915679
9835 2 0.250222 0.840996 0.817554
9864 2 0.183284 0.849637 0.988814
9879 2 0.799012 0.527627 0.758786
9928 2 0.0302638 0.973789 0.802979
60 1 0.669147 0.503481 0.750958
9923 2 0.930051 0.614953 0.832981
