ITEM: TIMESTEP
140000
ITEM: NUMBER OF ATOMS
84
ITEM: BOX BOUNDS pp pp pp
-1.2500000000000000e+01 1.2500000000000000e+01
-1.2500000000000000e+01 1.2500000000000000e+01
-1.5000000000000000e+01 1.5000000000000000e+01
ITEM: ATOMS id type xs ys zs
1 1 0.384706 0.331179 0.249334
3 1 0.481043 0.328915 0.253886
4 1 0.57534 0.333044 0.247701
5 1 0.670648 0.327076 0.252068
10 1 0.335162 0.358683 0.245796
8 1 0.335756 0.413611 0.245845
11 1 0.384673 0.441382 0.24348
16 1 0.43281 0.357681 0.24668
15 1 0.430586 0.41348 0.255694
18 1 0.479831 0.441422 0.255398
24 1 0.52829 0.357553 0.259895
21 1 0.527004 0.412861 0.249201
27 1 0.576005 0.440628 0.250867
29 1 0.625176 0.35922 0.246542
30 1 0.625369 0.414402 0.255573
34 1 0.672591 0.446169 0.256507
19 1 0.475943 0.497388 0.24817
12 1 0.381095 0.495956 0.253914
26 1 0.574263 0.496521 0.256467
8007 2 0.282478 0.0984139 0.299737
7953 2 0.896252 0.468442 0.379265
7975 2 0.0426414 0.385418 0.54597
7935 2 0.133863 0.0715616 0.577646
60 1 0.327954 0.419114 0.761225
59 1 0.329588 0.474345 0.755875
64 1 0.375512 0.389968 0.758033
71 1 0.471653 0.389552 0.75394
67 1 0.424404 0.41529 0.744392
66 1 0.426127 0.470565 0.753159
76 1 0.567632 0.390396 0.755406
75 1 0.518716 0.417792 0.756263
73 1 0.520297 0.471821 0.743823
79 1 0.618181 0.414865 0.750975
82 1 0.61846 0.471006 0.74376
83 1 0.663957 0.387713 0.741601
7826 2 0.516537 0.337809 0.671489
7961 2 0.713674 0.298039 0.979141
85 1 0.666286 0.499906 0.745059
7987 2 0.0459422 0.35608 0.944077
7993 2 0.30776 0.457311 0.890956
7977 2 0.857679 0.417894 0.778318
7 1 0.331509 0.523245 0.250742
9 1 0.331978 0.578974 0.256478
13 1 0.378762 0.610446 0.254338
14 1 0.427571 0.527532 0.246954
17 1 0.428633 0.583273 0.254775
20 1 0.476371 0.607423 0.239563
22 1 0.523978 0.525442 0.253355
23 1 0.524333 0.577257 0.237773
25 1 0.572038 0.60773 0.240346
31 1 0.622133 0.526579 0.251556
28 1 0.620079 0.582691 0.254897
32 1 0.664992 0.612635 0.250429
33 1 0.670934 0.500477 0.255764
7980 2 0.844554 0.583029 0.120745
8009 2 0.134533 0.781416 0.116881
8011 2 0.462116 0.966681 0.237934
7944 2 0.783235 0.58809 0.656802
7940 2 0.00895535 0.668089 0.58007
8003 2 0.623066 0.623384 0.490664
7994 2 0.548627 0.862599 0.362754
58 1 0.329043 0.584981 0.754388
61 1 0.326817 0.640351 0.753885
96 1 0.668165 0.666266 0.753535
7984 2 0.238224 0.893702 0.948954
92 1 0.473965 0.666335 0.745924
63 1 0.378117 0.557041 0.758603
69 1 0.47457 0.554725 0.75075
65 1 0.424767 0.583226 0.748952
68 1 0.424099 0.639193 0.752137
78 1 0.572397 0.556475 0.739957
72 1 0.52403 0.583959 0.748162
74 1 0.523791 0.639582 0.746165
81 1 0.620124 0.583984 0.741294
80 1 0.618992 0.638403 0.757393
93 1 0.570522 0.669243 0.754827
84 1 0.669556 0.556019 0.745275
91 1 0.374461 0.666198 0.745243
7997 2 0.0901304 0.79957 0.712678
7981 2 0.507088 0.597712 0.862135
8008 2 0.151778 0.69837 0.935405
62 1 0.377706 0.501552 0.751348
70 1 0.471897 0.500563 0.743243
77 1 0.570896 0.500021 0.747876
