ITEM: TIMESTEP
150000
ITEM: NUMBER OF ATOMS
110
ITEM: BOX BOUNDS pp pp pp
-1.5000000000000000e+01 1.5000000000000000e+01
-1.5000000000000000e+01 1.5000000000000000e+01
-1.5000000000000000e+01 1.5000000000000000e+01
ITEM: ATOMS id type xs ys zs
9 1 0.392903 0.364532 0.252765
16 1 0.475791 0.362044 0.249236
21 1 0.560995 0.358979 0.249678
28 1 0.640478 0.35605 0.25289
6 1 0.352985 0.386337 0.24806
4 1 0.355362 0.433101 0.256589
7 1 0.397281 0.454759 0.258482
12 1 0.434639 0.385157 0.259759
11 1 0.436172 0.429564 0.250861
14 1 0.478088 0.452745 0.250194
20 1 0.519375 0.383094 0.244634
17 1 0.518539 0.428312 0.257461
23 1 0.55978 0.451739 0.253695
25 1 0.601128 0.382207 0.247805
26 1 0.599315 0.427554 0.259513
30 1 0.638669 0.45062 0.248311
10475 2 0.215935 0.0459947 0.180911
29 1 0.639116 0.496868 0.244818
10445 2 0.510605 0.250948 0.0946602
22 1 0.558951 0.497376 0.260343
10496 2 0.00426233 0.133607 0.0306298
10479 2 0.78289 0.0327535 0.20075
10515 2 0.780388 0.16373 0.289186
10501 2 0.0256654 0.356804 0.0722444
10511 2 0.457628 0.449915 0.12731
10514 2 0.280096 0.372146 0.375598
10516 2 0.636676 0.0642318 0.614402
10498 2 0.159572 0.06968 0.378015
10485 2 0.264603 0.487462 0.509075
10492 2 0.743156 0.478474 0.613577
10509 2 0.921834 0.0590846 0.409982
10507 2 0.540024 0.147246 0.504528
41 1 0.35922 0.431543 0.759341
40 1 0.360117 0.476836 0.7525
44 1 0.400345 0.407335 0.752163
50 1 0.481547 0.407408 0.748044
47 1 0.441437 0.429626 0.743782
46 1 0.438905 0.476381 0.749895
54 1 0.561162 0.407436 0.753666
53 1 0.52053 0.431425 0.755985
52 1 0.521722 0.476407 0.745055
57 1 0.602757 0.429468 0.755531
59 1 0.601621 0.474271 0.742257
60 1 0.644406 0.408169 0.743658
10518 2 0.173356 0.495101 0.835675
10517 2 0.287226 0.135995 0.766878
62 1 0.642035 0.498469 0.745794
49 1 0.480233 0.498933 0.742596
10468 2 0.934734 0.473931 0.753548
10500 2 0.458785 0.38911 0.856906
10487 2 0.779754 0.219906 0.787493
10449 2 0.517354 0.199873 0.828041
55 1 0.561808 0.499531 0.745948
3 1 0.357905 0.524418 0.254087
5 1 0.358506 0.571662 0.256044
31 1 0.399011 0.595668 0.250407
10 1 0.437806 0.523216 0.251462
13 1 0.437821 0.570213 0.245609
32 1 0.479532 0.592882 0.25103
18 1 0.520391 0.522906 0.249227
19 1 0.519017 0.568141 0.258181
33 1 0.560302 0.590394 0.25297
27 1 0.599721 0.520326 0.255121
24 1 0.600245 0.567067 0.257233
35 1 0.635177 0.586208 0.23448
10359 2 0.323998 0.675314 0.238949
10506 2 0.582247 0.73604 0.131556
8 1 0.398597 0.500185 0.246796
10444 2 0.506219 0.718776 0.294321
10453 2 0.0476758 0.856895 0.165583
10513 2 0.680368 0.916374 0.158744
15 1 0.477991 0.50062 0.253144
10504 2 0.392742 0.716843 0.0472884
10510 2 0.0231993 0.519593 0.117721
10508 2 0.871641 0.835118 0.0839228
10520 2 0.785029 0.634089 0.101705
10415 2 0.498213 0.504084 0.630482
10309 2 0.593232 0.543426 0.343385
10503 2 0.384236 0.687629 0.471977
10512 2 0.87584 0.765529 0.656507
10441 2 0.942525 0.555381 0.518984
10375 2 0.789058 0.717228 0.480099
10447 2 0.645637 0.680195 0.624911
10493 2 0.0157858 0.946565 0.52812
10481 2 0.133272 0.783792 0.378676
39 1 0.360238 0.573781 0.748249
65 1 0.357548 0.620706 0.748867
68 1 0.480045 0.63781 0.754945
73 1 0.638865 0.642605 0.749691
70 1 0.560467 0.638861 0.749768
43 1 0.399428 0.5487 0.753029
48 1 0.480739 0.545252 0.749161
45 1 0.440757 0.570017 0.746714
67 1 0.440096 0.613815 0.759233
56 1 0.561148 0.545388 0.736227
51 1 0.519524 0.570156 0.737762
69 1 0.519808 0.614951 0.750528
58 1 0.602137 0.570283 0.736156
72 1 0.600499 0.617283 0.741535
66 1 0.400039 0.639594 0.754743
61 1 0.640261 0.545737 0.743244
10476 2 0.133824 0.593039 0.684875
10432 2 0.845719 0.635969 0.728218
10362 2 0.0329696 0.829791 0.942732
10452 2 0.993074 0.619952 0.896814
10473 2 0.342256 0.884262 0.996445
10463 2 0.437574 0.797925 0.779645
42 1 0.398511 0.501306 0.741923
10521 2 0.0299037 0.97348 0.802977
10499 2 0.722698 0.757538 0.767484
