ITEM: TIMESTEP
150000
ITEM: NUMBER OF ATOMS
108
ITEM: BOX BOUNDS pp pp pp
-1.2500000000000000e+01 1.2500000000000000e+01
-1.2500000000000000e+01 1.2500000000000000e+01
-1.5000000000000000e+01 1.5000000000000000e+01
ITEM: ATOMS id type xs ys zs
9 1 0.375661 0.333208 0.253134
16 1 0.472208 0.336908 0.249817
22 1 0.570804 0.335069 0.245322
31 1 0.668263 0.33405 0.250497
5 1 0.325168 0.361283 0.254905
3 1 0.326313 0.416213 0.256295
6 1 0.375344 0.443888 0.258795
12 1 0.424275 0.36322 0.256729
11 1 0.423897 0.419188 0.247469
14 1 0.474588 0.443517 0.251541
21 1 0.520781 0.362729 0.239792
18 1 0.52278 0.417472 0.241713
25 1 0.571919 0.445544 0.244377
27 1 0.620963 0.361316 0.238891
28 1 0.619794 0.41723 0.248844
33 1 0.66692 0.445667 0.240012
8089 2 0.164829 0.392096 0.186552
8127 2 0.40832 0.222823 0.2795
7 1 0.374424 0.499534 0.247483
8112 2 0.583339 0.447728 0.106945
8169 2 0.216554 0.0458173 0.181132
8201 2 0.0800869 0.176609 0.00635719
8186 2 0.990797 0.417952 0.0133336
8187 2 0.375321 0.301129 0.0485245
15 1 0.473726 0.499925 0.247476
8124 2 0.700332 0.336445 0.63976
8151 2 0.838197 0.414314 0.352376
8191 2 0.980513 0.416557 0.536658
8189 2 0.0801008 0.0539621 0.539581
8192 2 0.539624 0.147756 0.504674
39 1 0.329972 0.413658 0.757111
38 1 0.328387 0.470472 0.752289
42 1 0.378304 0.390717 0.752927
48 1 0.475881 0.38862 0.745659
45 1 0.425618 0.414451 0.739689
44 1 0.424298 0.470027 0.74431
52 1 0.573843 0.388911 0.748594
51 1 0.525092 0.413493 0.741299
50 1 0.523896 0.468821 0.748903
55 1 0.621999 0.415506 0.757711
57 1 0.622464 0.471164 0.754099
58 1 0.666359 0.383301 0.752382
60 1 0.670269 0.499193 0.748361
47 1 0.474583 0.497432 0.740884
40 1 0.375643 0.49895 0.742959
8139 2 0.0250821 0.341926 0.829209
53 1 0.573607 0.497515 0.741818
8058 2 0.758383 0.331569 0.839471
8088 2 0.402739 0.369411 0.862188
8014 2 0.1993 0.43515 0.675984
8181 2 0.961696 0.0688647 0.899356
8190 2 0.535018 0.08907 0.888982
8196 2 0.314766 0.229787 0.679816
8197 2 0.737735 0.112268 0.875046
2 1 0.326917 0.5299 0.250401
4 1 0.330518 0.586648 0.243374
8 1 0.381422 0.613839 0.244122
10 1 0.424412 0.528373 0.250566
13 1 0.428941 0.58431 0.240266
17 1 0.47661 0.611996 0.251272
19 1 0.522435 0.528096 0.248065
20 1 0.52352 0.583479 0.259136
23 1 0.572498 0.609965 0.258687
29 1 0.621739 0.527153 0.256573
26 1 0.622692 0.584229 0.250164
30 1 0.673379 0.611326 0.262057
5547 2 0.379713 0.527696 0.136292
8162 2 0.549828 0.717786 0.00787685
32 1 0.67021 0.500498 0.246479
8145 2 0.508404 0.717466 0.294399
8175 2 0.41865 0.813745 0.152153
24 1 0.57007 0.50058 0.254418
8202 2 0.680638 0.916217 0.158862
8158 2 0.811695 0.547116 0.0544871
8193 2 0.280909 0.652349 0.171953
8194 2 0.0541983 0.84371 0.0467046
8142 2 0.426413 0.567914 0.380141
7852 2 0.52762 0.509169 0.629268
8198 2 0.909884 0.734493 0.66295
8164 2 0.60484 0.979834 0.399345
8178 2 0.397126 0.868856 0.596408
7681 2 0.606295 0.716974 0.642788
8172 2 0.363346 0.587239 0.647813
8204 2 0.0237365 0.848664 0.507243
37 1 0.330445 0.583362 0.748503
63 1 0.334835 0.639209 0.741163
72 1 0.665022 0.667933 0.76033
8156 2 0.848427 0.726419 0.841806
66 1 0.474098 0.665276 0.755309
41 1 0.37818 0.553965 0.750835
46 1 0.476081 0.553446 0.750232
43 1 0.427311 0.579857 0.747644
65 1 0.426626 0.635171 0.757142
54 1 0.573851 0.552591 0.741531
49 1 0.5253 0.582297 0.743155
67 1 0.522052 0.636049 0.755102
56 1 0.622041 0.582272 0.749374
71 1 0.620097 0.638219 0.746207
68 1 0.568565 0.664081 0.751236
59 1 0.669684 0.553204 0.747445
64 1 0.382072 0.664585 0.746682
8034 2 0.461545 0.801507 0.8038
8071 2 0.251773 0.638429 0.854629
7894 2 0.487571 0.578163 0.855379
8160 2 0.800583 0.528023 0.759007
8168 2 0.342232 0.883301 0.99609
8195 2 0.0990621 0.655228 0.739494
8199 2 0.157641 0.849328 0.888807
