ITEM: TIMESTEP
50000
ITEM: NUMBER OF ATOMS
90
ITEM: BOX BOUNDS pp pp pp
-1.2500000000000000e+01 1.2500000000000000e+01
-1.2500000000000000e+01 1.2500000000000000e+01
-1.5000000000000000e+01 1.5000000000000000e+01
ITEM: ATOMS id type xs ys zs
9 1 0.383222 0.330815 0.251433
16 1 0.4788 0.329789 0.245785
22 1 0.57452 0.332163 0.252631
31 1 0.667638 0.332529 0.248009
5 1 0.333645 0.359209 0.25455
3 1 0.332611 0.416509 0.252941
6 1 0.382108 0.442948 0.256131
12 1 0.432215 0.358084 0.254191
11 1 0.429206 0.413925 0.245832
14 1 0.475392 0.443085 0.24332
21 1 0.526494 0.3589 0.240884
18 1 0.523218 0.414558 0.25241
25 1 0.574249 0.442378 0.252326
27 1 0.620856 0.361376 0.253039
28 1 0.620965 0.415093 0.242061
33 1 0.667651 0.444465 0.246901
7846 2 0.756872 0.164608 0.286049
24 1 0.573268 0.498858 0.245682
7880 2 0.226142 0.136216 0.0814637
15 1 0.476533 0.497212 0.254928
7898 2 0.848479 0.400161 0.238176
7 1 0.381152 0.499465 0.247601
7913 2 0.77142 0.3458 0.407975
7854 2 0.198057 0.245519 0.549493
7877 2 0.513049 0.490344 0.659076
7918 2 0.269551 0.0218544 0.651449
39 1 0.329319 0.41605 0.75547
38 1 0.329172 0.473402 0.752336
42 1 0.377793 0.389481 0.75102
48 1 0.473339 0.389612 0.745748
45 1 0.423976 0.416736 0.741635
44 1 0.423858 0.473027 0.751049
52 1 0.572311 0.388367 0.759003
51 1 0.524443 0.41391 0.744947
50 1 0.520406 0.470125 0.75219
55 1 0.620022 0.416236 0.760916
57 1 0.618348 0.469044 0.746001
58 1 0.668353 0.389217 0.755421
53 1 0.569449 0.498792 0.743621
7865 2 0.355134 0.280493 0.726132
7825 2 0.119211 0.409002 0.815128
60 1 0.668443 0.495999 0.749007
7895 2 0.557234 0.0946962 0.907001
7911 2 0.942866 0.184857 0.981963
2 1 0.333236 0.529538 0.249941
4 1 0.335898 0.585677 0.253877
8 1 0.383559 0.615731 0.253295
10 1 0.428735 0.528202 0.254518
13 1 0.428583 0.584617 0.243516
17 1 0.477334 0.609991 0.250277
19 1 0.523982 0.527218 0.249463
20 1 0.526426 0.583019 0.25618
23 1 0.572384 0.612456 0.243114
29 1 0.621526 0.528904 0.251542
26 1 0.621633 0.583805 0.240927
30 1 0.67318 0.608746 0.246107
7919 2 0.462134 0.966785 0.237924
7906 2 0.510819 0.529926 0.0291442
7916 2 0.134336 0.781113 0.116929
32 1 0.668671 0.500267 0.244275
7909 2 0.627775 0.996892 0.088197
7912 2 0.623327 0.623301 0.490752
7851 2 0.783589 0.587169 0.656559
7892 2 0.144233 0.947511 0.504489
7896 2 0.312619 0.603758 0.61263
7875 2 0.344749 0.502157 0.449163
37 1 0.328979 0.589022 0.752975
63 1 0.331171 0.645122 0.75385
72 1 0.664367 0.662737 0.767949
7908 2 0.0902063 0.799398 0.712696
68 1 0.572668 0.667595 0.753244
41 1 0.374824 0.558521 0.757858
46 1 0.474371 0.557562 0.75194
43 1 0.42495 0.583922 0.747446
65 1 0.428019 0.64059 0.75573
54 1 0.571425 0.554756 0.743708
49 1 0.523334 0.583008 0.741036
67 1 0.524465 0.641231 0.742856
56 1 0.620176 0.582837 0.739088
71 1 0.619655 0.638552 0.744729
47 1 0.473304 0.50166 0.746366
59 1 0.666857 0.553105 0.749757
64 1 0.381153 0.670412 0.751892
66 1 0.475806 0.669453 0.751207
40 1 0.375781 0.503701 0.745336
7861 2 0.503824 0.877148 0.972463
7885 2 0.506429 0.597871 0.862533
7897 2 0.578416 0.861339 0.794565
7907 2 0.980868 0.895582 0.973803
7917 2 0.363167 0.727055 0.923419
