ITEM: TIMESTEP
0
ITEM: NUMBER OF ATOMS
72
ITEM: BOX BOUNDS pp pp pp
-1.2500000000000000e+01 1.2500000000000000e+01
-1.2500000000000000e+01 1.2500000000000000e+01
-1.5000000000000000e+01 1.5000000000000000e+01
ITEM: ATOMS id type xs ys zs
9 1 0.378245 0.330768 0.25
16 1 0.475659 0.331108 0.25
22 1 0.573232 0.331099 0.25
31 1 0.670137 0.329869 0.25
5 1 0.329451 0.358598 0.25
3 1 0.329281 0.414786 0.25
6 1 0.377727 0.443447 0.25
12 1 0.426849 0.359034 0.25
11 1 0.426683 0.415417 0.25
14 1 0.475566 0.443497 0.25
21 1 0.524445 0.359083 0.25
18 1 0.524439 0.415395 0.25
25 1 0.573324 0.443447 0.25
27 1 0.62209 0.358869 0.25
28 1 0.622176 0.415223 0.25
7 1 0.377727 0.499833 0.25
15 1 0.475566 0.499783 0.25
24 1 0.573324 0.499833 0.25
33 1 0.670694 0.443592 0.25
32 1 0.670694 0.499688 0.25
1 2 0.26 0.26 0.4
34 2 0.86 0.26 0.5
39 1 0.329451 0.415318 0.75
38 1 0.329281 0.471506 0.75
42 1 0.378245 0.387488 0.75
48 1 0.475659 0.387828 0.75
45 1 0.426849 0.415754 0.75
44 1 0.426683 0.472137 0.75
52 1 0.573232 0.387819 0.75
51 1 0.524445 0.415803 0.75
50 1 0.524439 0.472115 0.75
55 1 0.62209 0.415589 0.75
57 1 0.622176 0.471943 0.75
58 1 0.670137 0.386589 0.75
2 1 0.329281 0.528494 0.25
4 1 0.329451 0.584682 0.25
8 1 0.378245 0.612512 0.25
10 1 0.426683 0.527863 0.25
13 1 0.426849 0.584246 0.25
17 1 0.475659 0.612172 0.25
19 1 0.524439 0.527885 0.25
20 1 0.524445 0.584197 0.25
23 1 0.573232 0.612181 0.25
29 1 0.622176 0.528057 0.25
26 1 0.62209 0.584411 0.25
30 1 0.670137 0.613411 0.25
35 2 0.62 0.98 0.5
36 2 0.74 0.98 0.6
37 1 0.329281 0.585214 0.75
63 1 0.329451 0.641402 0.75
40 1 0.377727 0.500167 0.75
47 1 0.475566 0.500217 0.75
53 1 0.573324 0.500167 0.75
41 1 0.377727 0.556553 0.75
46 1 0.475566 0.556503 0.75
43 1 0.426683 0.584583 0.75
65 1 0.426849 0.640966 0.75
54 1 0.573324 0.556553 0.75
49 1 0.524439 0.584605 0.75
67 1 0.524445 0.640917 0.75
56 1 0.622176 0.584777 0.75
71 1 0.62209 0.641131 0.75
60 1 0.670694 0.500312 0.75
59 1 0.670694 0.556408 0.75
64 1 0.378245 0.669232 0.75
66 1 0.475659 0.668892 0.75
68 1 0.573232 0.668901 0.75
72 1 0.670137 0.670131 0.75
61 2 0.98 0.62 0.8
70 2 0.62 0.98 0.8
69 2 0.62 0.74 0.9
62 2 0.14 0.98 0.9
ITEM: TIMESTEP
100
ITEM: NUMBER OF ATOMS
72
ITEM: BOX BOUNDS pp pp pp
-1.2500000000000000e+01 1.2500000000000000e+01
-1.2500000000000000e+01 1.2500000000000000e+01
-1.5000000000000000e+01 1.5000000000000000e+01
ITEM: ATOMS id type xs ys zs
9 1 0.377541 0.33051 0.249427
16 1 0.476195 0.331151 0.24944
22 1 0.571966 0.332622 0.249935
31 1 0.669169 0.329476 0.249888
5 1 0.329977 0.358424 0.249885
3 1 0.330435 0.41357 0.249841
6 1 0.377788 0.443819 0.251145
12 1 0.426523 0.358429 0.251009
11 1 0.427342 0.414412 0.24817
14 1 0.476336 0.443898 0.25031
21 1 0.523798 0.359587 0.250553
18 1 0.524225 0.414711 0.250331
25 1 0.5738 0.443221 0.248252
27 1 0.621509 0.359656 0.24952
28 1 0.62289 0.414674 0.251125
7 1 0.378108 0.50036 0.249265
15 1 0.476395 0.499147 0.248874
24 1 0.573584 0.500114 0.25094
33 1 0.671662 0.443821 0.249178
32 1 0.672205 0.500287 0.249438
1 2 0.257663 0.261378 0.39723
34 2 0.859433 0.260995 0.50323
39 1 0.329327 0.416013 0.749282
38 1 0.329027 0.47079 0.751286
42 1 0.378324 0.387747 0.751443
48 1 0.475285 0.387595 0.750956
45 1 0.4271 0.416894 0.74946
44 1 0.426299 0.472057 0.748721
52 1 0.572133 0.38716 0.748843
51 1 0.523854 0.415435 0.749137
50 1 0.524129 0.471095 0.7508
55 1 0.620674 0.415809 0.75076
57 1 0.621771 0.471714 0.751326
58 1 0.670428 0.38702 0.750781
2 1 0.328683 0.528724 0.25057
4 1 0.329681 0.583979 0.249586
8 1 0.377878 0.612279 0.250372
10 1 0.42805 0.527152 0.25165
13 1 0.427437 0.584171 0.248595
17 1 0.475502 0.61293 0.250802
19 1 0.523693 0.527692 0.250214
20 1 0.525748 0.583738 0.249333
23 1 0.573553 0.612406 0.251032
29 1 0.621942 0.528261 0.250403
26 1 0.621544 0.584408 0.248297
30 1 0.670909 0.612456 0.249425
35 2 0.618494 0.982704 0.500908
36 2 0.73916 0.977379 0.601284
37 1 0.32875 0.586305 0.751445
63 1 0.329239 0.642293 0.748541
40 1 0.377444 0.500284 0.749257
47 1 0.475172 0.499082 0.747702
53 1 0.573109 0.500615 0.74883
41 1 0.377436 0.558034 0.751058
46 1 0.475785 0.556178 0.751594
43 1 0.427098 0.58379 0.748969
65 1 0.427015 0.641606 0.751044
54 1 0.573394 0.556309 0.750656
49 1 0.524034 0.584829 0.749035
67 1 0.525307 0.640218 0.749628
56 1 0.62171 0.585296 0.752132
71 1 0.623083 0.640741 0.749857
60 1 0.669638 0.500237 0.74944
59 1 0.670833 0.556994 0.749206
64 1 0.378827 0.669357 0.750045
66 1 0.475099 0.669144 0.750295
68 1 0.57374 0.669167 0.751114
72 1 0.670152 0.670106 0.750328
61 2 0.979197 0.619962 0.798012
70 2 0.618606 0.981661 0.797989
69 2 0.618793 0.735244 0.901911
62 2 0.140954 0.980674 0.900781
ITEM: TIMESTEP
200
ITEM: NUMBER OF ATOMS
72
ITEM: BOX BOUNDS pp pp pp
-1.2500000000000000e+01 1.2500000000000000e+01
-1.2500000000000000e+01 1.2500000000000000e+01
-1.5000000000000000e+01 1.5000000000000000e+01
ITEM: ATOMS id type xs ys zs
9 1 0.37776 0.330138 0.248895
16 1 0.475851 0.331062 0.248652
22 1 0.571764 0.333148 0.249816
31 1 0.66844 0.329331 0.250114
5 1 0.329908 0.358048 0.249727
3 1 0.330818 0.4137 0.249593
6 1 0.378662 0.443449 0.252697
12 1 0.426749 0.357903 0.252427
11 1 0.427205 0.414855 0.246128
14 1 0.476302 0.443057 0.251269
21 1 0.523473 0.35973 0.251456
18 1 0.524651 0.415402 0.250999
25 1 0.57398 0.443015 0.246162
27 1 0.621323 0.359389 0.248134
28 1 0.623103 0.415397 0.252811
7 1 0.378124 0.500357 0.247857
15 1 0.476382 0.499145 0.246883
24 1 0.573361 0.499737 0.25181
33 1 0.672107 0.443893 0.248548
32 1 0.672294 0.500617 0.248755
1 2 0.255405 0.262717 0.394544
34 2 0.858879 0.26195 0.506358
39 1 0.329453 0.415574 0.749051
38 1 0.329055 0.471269 0.752198
42 1 0.378438 0.38834 0.752413
48 1 0.474966 0.387716 0.751955
45 1 0.426815 0.416352 0.748626
44 1 0.426128 0.472365 0.748048
52 1 0.571714 0.386939 0.748227
51 1 0.523554 0.414922 0.747587
50 1 0.523999 0.471152 0.752375
55 1 0.620651 0.415247 0.751844
57 1 0.620946 0.471924 0.752723
58 1 0.669912 0.387577 0.750941
2 1 0.328921 0.528362 0.251054
4 1 0.329582 0.584016 0.249469
8 1 0.37825 0.611969 0.250717
10 1 0.428263 0.527328 0.253591
13 1 0.427398 0.583942 0.247082
17 1 0.476329 0.612799 0.251617
19 1 0.524603 0.527557 0.251312
20 1 0.524959 0.584187 0.248093
23 1 0.573763 0.612572 0.252078
29 1 0.622619 0.528296 0.251462
26 1 0.621815 0.584415 0.246308
30 1 0.670985 0.611815 0.249351
35 2 0.616306 0.985356 0.501183
36 2 0.739074 0.974815 0.603144
37 1 0.328558 0.587016 0.751903
63 1 0.329354 0.642885 0.747807
40 1 0.376992 0.500942 0.748092
47 1 0.475328 0.499376 0.745871
53 1 0.572769 0.500089 0.746946
41 1 0.377273 0.557606 0.752921
46 1 0.475634 0.55545 0.753354
43 1 0.427213 0.584619 0.747157
65 1 0.427063 0.640799 0.752652
54 1 0.573008 0.55677 0.75205
49 1 0.52445 0.584156 0.747735
67 1 0.524844 0.640924 0.748839
56 1 0.622187 0.584949 0.753936
71 1 0.622649 0.641023 0.74877
60 1 0.669425 0.500525 0.74887
59 1 0.670481 0.557049 0.748584
64 1 0.378808 0.66966 0.749711
66 1 0.475887 0.669068 0.750535
68 1 0.574273 0.668914 0.75222
72 1 0.670486 0.670171 0.750834
61 2 0.978417 0.619927 0.796089
70 2 0.617262 0.983256 0.796033
69 2 0.617624 0.730643 0.90374
62 2 0.141877 0.981326 0.901535
ITEM: TIMESTEP
300
ITEM: NUMBER OF ATOMS
72
ITEM: BOX BOUNDS pp pp pp
-1.2500000000000000e+01 1.2500000000000000e+01
-1.2500000000000000e+01 1.2500000000000000e+01
-1.5000000000000000e+01 1.5000000000000000e+01
ITEM: ATOMS id type xs ys zs
9 1 0.378608 0.329702 0.248455
16 1 0.475178 0.330912 0.247796
22 1 0.572166 0.332839 0.249515
31 1 0.667939 0.329198 0.25061
5 1 0.329576 0.357717 0.249383
3 1 0.330884 0.414588 0.249447
6 1 0.379668 0.443072 0.254008
12 1 0.427058 0.358178 0.25375
11 1 0.426851 0.415038 0.244685
14 1 0.475706 0.442491 0.252143
21 1 0.523468 0.359872 0.252721
18 1 0.525293 0.416339 0.251825
25 1 0.57416 0.443217 0.244431
27 1 0.621416 0.359333 0.246155
28 1 0.622834 0.416211 0.254361
7 1 0.378374 0.49967 0.246564
15 1 0.476059 0.499356 0.244994
24 1 0.573907 0.499013 0.252571
33 1 0.672097 0.4441 0.248121
32 1 0.671687 0.500524 0.247838
1 2 0.253271 0.263987 0.391997
34 2 0.858352 0.262844 0.509321
39 1 0.329636 0.415044 0.749308
38 1 0.32921 0.47209 0.752815
42 1 0.37843 0.388772 0.75315
48 1 0.474691 0.387952 0.752935
45 1 0.426329 0.415403 0.747069
44 1 0.426117 0.472738 0.748893
52 1 0.57202 0.386927 0.747852
51 1 0.523354 0.414844 0.745719
50 1 0.523728 0.471412 0.75362
55 1 0.620857 0.414754 0.753463
57 1 0.620261 0.472016 0.753991
58 1 0.669164 0.388053 0.750696
2 1 0.329725 0.527829 0.251369
4 1 0.329435 0.584382 0.249694
8 1 0.379018 0.611623 0.250929
10 1 0.427556 0.527813 0.254791
13 1 0.427513 0.583692 0.245873
17 1 0.476734 0.612119 0.252288
19 1 0.525482 0.527709 0.252692
20 1 0.524174 0.584684 0.24673
23 1 0.573724 0.612438 0.25299
29 1 0.623283 0.528225 0.252885
26 1 0.622271 0.584196 0.244198
30 1 0.670751 0.611424 0.249555
35 2 0.613615 0.987921 0.50093
36 2 0.739613 0.972342 0.605428
37 1 0.32886 0.587318 0.751875
63 1 0.329642 0.64335 0.747415
40 1 0.376601 0.501619 0.746311
47 1 0.475738 0.500389 0.744468
53 1 0.572024 0.499825 0.745333
41 1 0.377346 0.55703 0.754933
46 1 0.475297 0.555379 0.754252
43 1 0.426986 0.584916 0.74565
65 1 0.427191 0.640126 0.754508
54 1 0.573071 0.556604 0.753719
49 1 0.524555 0.583637 0.746589
67 1 0.524546 0.641524 0.747595
56 1 0.622649 0.58471 0.75551
71 1 0.621996 0.641088 0.747161
60 1 0.669347 0.500817 0.74832
59 1 0.670023 0.556689 0.748001
64 1 0.378871 0.669923 0.749175
66 1 0.476615 0.668787 0.750984
68 1 0.574144 0.668578 0.753334
72 1 0.670764 0.670185 0.751532
61 2 0.977677 0.619896 0.794269
70 2 0.615996 0.984752 0.794174
69 2 0.616516 0.726291 0.905449
62 2 0.142751 0.98194 0.902249
ITEM: TIMESTEP
400
ITEM: NUMBER OF ATOMS
72
ITEM: BOX BOUNDS pp pp pp
-1.2500000000000000e+01 1.2500000000000000e+01
-1.2500000000000000e+01 1.2500000000000000e+01
-1.5000000000000000e+01 1.5000000000000000e+01
ITEM: ATOMS id type xs ys zs
9 1 0.379503 0.329668 0.248155
16 1 0.474915 0.331243 0.247027
22 1 0.572728 0.332178 0.248864
31 1 0.667648 0.32906 0.251396
5 1 0.329646 0.357866 0.24869
3 1 0.331006 0.415383 0.249541
6 1 0.380096 0.443007 0.254846
12 1 0.427105 0.359168 0.254716
11 1 0.426822 0.414213 0.244199
14 1 0.475104 0.443334 0.252498
21 1 0.523851 0.359864 0.254367
18 1 0.525441 0.416723 0.252828
25 1 0.574629 0.443739 0.243433
27 1 0.621664 0.360306 0.243732
28 1 0.622234 0.416114 0.255224
7 1 0.379098 0.498592 0.245702
15 1 0.475651 0.499735 0.244029
24 1 0.575328 0.498851 0.253529
33 1 0.671412 0.444324 0.247892
1 2 0.251193 0.265232 0.389505
34 2 0.857833 0.263709 0.512214
39 1 0.329621 0.41557 0.750219
38 1 0.329432 0.472333 0.753052
42 1 0.378206 0.388564 0.75382
48 1 0.47461 0.388315 0.75377
45 1 0.426143 0.415343 0.74494
44 1 0.426161 0.472807 0.750349
52 1 0.572677 0.387197 0.747525
51 1 0.52322 0.415425 0.743744
50 1 0.523093 0.471454 0.753828
55 1 0.620415 0.415043 0.755953
57 1 0.619898 0.471925 0.755048
58 1 0.668755 0.388246 0.750065
2 1 0.330872 0.527612 0.251465
4 1 0.329744 0.584508 0.25037
8 1 0.379764 0.611357 0.25097
10 1 0.42688 0.527736 0.254558
13 1 0.427937 0.583372 0.245062
17 1 0.475958 0.611256 0.252798
19 1 0.525174 0.527887 0.253721
20 1 0.52486 0.584383 0.245538
23 1 0.573666 0.611654 0.253527
29 1 0.623431 0.528209 0.254424
26 1 0.622015 0.583573 0.24215
30 1 0.670456 0.611258 0.249964
32 1 0.671035 0.50011 0.246532
35 2 0.610493 0.990489 0.500274
36 2 0.740634 0.969873 0.608079
37 1 0.329796 0.587302 0.751688
63 1 0.33005 0.643613 0.747096
40 1 0.376669 0.502052 0.744348
47 1 0.475813 0.501238 0.743926
53 1 0.571237 0.500196 0.744656
41 1 0.37772 0.557298 0.756578
46 1 0.474979 0.556578 0.753745
43 1 0.426472 0.58388 0.745168
65 1 0.427313 0.640248 0.756452
54 1 0.573479 0.555508 0.755408
49 1 0.52422 0.583843 0.745785
67 1 0.525074 0.640829 0.745755
56 1 0.622509 0.585041 0.756915
71 1 0.621908 0.640519 0.745289
60 1 0.668747 0.500475 0.747816
59 1 0.669668 0.556314 0.747297
64 1 0.379701 0.669979 0.748617
66 1 0.476356 0.66839 0.751907
68 1 0.573275 0.668327 0.754469
72 1 0.670422 0.669868 0.752464
61 2 0.976952 0.619869 0.792493
70 2 0.614765 0.986199 0.792353
69 2 0.615435 0.722046 0.907096
62 2 0.143603 0.982538 0.902945
ITEM: TIMESTEP
500
ITEM: NUMBER OF ATOMS
72
ITEM: BOX BOUNDS pp pp pp
-1.2500000000000000e+01 1.2500000000000000e+01
-1.2500000000000000e+01 1.2500000000000000e+01
-1.5000000000000000e+01 1.5000000000000000e+01
ITEM: ATOMS id type xs ys zs
9 1 0.37979 0.330567 0.248091
16 1 0.475453 0.332633 0.246789
22 1 0.573327 0.332148 0.247778
31 1 0.667324 0.329367 0.25227
5 1 0.330604 0.358698 0.247655
3 1 0.331204 0.415455 0.249934
6 1 0.379991 0.442716 0.254856
12 1 0.427198 0.359472 0.25506
11 1 0.427128 0.413983 0.245027
14 1 0.475084 0.444683 0.252067
21 1 0.524516 0.359333 0.255917
18 1 0.525002 0.416849 0.253803
25 1 0.574961 0.443989 0.243893
27 1 0.621964 0.361205 0.241515
28 1 0.621688 0.415418 0.254786
7 1 0.379683 0.497989 0.245468
15 1 0.475306 0.500361 0.244529
24 1 0.575648 0.499721 0.254777
33 1 0.669979 0.44401 0.247902
1 2 0.249153 0.266461 0.387049
34 2 0.857319 0.264552 0.515061
39 1 0.329438 0.416866 0.751854
38 1 0.329948 0.4723 0.752639
42 1 0.378014 0.388182 0.754133
48 1 0.474878 0.389276 0.753879
45 1 0.426342 0.416028 0.743186
44 1 0.426066 0.472743 0.751228
52 1 0.572788 0.388187 0.747257
51 1 0.523237 0.415987 0.742273
50 1 0.522435 0.471655 0.752508
55 1 0.619832 0.415649 0.7589
57 1 0.619268 0.472184 0.755693
58 1 0.668518 0.388397 0.74921
2 1 0.332163 0.527759 0.25127
4 1 0.330859 0.58411 0.251474
8 1 0.380217 0.611267 0.250814
10 1 0.427257 0.526887 0.252566
13 1 0.427817 0.582693 0.244761
17 1 0.475418 0.610333 0.252918
19 1 0.524604 0.527503 0.253839
20 1 0.525698 0.583365 0.245087
23 1 0.574111 0.610246 0.253333
29 1 0.623638 0.52851 0.255383
26 1 0.621112 0.582723 0.240993
30 1 0.669769 0.611097 0.250393
32 1 0.670485 0.499875 0.245048
35 2 0.607072 0.993072 0.499342
36 2 0.741987 0.967395 0.610983
37 1 0.331055 0.587357 0.751516
63 1 0.330865 0.643512 0.746776
40 1 0.377296 0.502337 0.743364
47 1 0.474988 0.501487 0.744774
53 1 0.571116 0.500231 0.745537
41 1 0.378187 0.55736 0.757083
46 1 0.474951 0.557851 0.751778
43 1 0.42599 0.583711 0.746249
65 1 0.427118 0.639886 0.757825
54 1 0.573043 0.555137 0.756625
49 1 0.524719 0.583888 0.74552
67 1 0.525147 0.639819 0.743865
56 1 0.622184 0.585186 0.75764
71 1 0.621676 0.639975 0.743993
60 1 0.667678 0.499462 0.747456
59 1 0.669136 0.556214 0.74661
64 1 0.381033 0.669883 0.748296
66 1 0.475991 0.667678 0.753121
68 1 0.572828 0.667561 0.755075
72 1 0.669246 0.669051 0.753469
61 2 0.976236 0.619843 0.790746
70 2 0.61356 0.987611 0.790554
69 2 0.614369 0.717872 0.908696
62 2 0.14444 0.983125 0.903628
ITEM: TIMESTEP
600
ITEM: NUMBER OF ATOMS
72
ITEM: BOX BOUNDS pp pp pp
-1.2500000000000000e+01 1.2500000000000000e+01
-1.2500000000000000e+01 1.2500000000000000e+01
-1.5000000000000000e+01 1.5000000000000000e+01
ITEM: ATOMS id type xs ys zs
9 1 0.379612 0.33181 0.24815
16 1 0.476453 0.334179 0.247184
22 1 0.573838 0.333049 0.246501
31 1 0.666872 0.330303 0.252848
5 1 0.331735 0.359702 0.246621
3 1 0.331274 0.415085 0.250404
6 1 0.37981 0.442324 0.254203
12 1 0.427711 0.359031 0.254887
11 1 0.427538 0.415102 0.246699
14 1 0.475594 0.44494 0.251381
21 1 0.525219 0.359127 0.256736
18 1 0.524823 0.416876 0.254429
25 1 0.574239 0.444081 0.245817
27 1 0.622205 0.360723 0.240256
28 1 0.62134 0.414912 0.253424
7 1 0.379732 0.497987 0.245612
15 1 0.475801 0.500436 0.245616
24 1 0.574436 0.500357 0.255854
33 1 0.668704 0.443433 0.247939
1 2 0.24721 0.267639 0.384698
34 2 0.856825 0.265349 0.517782
39 1 0.329487 0.417431 0.753766
38 1 0.330738 0.473035 0.751669
42 1 0.378182 0.388623 0.753769
48 1 0.475258 0.390706 0.752956
45 1 0.426427 0.41637 0.74283
44 1 0.425635 0.4728 0.751022
52 1 0.572273 0.389701 0.747302
51 1 0.523274 0.416251 0.741716
50 1 0.522252 0.47205 0.750426
55 1 0.619829 0.415707 0.760921
57 1 0.618491 0.472405 0.756207
58 1 0.667882 0.38894 0.748615
2 1 0.33305 0.527836 0.250955
4 1 0.332259 0.583574 0.252628
8 1 0.380395 0.611335 0.250617
10 1 0.427933 0.526298 0.250033
13 1 0.427286 0.581942 0.244797
17 1 0.476208 0.609415 0.252499
19 1 0.524753 0.527045 0.253332
20 1 0.525175 0.58239 0.245556
23 1 0.574556 0.609008 0.252548
29 1 0.623922 0.528876 0.255292
26 1 0.620962 0.582081 0.241146
30 1 0.668437 0.610731 0.250574
32 1 0.669997 0.499843 0.243952
35 2 0.603572 0.995586 0.498261
36 2 0.743513 0.964989 0.613956
37 1 0.331889 0.587516 0.751424
63 1 0.332203 0.643311 0.746491
40 1 0.377998 0.502326 0.743939
47 1 0.473831 0.501411 0.746295
53 1 0.571235 0.500042 0.747428
41 1 0.378448 0.556615 0.756381
46 1 0.475316 0.557746 0.749624
43 1 0.426026 0.585155 0.74809
65 1 0.426939 0.638998 0.758366
54 1 0.57227 0.555985 0.757039
49 1 0.525654 0.583444 0.745447
67 1 0.524353 0.639882 0.742994
56 1 0.621884 0.584755 0.757328
71 1 0.620758 0.639657 0.743969
60 1 0.666802 0.498931 0.747267
59 1 0.668354 0.555896 0.746181
64 1 0.381852 0.669716 0.748343
66 1 0.476337 0.666565 0.754016
68 1 0.573078 0.66614 0.754661
72 1 0.667791 0.668077 0.75427
61 2 0.975549 0.619821 0.789079
70 2 0.612413 0.988948 0.78883
69 2 0.613351 0.713887 0.910202
62 2 0.14524 0.983684 0.90428
ITEM: TIMESTEP
700
ITEM: NUMBER OF ATOMS
72
ITEM: BOX BOUNDS pp pp pp
-1.2500000000000000e+01 1.2500000000000000e+01
-1.2500000000000000e+01 1.2500000000000000e+01
-1.5000000000000000e+01 1.5000000000000000e+01
ITEM: ATOMS id type xs ys zs
9 1 0.379741 0.332617 0.248121
16 1 0.477653 0.33482 0.247929
22 1 0.573916 0.334172 0.24514
31 1 0.666695 0.331492 0.253201
5 1 0.332203 0.360414 0.245644
3 1 0.331173 0.414981 0.250769
6 1 0.379573 0.442658 0.253416
12 1 0.428463 0.359433 0.254554
11 1 0.428073 0.415959 0.248584
14 1 0.47648 0.444236 0.251193
21 1 0.526099 0.36008 0.256798
18 1 0.525021 0.416445 0.254905
25 1 0.572692 0.444341 0.248644
27 1 0.622277 0.359698 0.23971
28 1 0.620778 0.414522 0.251711
7 1 0.379671 0.49797 0.245627
15 1 0.477221 0.49944 0.246323
24 1 0.573558 0.500069 0.256601
33 1 0.668245 0.443306 0.247683
1 2 0.245318 0.268794 0.382396
34 2 0.856339 0.266119 0.52044
39 1 0.329944 0.417462 0.755787
38 1 0.331263 0.474126 0.750438
42 1 0.378588 0.389753 0.75293
48 1 0.47542 0.391859 0.751235
45 1 0.426204 0.416572 0.743602
44 1 0.425104 0.472705 0.750306
52 1 0.571867 0.391135 0.74793
51 1 0.523241 0.417028 0.741612
50 1 0.522257 0.472431 0.748548
55 1 0.619836 0.415457 0.761585
57 1 0.618333 0.471927 0.757174
58 1 0.666883 0.389874 0.748369
2 1 0.333183 0.527628 0.250728
4 1 0.33336 0.583211 0.25375
8 1 0.380631 0.611513 0.250547
10 1 0.428041 0.526282 0.247887
13 1 0.427519 0.581846 0.244793
17 1 0.477023 0.608624 0.251671
19 1 0.524991 0.527072 0.252861
20 1 0.524534 0.581605 0.246495
23 1 0.574098 0.608311 0.251388
29 1 0.623408 0.528466 0.254429
26 1 0.621622 0.581636 0.242072
30 1 0.666982 0.610441 0.250612
32 1 0.66953 0.499515 0.243347
35 2 0.600003 0.998076 0.497084
36 2 0.745156 0.96261 0.61699
37 1 0.332127 0.587404 0.751322
63 1 0.333733 0.643187 0.746225
40 1 0.378472 0.501918 0.745328
47 1 0.473339 0.501068 0.747317
53 1 0.5709 0.500657 0.749553
41 1 0.378687 0.556346 0.755074
46 1 0.475702 0.556912 0.748356
43 1 0.426782 0.585688 0.749685
65 1 0.427357 0.639236 0.75867
54 1 0.572336 0.556623 0.756877
49 1 0.525469 0.5835 0.74492
67 1 0.52395 0.64006 0.743244
56 1 0.621248 0.584227 0.756202
71 1 0.619867 0.638725 0.744859
60 1 0.666196 0.499203 0.747215
59 1 0.667525 0.555062 0.745908
64 1 0.382224 0.669546 0.748738
66 1 0.476674 0.665453 0.754604
68 1 0.572832 0.66488 0.753459
72 1 0.66635 0.66719 0.754956
61 2 0.974876 0.619801 0.787451
70 2 0.611295 0.990245 0.787142
69 2 0.612356 0.709996 0.911654
62 2 0.14602 0.984228 0.904916
ITEM: TIMESTEP
800
ITEM: NUMBER OF ATOMS
72
ITEM: BOX BOUNDS pp pp pp
-1.2500000000000000e+01 1.2500000000000000e+01
-1.2500000000000000e+01 1.2500000000000000e+01
-1.5000000000000000e+01 1.5000000000000000e+01
ITEM: ATOMS id type xs ys zs
9 1 0.380635 0.332934 0.24787
16 1 0.478839 0.334506 0.248925
22 1 0.573326 0.33476 0.243784
31 1 0.667274 0.332489 0.253552
5 1 0.331885 0.360547 0.244718
3 1 0.330935 0.415586 0.25088
6 1 0.379449 0.443576 0.253014
12 1 0.429204 0.360789 0.25443
11 1 0.428596 0.415876 0.250032
14 1 0.477539 0.443134 0.252089
21 1 0.527026 0.361401 0.256136
18 1 0.52511 0.415937 0.25565
25 1 0.571742 0.444236 0.251475
27 1 0.622038 0.359479 0.239321
28 1 0.619979 0.414366 0.250161
7 1 0.379641 0.498047 0.245018
15 1 0.478166 0.498117 0.246106
24 1 0.573636 0.499469 0.257152
33 1 0.668457 0.443471 0.246921
1 2 0.24343 0.269956 0.380087
34 2 0.855848 0.266883 0.523102
39 1 0.330653 0.418212 0.757697
38 1 0.330838 0.474249 0.749402
42 1 0.378788 0.390619 0.752106
48 1 0.475254 0.392035 0.74898
45 1 0.425979 0.417356 0.744653
44 1 0.425211 0.472383 0.749938
52 1 0.571635 0.391905 0.749138
51 1 0.52333 0.418552 0.741456
50 1 0.522169 0.473141 0.747801
55 1 0.619277 0.415506 0.761222
57 1 0.618671 0.471461 0.758763
58 1 0.666062 0.390824 0.748254
2 1 0.332586 0.527226 0.25071
4 1 0.333826 0.583035 0.25487
8 1 0.381324 0.611738 0.250704
10 1 0.428325 0.526211 0.246621
13 1 0.428585 0.582542 0.244357
17 1 0.476928 0.608423 0.250658
19 1 0.525118 0.526935 0.252983
20 1 0.524853 0.581056 0.247294
23 1 0.572962 0.608225 0.249953
29 1 0.622153 0.526846 0.253176
26 1 0.621486 0.581153 0.243218
30 1 0.666424 0.610783 0.250792
32 1 0.669022 0.49887 0.243189
35 2 0.596336 1.0006 0.49583
36 2 0.746898 0.96021 0.620108
37 1 0.331941 0.587042 0.751017
63 1 0.33476 0.642877 0.745975
40 1 0.378587 0.501649 0.746603
47 1 0.473779 0.500371 0.746884
53 1 0.570631 0.501473 0.7513
41 1 0.379175 0.557158 0.753807
46 1 0.475769 0.556291 0.748661
43 1 0.427968 0.584407 0.750431
65 1 0.428272 0.640346 0.75912
54 1 0.572397 0.556683 0.756274
49 1 0.524387 0.583942 0.743861
67 1 0.524076 0.63923 0.744137
56 1 0.620566 0.583484 0.754738
71 1 0.619462 0.63719 0.745976
60 1 0.665736 0.499322 0.747382
59 1 0.666794 0.55438 0.745622
64 1 0.382781 0.669744 0.749449
66 1 0.476817 0.665293 0.755055
68 1 0.571795 0.664671 0.75191
72 1 0.665082 0.666465 0.75572
61 2 0.9742 0.619783 0.785822
70 2 0.610178 0.991533 0.785449
69 2 0.611359 0.706102 0.913086
62 2 0.146801 0.984771 0.905551
ITEM: TIMESTEP
900
ITEM: NUMBER OF ATOMS
72
ITEM: BOX BOUNDS pp pp pp
-1.2500000000000000e+01 1.2500000000000000e+01
-1.2500000000000000e+01 1.2500000000000000e+01
-1.5000000000000000e+01 1.5000000000000000e+01
ITEM: ATOMS id type xs ys zs
9 1 0.381848 0.33328 0.247349
16 1 0.479484 0.334001 0.25013
22 1 0.572604 0.334507 0.242537
31 1 0.668355 0.333263 0.253848
5 1 0.331493 0.360226 0.244033
3 1 0.330649 0.416549 0.250556
6 1 0.379783 0.444104 0.253282
12 1 0.429973 0.361259 0.25477
11 1 0.42885 0.415964 0.250462
14 1 0.477858 0.442369 0.254118
21 1 0.527264 0.361515 0.254914
18 1 0.525265 0.415948 0.256975
25 1 0.572264 0.443489 0.253172
27 1 0.62165 0.360154 0.238827
28 1 0.619866 0.414806 0.24947
7 1 0.379543 0.498693 0.243679
15 1 0.477822 0.497344 0.244992
24 1 0.573656 0.498745 0.257633
33 1 0.668669 0.44311 0.245614
32 1 0.668561 0.498308 0.243375
1 2 0.241548 0.271123 0.377771
34 2 0.855355 0.267639 0.525765
35 2 0.592615 0.00313235 0.494534
39 1 0.3313 0.419619 0.759151
38 1 0.329593 0.473488 0.748997
42 1 0.378485 0.390746 0.751728
48 1 0.475034 0.391363 0.746386
45 1 0.426088 0.418246 0.745215
44 1 0.426197 0.472564 0.750478
52 1 0.570861 0.391779 0.750479
51 1 0.523562 0.419746 0.741204
50 1 0.522445 0.474203 0.748724
55 1 0.618564 0.416141 0.760492
57 1 0.618628 0.472061 0.760647
58 1 0.665814 0.391393 0.748075
60 1 0.665565 0.498616 0.747867
2 1 0.331715 0.526972 0.250916
4 1 0.333785 0.583027 0.255882
8 1 0.382331 0.611822 0.251131
10 1 0.429339 0.526027 0.246458
13 1 0.429313 0.582968 0.24328
17 1 0.476897 0.609203 0.249669
19 1 0.525362 0.525898 0.253913
20 1 0.525169 0.580891 0.247481
23 1 0.572238 0.608855 0.248547
29 1 0.621256 0.525122 0.251956
26 1 0.61996 0.580632 0.244233
30 1 0.666886 0.611661 0.251171
36 2 0.748697 0.957799 0.623273
37 1 0.331692 0.586808 0.750358
63 1 0.334955 0.642386 0.745785
40 1 0.37827 0.501967 0.747139
47 1 0.474425 0.500115 0.744856
53 1 0.571133 0.501243 0.752184
41 1 0.379643 0.557842 0.753124
46 1 0.475839 0.555634 0.750494
43 1 0.428796 0.583804 0.750196
65 1 0.429123 0.64016 0.759638
54 1 0.571151 0.556746 0.755175
49 1 0.523737 0.583336 0.742902
67 1 0.523605 0.638124 0.74513
56 1 0.620166 0.582211 0.753567
71 1 0.619038 0.636362 0.746716
62 2 0.147582 0.985313 0.906186
59 1 0.666448 0.554267 0.745205
64 1 0.383548 0.670447 0.750383
66 1 0.47747 0.666557 0.755344
68 1 0.57108 0.665402 0.750367
72 1 0.664306 0.665944 0.756645
61 2 0.97352 0.619767 0.784194
70 2 0.609062 0.992814 0.783754
69 2 0.610361 0.702207 0.914498
ITEM: TIMESTEP
1000
ITEM: NUMBER OF ATOMS
72
ITEM: BOX BOUNDS pp pp pp
-1.2500000000000000e+01 1.2500000000000000e+01
-1.2500000000000000e+01 1.2500000000000000e+01
-1.5000000000000000e+01 1.5000000000000000e+01
ITEM: ATOMS id type xs ys zs
9 1 0.382445 0.333811 0.246608
16 1 0.479147 0.333558 0.251207
22 1 0.572612 0.333637 0.241422
31 1 0.668985 0.33413 0.253776
5 1 0.331869 0.360158 0.243793
3 1 0.330623 0.416884 0.24975
6 1 0.380206 0.444271 0.253916
12 1 0.430567 0.360334 0.255601
11 1 0.42888 0.416328 0.249943
14 1 0.476963 0.442925 0.256569
21 1 0.52663 0.360429 0.253722
18 1 0.525807 0.41591 0.258772
25 1 0.573448 0.44286 0.253147
27 1 0.621731 0.360772 0.238428
28 1 0.621009 0.415188 0.249941
7 1 0.379581 0.499474 0.242259
15 1 0.477396 0.496985 0.243895
24 1 0.573384 0.497496 0.258069
33 1 0.668715 0.442254 0.243946
32 1 0.668512 0.497885 0.243631
1 2 0.239709 0.272272 0.375494
34 2 0.854867 0.268374 0.528379
35 2 0.588938 0.00563112 0.493244
39 1 0.331559 0.420213 0.760044
38 1 0.328589 0.473488 0.749292
42 1 0.378012 0.390604 0.751943
48 1 0.475136 0.390705 0.743766
45 1 0.426412 0.418242 0.744973
44 1 0.427066 0.473689 0.751643
52 1 0.56956 0.391076 0.751456
51 1 0.523564 0.419664 0.741157
50 1 0.523109 0.474465 0.750762
55 1 0.618226 0.417126 0.760031
57 1 0.618233 0.473132 0.762275
58 1 0.665987 0.391497 0.747807
60 1 0.665813 0.49784 0.748637
2 1 0.331236 0.527273 0.251199
4 1 0.333772 0.583257 0.25665
8 1 0.382892 0.61148 0.25176
10 1 0.429869 0.526288 0.246976
13 1 0.429392 0.5825 0.241843
17 1 0.477589 0.61054 0.248766
19 1 0.525012 0.524695 0.25519
20 1 0.524694 0.580853 0.246972
23 1 0.572106 0.609962 0.247605
29 1 0.620979 0.524864 0.251374
26 1 0.619048 0.580651 0.244819
30 1 0.667054 0.612083 0.25154
36 2 0.750494 0.955429 0.626397
37 1 0.331765 0.586749 0.749385
63 1 0.334828 0.642443 0.745722
40 1 0.377794 0.502261 0.746796
47 1 0.474797 0.501063 0.742363
53 1 0.571746 0.500731 0.752161
41 1 0.379558 0.557718 0.753176
46 1 0.476111 0.554879 0.752765
43 1 0.428882 0.584827 0.749325
65 1 0.429749 0.639059 0.76
54 1 0.56987 0.556238 0.753778
49 1 0.523322 0.581723 0.742656
67 1 0.522794 0.638008 0.745675
56 1 0.619464 0.581349 0.7531
71 1 0.618379 0.636831 0.746705
62 2 0.148347 0.985843 0.906808
59 1 0.666828 0.553952 0.744653
64 1 0.383985 0.67077 0.751419
66 1 0.478201 0.668202 0.755572
68 1 0.571114 0.666118 0.749155
72 1 0.664181 0.66564 0.757676
61 2 0.972851 0.619753 0.782597
70 2 0.607964 0.994064 0.782093
69 2 0.609381 0.698386 0.915864
ITEM: TIMESTEP
1100
ITEM: NUMBER OF ATOMS
72
ITEM: BOX BOUNDS pp pp pp
-1.2500000000000000e+01 1.2500000000000000e+01
-1.2500000000000000e+01 1.2500000000000000e+01
-1.5000000000000000e+01 1.5000000000000000e+01
ITEM: ATOMS id type xs ys zs
9 1 0.382334 0.334101 0.245717
16 1 0.477997 0.3325 0.251891
22 1 0.573428 0.332595 0.24032
31 1 0.668904 0.335185 0.253197
5 1 0.333009 0.360717 0.243874
3 1 0.331232 0.416459 0.248575
6 1 0.380146 0.444736 0.254282
12 1 0.430319 0.359621 0.256805
11 1 0.428831 0.415978 0.249133
14 1 0.476003 0.444298 0.258971
21 1 0.526057 0.359264 0.253039
18 1 0.526067 0.415272 0.260713
25 1 0.574308 0.442316 0.251769
27 1 0.622519 0.360821 0.238299
28 1 0.622644 0.414545 0.251288
7 1 0.379676 0.499736 0.241487
15 1 0.477375 0.496957 0.24368
24 1 0.5734 0.496489 0.258404
33 1 0.669232 0.441722 0.241962
32 1 0.668915 0.497506 0.243745
1 2 0.237862 0.273437 0.373193
34 2 0.854373 0.269108 0.531013
35 2 0.585224 0.00815528 0.491939
39 1 0.331201 0.419685 0.760531
38 1 0.328425 0.474665 0.750241
42 1 0.377995 0.390578 0.752653
48 1 0.4754 0.390345 0.741145
45 1 0.426566 0.417914 0.744089
44 1 0.427168 0.474829 0.75261
52 1 0.568775 0.390268 0.75209
51 1 0.523257 0.418712 0.741517
50 1 0.522962 0.473401 0.752956
55 1 0.618016 0.41771 0.760043
57 1 0.61824 0.473696 0.763401
58 1 0.666107 0.391421 0.747525
60 1 0.666382 0.497685 0.749736
2 1 0.331593 0.528139 0.251352
4 1 0.333962 0.58375 0.257291
8 1 0.382908 0.610598 0.252452
10 1 0.429277 0.526705 0.24751
13 1 0.429556 0.582256 0.240469
17 1 0.478006 0.611524 0.247654
19 1 0.523793 0.524307 0.256286
20 1 0.524236 0.580626 0.24596
23 1 0.571918 0.610878 0.247201
29 1 0.620857 0.525847 0.25178
26 1 0.619803 0.581672 0.244849
30 1 0.666286 0.611637 0.251853
36 2 0.752324 0.95304 0.629552
37 1 0.332123 0.58691 0.748105
63 1 0.334864 0.643322 0.745827
40 1 0.377579 0.50215 0.745893
47 1 0.475306 0.502377 0.740683
53 1 0.571659 0.500652 0.751487
41 1 0.379064 0.557529 0.75362
46 1 0.47582 0.554869 0.75454
43 1 0.428693 0.585279 0.748288
65 1 0.430249 0.639472 0.760208
54 1 0.570115 0.554735 0.752352
49 1 0.522378 0.5809 0.743243
67 1 0.52277 0.63857 0.745451
56 1 0.618551 0.581758 0.753025
71 1 0.618086 0.637702 0.745943
62 2 0.149119 0.986375 0.907433
59 1 0.667437 0.553132 0.744124
64 1 0.383979 0.669987 0.752638
66 1 0.477996 0.669074 0.755965
68 1 0.571086 0.6665 0.748328
72 1 0.664457 0.665458 0.758837
61 2 0.972174 0.619741 0.780988
70 2 0.606854 0.995317 0.78042
69 2 0.608393 0.694535 0.917221
ITEM: TIMESTEP
1200
ITEM: NUMBER OF ATOMS
72
ITEM: BOX BOUNDS pp pp pp
-1.2500000000000000e+01 1.2500000000000000e+01
-1.2500000000000000e+01 1.2500000000000000e+01