
     Program PWSCF v.7.3.1 starts on  8Sep2024 at 11:49:21 

     This program is part of the open-source Quantum ESPRESSO suite
     for quantum simulation of materials; please cite
         "P. Giannozzi et al., J. Phys.:Condens. Matter 21 395502 (2009);
         "P. Giannozzi et al., J. Phys.:Condens. Matter 29 465901 (2017);
         "P. Giannozzi et al., J. Chem. Phys. 152 154105 (2020);
          URL http://www.quantum-espresso.org", 
     in publications or presentations arising from this work. More details at
     http://www.quantum-espresso.org/quote

     Parallel version (MPI & OpenMP), running on       4 processor cores
     Number of MPI processes:                 2
     Threads/MPI process:                     2

     MPI processes distributed on     1 nodes
     729 MiB available memory on the printing compute node when the environment starts

     Reading input from hydrogen_absorption4_strain.in
Warning: card &CELL ignored
Warning: card     !CELL_FACTOR=4 ignored
Warning: card     !CELL_DOFREE='IBRAV' ignored
Warning: card / ignored
Warning: card     H  1.00784  H.PZ-RRKJUS_PSL.0.1.UPF ignored

     Current dimensions of program PWSCF are:
     Max number of different atomic species (ntypx) = 10
     Max number of k-points (npk) =  40000
     Max angular momentum in pseudopotentials (lmaxx) =  4

     IMPORTANT: XC functional enforced from input :
     Exchange-correlation= LDA
                           (   1   1   0   0   0   0   0)
     Any further DFT definition will be discarded
     Please, verify this is what you really want


     R & G space division:  proc/nbgrp/npool/nimage =       2
     Subspace diagonalization in iterative solution of the eigenvalue problem:
     a serial algorithm will be used


     Parallelization info
     --------------------
     sticks:   dense  smooth     PW     G-vecs:    dense   smooth      PW
     Min        1200     477    120                87895    22236    2786
     Max        1207     478    121                87896    22243    2793
     Sum        2407     955    241               175791    44479    5579

     Using Slab Decomposition


     Title: 
     4H2_absorption_C_strain                                                    


     bravais-lattice index     =            0
     lattice parameter (alat)  =       8.0000  a.u.
     unit-cell volume          =    1299.7661 (a.u.)^3
     number of atoms/cell      =           24
     number of atomic types    =            1
     number of electrons       =        96.00
     number of Kohn-Sham states=           58
     kinetic-energy cutoff     =      40.0000  Ry
     charge density cutoff     =     400.0000  Ry
     scf convergence threshold =      1.0E-06
     mixing beta               =       0.0500
     number of iterations used =            8  local-TF  mixing
     Exchange-correlation= LDA
                           (   1   1   0   0   0   0   0)

     celldm(1)=   8.000004  celldm(2)=   0.000000  celldm(3)=   0.000000
     celldm(4)=   0.000000  celldm(5)=   0.000000  celldm(6)=   0.000000

     crystal axes: (cart. coord. in units of alat)
               a(1) = (   1.165976   0.000010  -0.000237 )  
               a(2) = (  -0.582980   1.009732   0.000384 )  
               a(3) = (  -0.000667   0.000831   2.156238 )  

     reciprocal axes: (cart. coord. in units 2 pi/alat)
               b(1) = (  0.857646  0.495171  0.000075 )  
               b(2) = ( -0.000009  0.990356 -0.000382 )  
               b(3) = (  0.000094 -0.000122  0.463771 )  


     PseudoPot. # 1 for C  read from file:
     /home/edoardocabiati/.burai/.pseudopot/C.pz-n-rrkjus_psl.0.1.UPF
     MD5 check sum: a3cecbabebb5b3a1aff122f23eb09bb0
     Pseudo is Ultrasoft + core correction, Zval =  4.0
     Generated using "atomic" code by A. Dal Corso  v.5.0.2 svn rev. 9415
     Using radial grid of 1073 points,  4 beta functions with: 
                l(1) =   0
                l(2) =   0
                l(3) =   1
                l(4) =   1
     Q(r) pseudized with 0 coefficients 


     atomic species   valence    mass     pseudopotential
     C                 4.00    12.01100     C ( 1.00)

     No symmetry found



   Cartesian axes

     site n.     atom                  positions (alat units)
         1        C      tau(   1) = (  -0.0000469   0.0000726   0.3766126  )
         2        C      tau(   2) = (  -0.0002712   0.0003573   0.9008923  )
         3        C      tau(   3) = (  -0.0005711   0.0007260   1.8472274  )
         4        C      tau(   4) = (  -0.0000813   0.3366474   0.3681066  )
         5        C      tau(   5) = (   0.2912528   0.1686567   0.9085909  )
         6        C      tau(   6) = (  -0.0005366   0.3372736   1.8521959  )
         7        C      tau(   7) = (   0.5829355   0.0001077   0.3769625  )
         8        C      tau(   8) = (   0.5827708   0.0003408   0.9001499  )
         9        C      tau(   9) = (   0.5824022   0.0007572   1.8490877  )
        10        C      tau(  10) = (   0.5829375   0.3366639   0.3676945  )
        11        C      tau(  11) = (   0.8742790   0.1685900   0.9085090  )
        12        C      tau(  12) = (   0.5823807   0.3373412   1.8502764  )
        13        C      tau(  13) = (  -0.2915379   0.5049320   0.3776308  )
        14        C      tau(  14) = (  -0.2917085   0.5051346   0.8999671  )
        15        C      tau(  15) = (  -0.2920958   0.5056211   1.8496256  )
        16        C      tau(  16) = (  -0.2915364   0.8415172   0.3684776  )
        17        C      tau(  17) = (  -0.0002011   0.6734625   0.9087707  )
        18        C      tau(  18) = (  -0.2921002   0.8422106   1.8524157  )
        19        C      tau(  19) = (   0.2914573   0.5049207   0.3780473  )
        20        C      tau(  20) = (   0.2912305   0.5052376   0.8995251  )
        21        C      tau(  21) = (   0.2909321   0.5055638   1.8505691  )
        22        C      tau(  22) = (   0.2914462   0.8415582   0.3687032  )
        23        C      tau(  23) = (   0.5827247   0.6734882   0.9086258  )
        24        C      tau(  24) = (   0.2909454   0.8421607   1.8526534  )

     number of k points=     1  Gaussian smearing, width (Ry)=  0.0100
                       cart. coord. in units 2pi/alat
        k(    1) = (   0.0000000   0.0000000   0.0000000), wk =   2.0000000

     Dense  grid:   175791 G-vectors     FFT dimensions: (  60,  60, 120)

     Smooth grid:    44479 G-vectors     FFT dimensions: (  40,  40,  72)

     Estimated max dynamical RAM per process >     214.17 MB

     Estimated total dynamical RAM >     428.34 MB

     Check: negative core charge=   -0.000002

     Initial potential from superposition of free atoms

     starting charge      95.9992, renormalised to      96.0000
     Starting wfcs are   96 randomized atomic wfcs

     total cpu time spent up to now is        2.1 secs

     Self-consistent Calculation

     iteration #  1     ecut=    40.00 Ry     beta= 0.05
     Davidson diagonalization with overlap
     ethr =  1.00E-02,  avg # of iterations =  3.0

     total cpu time spent up to now is        6.3 secs

     total energy              =    -286.23251765 Ry
     estimated scf accuracy    <       1.82222414 Ry

     iteration #  2     ecut=    40.00 Ry     beta= 0.05
     Davidson diagonalization with overlap
     ethr =  1.90E-03,  avg # of iterations =  4.0

     total cpu time spent up to now is        9.1 secs

     total energy              =    -287.24798107 Ry
     estimated scf accuracy    <       2.20654562 Ry

     iteration #  3     ecut=    40.00 Ry     beta= 0.05
     Davidson diagonalization with overlap
     ethr =  1.90E-03,  avg # of iterations =  1.0

     total cpu time spent up to now is       11.5 secs

     total energy              =    -285.38738004 Ry
     estimated scf accuracy    <       3.69756253 Ry

     iteration #  4     ecut=    40.00 Ry     beta= 0.05
     Davidson diagonalization with overlap
     ethr =  1.90E-03,  avg # of iterations =  2.0

     total cpu time spent up to now is       14.5 secs

     total energy              =    -285.37017115 Ry
     estimated scf accuracy    <       0.51597489 Ry

     iteration #  5     ecut=    40.00 Ry     beta= 0.05
     Davidson diagonalization with overlap
     ethr =  5.37E-04,  avg # of iterations =  4.0

     total cpu time spent up to now is       18.6 secs

     total energy              =    -285.46369421 Ry
     estimated scf accuracy    <       0.18197219 Ry

     iteration #  6     ecut=    40.00 Ry     beta= 0.05
     Davidson diagonalization with overlap
     ethr =  1.90E-04,  avg # of iterations =  2.0

     total cpu time spent up to now is       21.5 secs

     total energy              =    -285.43466552 Ry
     estimated scf accuracy    <       0.18406703 Ry

     iteration #  7     ecut=    40.00 Ry     beta= 0.05
     Davidson diagonalization with overlap
     ethr =  1.90E-04,  avg # of iterations =  1.0

     total cpu time spent up to now is       23.9 secs

     total energy              =    -285.38760736 Ry
     estimated scf accuracy    <       0.10793193 Ry

     iteration #  8     ecut=    40.00 Ry     beta= 0.05
     Davidson diagonalization with overlap
     ethr =  1.12E-04,  avg # of iterations =  4.0

     total cpu time spent up to now is       27.2 secs

     total energy              =    -285.41537223 Ry
     estimated scf accuracy    <       0.01005870 Ry

     iteration #  9     ecut=    40.00 Ry     beta= 0.05
     Davidson diagonalization with overlap
     ethr =  1.05E-05,  avg # of iterations = 17.0

     total cpu time spent up to now is       31.7 secs

     total energy              =    -285.41752804 Ry
     estimated scf accuracy    <       0.01412191 Ry

     iteration # 10     ecut=    40.00 Ry     beta= 0.05
     Davidson diagonalization with overlap
     ethr =  1.05E-05,  avg # of iterations =  3.0

     total cpu time spent up to now is       35.4 secs

     total energy              =    -285.42409195 Ry
     estimated scf accuracy    <       0.00953162 Ry

     iteration # 11     ecut=    40.00 Ry     beta= 0.05
     Davidson diagonalization with overlap
     ethr =  9.93E-06,  avg # of iterations =  2.0

     total cpu time spent up to now is       39.1 secs

     total energy              =    -285.41984686 Ry
     estimated scf accuracy    <       0.01741881 Ry

     iteration # 12     ecut=    40.00 Ry     beta= 0.05
     Davidson diagonalization with overlap
     ethr =  9.93E-06,  avg # of iterations =  1.0

     total cpu time spent up to now is       42.8 secs

     total energy              =    -285.41491093 Ry
     estimated scf accuracy    <       0.00859270 Ry

     iteration # 13     ecut=    40.00 Ry     beta= 0.05
     Davidson diagonalization with overlap
     ethr =  8.95E-06,  avg # of iterations =  3.0

     total cpu time spent up to now is       46.0 secs

     total energy              =    -285.41646583 Ry
     estimated scf accuracy    <       0.00149896 Ry

     iteration # 14     ecut=    40.00 Ry     beta= 0.05
     Davidson diagonalization with overlap
     ethr =  1.56E-06,  avg # of iterations =  4.0

     total cpu time spent up to now is       51.5 secs

     total energy              =    -285.41648014 Ry
     estimated scf accuracy    <       0.00111013 Ry

     iteration # 15     ecut=    40.00 Ry     beta= 0.05
     Davidson diagonalization with overlap
     ethr =  1.16E-06,  avg # of iterations =  4.0

     total cpu time spent up to now is       55.5 secs

     total energy              =    -285.41812093 Ry
     estimated scf accuracy    <       0.00083185 Ry

     iteration # 16     ecut=    40.00 Ry     beta= 0.05
     Davidson diagonalization with overlap
     ethr =  8.67E-07,  avg # of iterations =  5.0

     total cpu time spent up to now is       60.1 secs

     total energy              =    -285.41704814 Ry
     estimated scf accuracy    <       0.00472123 Ry

     iteration # 17     ecut=    40.00 Ry     beta= 0.05
     Davidson diagonalization with overlap
     ethr =  8.67E-07,  avg # of iterations =  2.0

     total cpu time spent up to now is       64.1 secs

     total energy              =    -285.41609544 Ry
     estimated scf accuracy    <       0.00204239 Ry

     iteration # 18     ecut=    40.00 Ry     beta= 0.05
     Davidson diagonalization with overlap
     ethr =  8.67E-07,  avg # of iterations =  4.0

     total cpu time spent up to now is       68.3 secs

     total energy              =    -285.41626795 Ry
     estimated scf accuracy    <       0.00031917 Ry

     iteration # 19     ecut=    40.00 Ry     beta= 0.05
     Davidson diagonalization with overlap
     ethr =  3.32E-07,  avg # of iterations =  2.0

     total cpu time spent up to now is       71.6 secs

     total energy              =    -285.41634150 Ry
     estimated scf accuracy    <       0.00001713 Ry

     iteration # 20     ecut=    40.00 Ry     beta= 0.05
     Davidson diagonalization with overlap
     ethr =  1.78E-08,  avg # of iterations =  6.0

     total cpu time spent up to now is       76.7 secs

     total energy              =    -285.41636012 Ry
     estimated scf accuracy    <       0.00001831 Ry

     iteration # 21     ecut=    40.00 Ry     beta= 0.05
     Davidson diagonalization with overlap
     ethr =  1.78E-08,  avg # of iterations =  2.0

     total cpu time spent up to now is       80.4 secs

     total energy              =    -285.41636857 Ry
     estimated scf accuracy    <       0.00002919 Ry

     iteration # 22     ecut=    40.00 Ry     beta= 0.05
     Davidson diagonalization with overlap
     ethr =  1.78E-08,  avg # of iterations =  4.0

     total cpu time spent up to now is       83.7 secs

     total energy              =    -285.41640831 Ry
     estimated scf accuracy    <       0.00005299 Ry

     iteration # 23     ecut=    40.00 Ry     beta= 0.05
     Davidson diagonalization with overlap
     ethr =  1.78E-08,  avg # of iterations =  5.0

     total cpu time spent up to now is       87.4 secs

     total energy              =    -285.41632836 Ry
     estimated scf accuracy    <       0.00015509 Ry

     iteration # 24     ecut=    40.00 Ry     beta= 0.05
     Davidson diagonalization with overlap
     ethr =  1.78E-08,  avg # of iterations =  6.0

     total cpu time spent up to now is       91.7 secs

     total energy              =    -285.41635468 Ry
     estimated scf accuracy    <       0.00001517 Ry

     iteration # 25     ecut=    40.00 Ry     beta= 0.05
     Davidson diagonalization with overlap
     ethr =  1.58E-08,  avg # of iterations =  1.0

     total cpu time spent up to now is       94.0 secs

     total energy              =    -285.41635598 Ry
     estimated scf accuracy    <       0.00000825 Ry

     iteration # 26     ecut=    40.00 Ry     beta= 0.05
     Davidson diagonalization with overlap
     ethr =  8.60E-09,  avg # of iterations =  4.0

     total cpu time spent up to now is       97.4 secs

     total energy              =    -285.41635328 Ry
     estimated scf accuracy    <       0.00001479 Ry

     iteration # 27     ecut=    40.00 Ry     beta= 0.05
     Davidson diagonalization with overlap
     ethr =  8.60E-09,  avg # of iterations =  5.0

     total cpu time spent up to now is      102.4 secs

     total energy              =    -285.41635477 Ry
     estimated scf accuracy    <       0.00000691 Ry

     iteration # 28     ecut=    40.00 Ry     beta= 0.05
     Davidson diagonalization with overlap
     ethr =  7.19E-09,  avg # of iterations =  2.0

     total cpu time spent up to now is      105.6 secs

     total energy              =    -285.41635412 Ry
     estimated scf accuracy    <       0.00000188 Ry

     iteration # 29     ecut=    40.00 Ry     beta= 0.05
     Davidson diagonalization with overlap
     ethr =  1.96E-09,  avg # of iterations =  4.0

     total cpu time spent up to now is      108.7 secs

     End of self-consistent calculation

          k = 0.0000 0.0000 0.0000 (  5579 PWs)   bands (ev):

   -12.3545 -11.2935 -10.4605  -6.7820  -6.7757  -6.7717  -6.2070  -6.2051
    -6.2033  -5.9307  -5.9295  -5.9280  -5.1664  -5.1657  -5.1650  -4.9611
    -4.9588  -4.9565  -4.6473  -4.6463  -4.6453  -1.6181   0.2523   1.3344
     1.3346   1.3366   1.7092   1.7103   1.7121   1.9930   1.9941   1.9958
     3.4761   4.0454   4.0575   4.0686   4.9067   4.9073   5.1107   5.1112
     5.2195   5.2222   5.3995   5.4019   5.4054   6.5381   6.5430   6.5453
     8.9547   8.9564   8.9597  10.4337  10.4490  10.4574  11.0156  11.0243
    11.0255  12.0328

     the Fermi energy is     8.3106 ev

!    total energy              =    -285.41635528 Ry
     estimated scf accuracy    <       0.00000028 Ry
     smearing contrib. (-TS)   =      -0.00000000 Ry
     internal energy E=F+TS    =    -285.41635528 Ry

     The total energy is F=E-TS. E is the sum of the following terms:
     one-electron contribution =    -132.75879767 Ry
     hartree contribution      =     120.05016646 Ry
     xc contribution           =    -100.14438263 Ry
     ewald contribution        =    -172.56334144 Ry

     convergence has been achieved in  29 iterations

     Forces acting on atoms (cartesian axes, Ry/au):

     atom    1 type  1   force =    -0.00024008    0.00021908    0.00176472
     atom    2 type  1   force =     0.00082597   -0.00058204    0.01043625
     atom    3 type  1   force =    -0.00010838   -0.00009027    0.00065948
     atom    4 type  1   force =     0.00014803   -0.00063807    0.00999053
     atom    5 type  1   force =    -0.00033494   -0.00105823    0.00152889
     atom    6 type  1   force =    -0.00056116    0.00020251   -0.02098140
     atom    7 type  1   force =     0.00008980    0.00022423    0.00160414
     atom    8 type  1   force =    -0.00039094   -0.00053014    0.01083355
     atom    9 type  1   force =     0.00018295   -0.00017082   -0.00335040
     atom   10 type  1   force =     0.00009503   -0.00019379    0.01053728
     atom   11 type  1   force =    -0.00001387   -0.00031486    0.00133461
     atom   12 type  1   force =     0.00043254   -0.00022690   -0.01709092
     atom   13 type  1   force =    -0.00031246   -0.00025936    0.00116094
     atom   14 type  1   force =     0.00000245    0.00083171    0.01114018
     atom   15 type  1   force =     0.00023984   -0.00028959   -0.00389133
     atom   16 type  1   force =    -0.00042219    0.00070327    0.00945262
     atom   17 type  1   force =    -0.00069735    0.00064700    0.00120769
     atom   18 type  1   force =     0.00026403   -0.00016829   -0.02190514
     atom   19 type  1   force =    -0.00012530    0.00009763    0.00069220
     atom   20 type  1   force =     0.00019398   -0.00012928    0.01127334
     atom   21 type  1   force =    -0.00000831    0.00015006   -0.00510211
     atom   22 type  1   force =     0.00030076    0.00047222    0.00900145
     atom   23 type  1   force =     0.00067028    0.00078838    0.00135088
     atom   24 type  1   force =    -0.00023068    0.00031554   -0.02164745

     Total force =     0.051143     Total SCF correction =     0.001047


     Computing stress (Cartesian axis) and pressure

          total   stress  (Ry/bohr**3)                   (kbar)     P=       79.69
   0.00059504  -0.00000093   0.00000006           87.53       -0.14        0.01
  -0.00000093   0.00059689  -0.00000019           -0.14       87.81       -0.03
   0.00000006  -0.00000019   0.00043322            0.01       -0.03       63.73


     Writing all to output data dir ../../results/remote/4h2_abs_strain/4H2abs_C_strain.save/ :
     XML data file, charge density, pseudopotentials, collected wavefunctions

     init_run     :      2.35s CPU      2.06s WALL (       1 calls)
     electrons    :    120.89s CPU    106.60s WALL (       1 calls)
     forces       :      2.02s CPU      1.80s WALL (       1 calls)
     stress       :      5.11s CPU      3.78s WALL (       1 calls)

     Called by init_run:
     wfcinit      :      1.46s CPU      1.23s WALL (       1 calls)
     potinit      :      0.15s CPU      0.13s WALL (       1 calls)
     hinit0       :      0.26s CPU      0.23s WALL (       1 calls)

     Called by electrons:
     c_bands      :     70.66s CPU     60.36s WALL (      29 calls)
     sum_band     :     26.25s CPU     25.05s WALL (      29 calls)
     v_of_rho     :      1.72s CPU      1.15s WALL (      30 calls)
     newd         :     13.13s CPU     13.31s WALL (      30 calls)
     mix_rho      :      8.56s CPU      6.42s WALL (      29 calls)

     Called by c_bands:
     init_us_2    :      0.52s CPU      0.42s WALL (      59 calls)
     cegterg      :     69.40s CPU     59.53s WALL (      29 calls)

     Called by *egterg:
     cdiaghg      :      1.04s CPU      1.09s WALL (     136 calls)
     h_psi        :     45.49s CPU     34.73s WALL (     137 calls)
     s_psi        :      7.17s CPU      7.29s WALL (     137 calls)
     g_psi        :      0.24s CPU      0.18s WALL (     107 calls)

     Called by h_psi:
     h_psi:calbec :      6.75s CPU      6.79s WALL (     137 calls)
     vloc_psi     :     31.96s CPU     20.89s WALL (     137 calls)
     add_vuspsi   :      6.63s CPU      6.95s WALL (     137 calls)

     General routines
     calbec       :      9.52s CPU      9.62s WALL (     171 calls)
     fft          :      3.82s CPU      2.72s WALL (     186 calls)
     ffts         :      3.58s CPU      2.76s WALL (     723 calls)
     fftw         :     27.12s CPU     18.07s WALL (   11334 calls)
     interpolate  :      0.82s CPU      0.59s WALL (      30 calls)

     Parallel routines

     PWSCF        :   2m10.42s CPU   1m54.31s WALL


   This run was terminated on:  11:51:15   8Sep2024            

=------------------------------------------------------------------------------=
   JOB DONE.
=------------------------------------------------------------------------------=
