LAMMPS data file via write_data, version 27 Jun 2024, timestep = 1155, units = metal

480 atoms
1 atom types
676 bonds
1 bond types
1268 angles
1 angle types
2394 dihedrals
1 dihedral types
396 impropers
1 improper types

-30 30 xlo xhi
-30 30 ylo yhi
-15 15 zlo zhi

Masses

1 12.0107

Atoms # molecular

4 1 1 -10.4382043500001 -12.7620000208335 -7.5 0 0 0
1 2 1 -11.6662283500001 -12.053000020833501 -7.5 0 0 0
2 3 1 -11.6662283500001 -10.635000020833502 -7.5 0 0 0
5 4 1 -10.434132242439576 -9.927557004213458 -7.538280938905004 0 0 0
10 5 1 -7.982156350000101 -12.7620000208335 -7.5 0 0 0
7 6 1 -9.210180350000101 -12.053000020833501 -7.5 0 0 0
8 7 1 -9.224332841419432 -10.640967476106749 -7.308069990696142 0 0 0
11 8 1 -7.98807517982589 -9.943359498364874 -7.4420483422299135 0 0 0
16 9 1 -5.526108350000101 -12.7620000208335 -7.5 0 0 0
13 10 1 -6.7541323500001 -12.053000020833501 -7.5 0 0 0
14 11 1 -6.768529651322026 -10.650058135691259 -7.2586938614730725 0 0 0
17 12 1 -5.538709537660978 -9.943149003590085 -7.39202927471247 0 0 0
19 14 1 -4.298084350000101 -12.053000020833501 -7.5 0 0 0
20 15 1 -4.3129922133715475 -10.651657531645546 -7.258158724213214 0 0 0
6 41 1 -10.458018895886283 -8.522570913182895 -7.300728971253792 0 0 0
3 42 1 -11.6662283500001 -7.799000020833501 -7.5 0 0 0
61 43 1 -11.6662283500001 -6.3810000208335005 -7.5 0 0 0
63 44 1 -10.441199485271358 -5.67889695653798 -7.364285664201941 0 0 0
12 45 1 -7.99267892005852 -8.520466424632332 -7.461438882130208 0 0 0
9 46 1 -9.216203576223506 -7.812357833715957 -7.291889679113395 0 0 0
65 47 1 -9.22602931145655 -6.403438658198067 -7.524266305911774 0 0 0
67 48 1 -7.984498339766643 -5.703493451026722 -7.571354317276512 0 0 0
18 49 1 -5.529663019325395 -8.5341273220802 -7.192316556769658 0 0 0
15 50 1 -6.768963853941139 -7.825040282702147 -7.239884995201538 0 0 0
69 51 1 -6.756797842818498 -6.418523482495448 -7.462853171345032 0 0 0
71 52 1 -5.5494472433683875 -5.7104916082950785 -7.202649883882844 0 0 0
21 54 1 -4.304919901923625 -7.827923607333748 -7.341252430510527 0 0 0
73 55 1 -4.314372407278519 -6.418539718678641 -7.144756607942457 0 0 0
72 89 1 -5.523641896703696 -4.3073268081418785 -7.427701116416886 0 0 0
68 85 1 -7.99772840377508 -4.291418564988041 -7.397609666251495 0 0 0
22 13 1 -3.0700603500001007 -12.7620000208335 -7.5 0 0 0
23 16 1 -3.0815744020946982 -9.944954552938533 -7.388195107480315 0 0 0
28 17 1 -0.6140123500001007 -12.7620000208335 -7.5 0 0 0
25 18 1 -1.842035350000101 -12.053000020833501 -7.5 0 0 0
26 19 1 -1.8566729362703192 -10.653410275785696 -7.243574580364441 0 0 0
29 20 1 -0.6224659488800708 -9.944336940846178 -7.350965170494483 0 0 0
34 21 1 1.8420356499998984 -12.7620000208335 -7.5 0 0 0
31 22 1 0.6140126499998999 -12.053000020833501 -7.5 0 0 0
32 23 1 0.603107925911083 -10.655840917787321 -7.230266875685093 0 0 0
35 24 1 1.8325634253043466 -9.947460301651173 -7.399788742981038 0 0 0
37 26 1 3.070060649999899 -12.053000020833501 -7.5 0 0 0
38 27 1 3.0654808500449997 -10.648651398509758 -7.2935569228793 0 0 0
24 53 1 -3.07201955802729 -8.533594866082726 -7.209632072230558 0 0 0
75 56 1 -3.0854694959319855 -5.7229723402662165 -7.35411866466929 0 0 0
30 57 1 -0.6176056451148495 -8.533288938978563 -7.156708284185504 0 0 0
27 58 1 -1.8426042051562583 -7.831673661308326 -7.346990355945478 0 0 0
77 59 1 -1.854006307642543 -6.417488107114713 -7.201741594403924 0 0 0
79 60 1 -0.6311218182552111 -5.720046940940845 -7.445991266021438 0 0 0
36 61 1 1.8450247610842025 -8.535464813627495 -7.224590915671565 0 0 0
33 62 1 0.615679143853727 -7.821104711316436 -7.166696941732321 0 0 0
81 63 1 0.6039474726165855 -6.426891526066862 -7.453896242212598 0 0 0
83 64 1 1.844407988192284 -5.718140886631335 -7.46643789640945 0 0 0
39 66 1 3.0604384080627365 -7.833385746140136 -7.492280539235033 0 0 0
85 67 1 3.0656787076720486 -6.42412840150972 -7.30159018478256 0 0 0
76 93 1 -3.074720211305467 -4.301821445287531 -7.357979393792084 0 0 0
80 97 1 -0.6146466983320759 -4.297831372127546 -7.412396336226554 0 0 0
84 101 1 1.8443201366145778 -4.313395388664693 -7.241189170426267 0 0 0
40 25 1 4.298083649999899 -12.7620000208335 -7.5 0 0 0
41 28 1 4.307587046629335 -9.943478578216865 -7.364513860922543 0 0 0
46 29 1 6.754132649999898 -12.7620000208335 -7.5 0 0 0
43 30 1 5.5261086499999 -12.053000020833501 -7.5 0 0 0
44 31 1 5.520128890253943 -10.638467587719935 -7.633206991280549 0 0 0
47 32 1 6.7656011219925425 -9.935701313595898 -7.546209739059124 0 0 0
52 33 1 9.2101796499999 -12.7620000208335 -7.5 0 0 0
49 34 1 7.982156649999899 -12.053000020833501 -7.5 0 0 0
50 35 1 7.971248623198019 -10.647722579481865 -7.281881610326151 0 0 0
53 36 1 9.215166947235232 -9.939894041376103 -7.201099401091247 0 0 0
58 37 1 11.6662286499999 -12.7620000208335 -7.5 0 0 0
55 38 1 10.4382036499999 -12.053000020833501 -7.5 0 0 0
56 39 1 10.453686769241793 -10.651222276956595 -7.242439823900142 0 0 0
59 40 1 11.6662286499999 -9.9260000208335 -7.5 0 0 0
42 65 1 4.29780127244842 -8.534237223432507 -7.537087926012378 0 0 0
87 68 1 4.302638870834983 -5.723608235872265 -7.441751759386275 0 0 0
48 69 1 6.761223466637902 -8.543203128202974 -7.245088966146901 0 0 0
45 70 1 5.520566059316018 -7.839485002549877 -7.270926475103756 0 0 0
89 71 1 5.524326974790736 -6.416522177188848 -7.243900722381974 0 0 0
91 72 1 6.761228029825272 -5.717056911589507 -7.386013928354358 0 0 0
54 73 1 9.22530346884605 -8.526047183081356 -7.399463711519525 0 0 0
51 74 1 7.998320278197822 -7.830376035534425 -7.186253728170345 0 0 0
93 75 1 7.991447529205393 -6.403860165283911 -7.206815872276228 0 0 0
95 76 1 9.207016993124249 -5.696621972898388 -7.4722055235182365 0 0 0
60 77 1 11.6662286499999 -8.508000020833501 -7.5 0 0 0
57 78 1 10.451524509094607 -7.807095282899691 -7.296837032315807 0 0 0
97 79 1 10.439938153534182 -6.403015409975425 -7.543956772618082 0 0 0
99 80 1 11.6662286499999 -5.672000020833501 -7.5 0 0 0
88 105 1 4.302490947241882 -4.30899415751245 -7.2792722092383455 0 0 0
92 109 1 6.772374145297417 -4.295848747386057 -7.275261194716144 0 0 0
64 81 1 -10.453734319701011 -4.279708410403659 -7.634257616101507 0 0 0
62 82 1 -11.6662283500001 -3.5450000208335 -7.5 0 0 0
101 83 1 -11.6662283500001 -2.127000020833501 -7.5 0 0 0
104 84 1 -10.440295537692494 -1.4393266282090271 -7.6709017783225 0 0 0
66 86 1 -9.211727056827664 -3.574568963815255 -7.608984321093416 0 0 0
106 87 1 -9.227524525123451 -2.1553980973340603 -7.4583363775610945 0 0 0
109 88 1 -7.986723430172349 -1.4707944408162157 -7.5900260930109305 0 0 0
70 90 1 -6.7592889455242275 -3.5952432589168857 -7.512003923593881 0 0 0
111 91 1 -6.77629520545489 -2.180910375892202 -7.346099753729671 0 0 0
114 92 1 -5.536327015335799 -1.4829413316359217 -7.3285261473215115 0 0 0
74 94 1 -4.308378187263984 -3.606394770431748 -7.209656036601559 0 0 0
116 95 1 -4.313168769621294 -2.2021660204829305 -7.429332119391151 0 0 0
105 121 1 -10.448028749719251 -0.01444094426037147 -7.639076142590845 0 0 0
102 122 1 -11.6662283500001 0.7089999791664994 -7.5 0 0 0
103 123 1 -11.6662283500001 2.1269999791664986 -7.5 0 0 0
153 124 1 -10.443542478280749 2.81607976768954 -7.349946095973461 0 0 0
110 125 1 -7.99337781912981 -0.0474101894933535 -7.5862975195697055 0 0 0
107 126 1 -9.217490410215468 0.6551919100022142 -7.386410218332568 0 0 0
108 127 1 -9.216330268209886 2.082593551256697 -7.341490241824415 0 0 0
158 128 1 -7.997671482659005 2.7560751775521286 -7.632900444526565 0 0 0
115 129 1 -5.527939952332114 -0.07950640030558957 -7.549738437998547 0 0 0
112 130 1 -6.758019922908279 0.6316413875867325 -7.404880606589389 0 0 0
113 131 1 -6.764858782638351 2.0385031979266994 -7.62195101591681 0 0 0
163 132 1 -5.532561136490085 2.7342933159912923 -7.48211573169318 0 0 0
117 134 1 -4.295901716661349 0.6174475123864028 -7.441679414499488 0 0 0
118 135 1 -4.308575417750878 2.025109984972158 -7.637323865846649 0 0 0
154 161 1 -10.453823505821479 4.215199100692191 -7.601995893012093 0 0 0
159 165 1 -7.997710255306144 4.178416896567979 -7.630158081335998 0 0 0
164 169 1 -5.524614177962712 4.144181649453689 -7.644041173538889 0 0 0
119 96 1 -3.087610100785412 -1.4900789171787099 -7.276695189919039 0 0 0
78 98 1 -1.8436187164680096 -3.6139545096263417 -7.182567480690336 0 0 0
121 99 1 -1.8517769248708509 -2.191184542493353 -7.195786738071977 0 0 0
124 100 1 -0.6238234058198399 -1.5069170178180913 -7.432604181802955 0 0 0
82 102 1 0.6115445771166454 -3.60757277652471 -7.198384670683174 0 0 0
126 103 1 0.6073011268642639 -2.187366784366304 -7.2269863562977035 0 0 0
129 104 1 1.8435762335469972 -1.4996420900444625 -7.422009422022972 0 0 0
86 106 1 3.074339854216063 -3.607592492690918 -7.409260418103221 0 0 0
131 107 1 3.0729306038429116 -2.192748974774057 -7.266484594939082 0 0 0
120 133 1 -3.0694983903305655 -0.09920692839297879 -7.573328954177784 0 0 0
168 136 1 -3.06817847652599 2.72223952635639 -7.570731673795785 0 0 0
125 137 1 -0.6127623195647306 -0.09034138597875913 -7.333440310989021 0 0 0
122 138 1 -1.834918802066156 0.605295530418803 -7.558501549454162 0 0 0
123 139 1 -1.8580949402157927 2.009948624551924 -7.358826505237474 0 0 0
173 140 1 -0.6195115685928371 2.708519987092862 -7.4597294957042335 0 0 0
130 141 1 1.8451467732724909 -0.0839891314938212 -7.3087839757683355 0 0 0
127 142 1 0.6180628366158402 0.6084945471231629 -7.472460229149014 0 0 0
128 143 1 0.6083255296536839 2.013164846224128 -7.295855654794351 0 0 0
178 144 1 1.8530579235509133 2.7128566878459983 -7.304408063827496 0 0 0
132 146 1 3.0773548823527594 0.6072744739678312 -7.523726667236762 0 0 0
133 147 1 3.0751652344502203 2.025132997111189 -7.5205649918481985 0 0 0
169 173 1 -3.077033519079508 4.117655103217848 -7.31347116968064 0 0 0
174 177 1 -0.6031848570162375 4.112171485318238 -7.27230150602798 0 0 0
179 181 1 1.8443546756510887 4.108647795407462 -7.542095044985993 0 0 0
134 108 1 4.304996012312945 -1.4941699249190876 -7.46399511381268 0 0 0
90 110 1 5.537495074562688 -3.606064600008961 -7.442002487018237 0 0 0
136 111 1 5.533757388166909 -2.1863164909777177 -7.311803303741817 0 0 0
139 112 1 6.7660417194697 -1.4750059881858197 -7.460488061356645 0 0 0
96 113 1 9.228812252459104 -4.280659139252781 -7.273519906723307 0 0 0
94 114 1 7.998823417741728 -3.5818391798573934 -7.425103085034073 0 0 0
141 115 1 7.989815470611872 -2.164817077295815 -7.2624312645318785 0 0 0
144 116 1 9.226582426344374 -1.4436098272456754 -7.3238307777944405 0 0 0
100 117 1 11.6662286499999 -4.254000020833502 -7.5 0 0 0
98 118 1 10.454863995064079 -3.5522503338691123 -7.314910583820209 0 0 0
146 119 1 10.436302174901456 -2.149598582156346 -7.556989314076835 0 0 0
149 120 1 11.6662286499999 -1.4180000208335013 -7.5 0 0 0
135 145 1 4.309155269815304 -0.07650553586417999 -7.355435251567791 0 0 0
183 148 1 4.30995393189127 2.7132002797991817 -7.311867478617187 0 0 0
140 149 1 6.772545524123968 -0.0586313787963983 -7.315062522165858 0 0 0
137 150 1 5.544797264921212 0.6226575821497792 -7.542331404008816 0 0 0
138 151 1 5.541908657251237 2.045790646959306 -7.514079018243108 0 0 0
188 152 1 6.768336836295742 2.7498728646399937 -7.295399229776732 0 0 0
145 153 1 9.220060783654501 -0.035098133139812165 -7.559474041987503 0 0 0
142 154 1 8.005349908911576 0.6630641309064763 -7.333978747910698 0 0 0
143 155 1 7.994901849771079 2.0761556034234263 -7.494414154995609 0 0 0
193 156 1 9.21873084157247 2.794720679742455 -7.298029089024557 0 0 0
150 157 1 11.6662286499999 -2.0833500258277127e-08 -7.5 0 0 0
147 158 1 10.44449734870853 0.6969882072498909 -7.628438121117779 0 0 0
148 159 1 10.45248608853825 2.0947455127663965 -7.350122760875156 0 0 0
198 160 1 11.6662286499999 2.8359999791665 -7.5 0 0 0
184 185 1 4.305227717503868 4.1296269156222385 -7.289347122957034 0 0 0
189 189 1 6.779873535129354 4.170808712864262 -7.303214857035479 0 0 0
194 193 1 9.23246398184674 4.221469508274549 -7.345516684859376 0 0 0
199 197 1 11.6662286499999 4.2540009791664986 -7.5 0 0 0
151 162 1 -11.6662283500001 4.962999979166501 -7.5 0 0 0
152 163 1 -11.6662283500001 6.3809999791665 -7.5 0 0 0
155 164 1 -10.431470461930346 7.051827311416615 -7.424947764812083 0 0 0
156 166 1 -9.216681331098497 4.894813446590755 -7.435733539138481 0 0 0
157 167 1 -9.227171935145345 6.306736612849244 -7.626077117028668 0 0 0
160 168 1 -7.977272240912262 6.977273327238429 -7.627245595879322 0 0 0
161 170 1 -6.755217175226282 4.842795551452059 -7.442402106686741 0 0 0
162 171 1 -6.767178718670295 6.261074042724884 -7.405922704589253 0 0 0
165 172 1 -5.524608684988936 6.937924481736054 -7.507516214665747 0 0 0
167 175 1 -4.313882719904843 6.228393253456653 -7.300704940855846 0 0 0
203 201 1 -10.457943522076276 8.454156839848602 -7.657390461433136 0 0 0
201 202 1 -11.6662283500001 9.216999979166498 -7.5 0 0 0
202 203 1 -11.6662283500001 10.6349989791665 -7.5 0 0 0
204 204 1 -10.389447450884221 11.25029242929039 -7.45614196843472 0 0 0
207 205 1 -7.992691004309659 8.373688729884591 -7.4034015387516385 0 0 0
205 206 1 -9.198390114396766 9.111386225729015 -7.596226984916549 0 0 0
206 207 1 -9.20150394215776 10.491565551224003 -7.2897355294517965 0 0 0
208 208 1 -7.949230249304098 11.155339824244344 -7.317043618353132 0 0 0
211 209 1 -5.520906108995531 8.335213925656648 -7.299230777259704 0 0 0
209 210 1 -6.742034625662042 9.045996045534395 -7.467565191530357 0 0 0
210 211 1 -6.73893830735428 10.433065743644995 -7.204232019989361 0 0 0
212 212 1 -5.5111732084483 11.11969416232234 -7.3864251919941815 0 0 0
214 215 1 -4.303857401358471 10.41226698277039 -7.589640702743459 0 0 0
166 174 1 -4.2858165000601876 4.8344928880434495 -7.553557379545593 0 0 0
213 214 1 -4.282793919417359 9.024631619920456 -7.332714930913307 0 0 0
170 176 1 -3.071490241401419 6.921877272680311 -7.314546153878135 0 0 0
171 178 1 -1.8416333646533845 4.816736490089698 -7.2414795042119895 0 0 0
172 179 1 -1.8594526536800007 6.20905342070815 -7.503966018397685 0 0 0
175 180 1 -0.6191757788993151 6.906595205099979 -7.538373982797408 0 0 0
176 182 1 0.6096976071467705 4.809644496702648 -7.511159960086749 0 0 0
177 183 1 0.6033369374320395 6.2121834270461616 -7.349701159486857 0 0 0
180 184 1 1.836916618560111 6.904986042820306 -7.508445534354726 0 0 0
181 186 1 3.0850223266888164 4.8111873237807075 -7.527001893281724 0 0 0
182 187 1 3.062505438635115 6.213456859460105 -7.346763971309665 0 0 0
215 213 1 -3.073672837030426 8.31424859324087 -7.5635357426125 0 0 0
216 216 1 -3.0714644889264204 11.10041525433809 -7.441182567876101 0 0 0
219 217 1 -0.6164776604069475 8.311961256888416 -7.388725502801805 0 0 0
217 218 1 -1.8378176235896657 9.008355583944342 -7.586690986367364 0 0 0
218 219 1 -1.8577757794680667 10.38928452865604 -7.288857396044936 0 0 0
220 220 1 -0.625454319040524 11.091805612966036 -7.348806337847746 0 0 0
223 221 1 1.8280238556637303 8.309589904710348 -7.345972784984013 0 0 0
221 222 1 0.610554876195813 9.004103683461675 -7.543781290243426 0 0 0
222 223 1 0.6020130251944901 10.416415016920432 -7.5437890906004945 0 0 0
224 224 1 1.8231882307717722 11.09301645926146 -7.284807611101681 0 0 0
225 226 1 3.061558153318003 9.007620962564275 -7.453588535092634 0 0 0
226 227 1 3.0437577471107367 10.3897862408438 -7.1627872327276325 0 0 0
227 225 1 4.282447970889682 8.31652824747558 -7.271863907938332 0 0 0
228 228 1 4.263093405160419 11.102851995532811 -7.3123941154202665 0 0 0
185 188 1 4.2944340031979396 6.918522489395213 -7.477506619253461 0 0 0
186 190 1 5.537454336461302 4.82804018057008 -7.48610481809034 0 0 0
187 191 1 5.5270430440767635 6.238520733829106 -7.351802994331287 0 0 0
190 192 1 6.7378975916853925 6.96526963676984 -7.572805429676438 0 0 0
191 194 1 7.994164278030642 4.877743209440516 -7.557868163028397 0 0 0
192 195 1 7.9838368173238425 6.297484292730886 -7.638707493334936 0 0 0
195 196 1 9.206383115405796 7.0241109337763605 -7.447942639538373 0 0 0
196 198 1 10.439214864935105 4.933783627632412 -7.610410103328001 0 0 0
197 199 1 10.441596466737742 6.3564968353276 -7.631256424261295 0 0 0
200 200 1 11.6662286499999 7.089998979166499 -7.5 0 0 0
231 229 1 6.763600745902496 8.358838966696231 -7.332375692030708 0 0 0
229 230 1 5.516629537963743 9.03141767490507 -7.245100611006495 0 0 0
230 231 1 5.48746755743688 10.420857726136965 -7.499534374138271 0 0 0
232 232 1 6.708361121694949 11.144448669988165 -7.38396725197985 0 0 0
235 233 1 9.220192257356226 8.439508001023256 -7.606015953680012 0 0 0
233 234 1 7.964074608816115 9.097081515668435 -7.561257177570191 0 0 0
234 235 1 7.957405582795893 10.482558410664513 -7.2862700507981835 0 0 0
236 236 1 9.172893427108326 11.218335086673592 -7.471617035908288 0 0 0
239 237 1 11.6662286499999 8.507999979166499 -7.5 0 0 0
237 238 1 10.43242173498756 9.184535305902724 -7.414933818089925 0 0 0
238 239 1 10.435886783706353 10.587300428537132 -7.663961941898584 0 0 0
240 240 1 11.6662286499999 11.344000979166498 -7.5 0 0 0
243 241 1 -10.395594629528372 -11.260726430518456 7.604167004321454 0 0 0
241 242 1 -11.6662283500001 -10.635000020833502 7.5 0 0 0
242 243 1 -11.6662283500001 -9.2170000208335 7.5 0 0 0
244 244 1 -10.453197529296373 -8.463504284293457 7.640640089607948 0 0 0
247 245 1 -7.930968824652654 -11.175892340688815 7.549444862049366 0 0 0
245 246 1 -9.178020759994316 -10.539931359092867 7.755270175318671 0 0 0
246 247 1 -9.208869125975394 -9.143016422137178 7.526161812775361 0 0 0
248 248 1 -7.996348713686377 -8.402058433917638 7.719207853962533 0 0 0
251 249 1 -5.480264755561501 -11.123006676919355 7.535285435027224 0 0 0
249 250 1 -6.719043564501469 -10.457121988969954 7.4158792261664415 0 0 0
250 251 1 -6.748164595751888 -9.08287233129784 7.741600544886261 0 0 0
252 252 1 -5.522371561247085 -8.35007083730464 7.737429667501663 0 0 0
254 255 1 -4.293304002711409 -9.036810999502755 7.5372112494213175 0 0 0
283 281 1 -10.440621996097649 -7.066944067153285 7.398967900604314 0 0 0
281 282 1 -11.6662283500001 -6.3810000208335005 7.5 0 0 0
282 283 1 -11.6662283500001 -4.9630000208335 7.5 0 0 0
288 285 1 -7.984593152166969 -7.00187327291543 7.529207816927012 0 0 0
286 286 1 -9.2259199723305 -6.327676777072115 7.593331483873248 0 0 0
287 287 1 -9.215180745041907 -4.915010830663527 7.41567620313367 0 0 0
293 289 1 -5.520906775416522 -6.952911966965675 7.5571571197658445 0 0 0
291 290 1 -6.761493173502047 -6.283902271025489 7.714599640617763 0 0 0
292 291 1 -6.766895007441105 -4.87387771012586 7.57238044760908 0 0 0
296 294 1 -4.297787746344891 -6.241597554372687 7.692054557426914 0 0 0
297 295 1 -4.31248393657122 -4.83443623048612 7.569443561951825 0 0 0
253 254 1 -4.262982905631354 -10.434876884192281 7.723269939888127 0 0 0
255 253 1 -3.0395000961257037 -11.099440681468174 7.495294069467216 0 0 0
256 256 1 -3.0609832512999517 -8.334338520193453 7.690441800851803 0 0 0
259 257 1 -0.6008015560542308 -11.090470542499466 7.420063755000867 0 0 0
257 258 1 -1.8277566170998656 -10.406294519463328 7.300289405144809 0 0 0
258 259 1 -1.8237285022255898 -9.028108767864415 7.604254447836946 0 0 0
260 260 1 -0.6195294483301043 -8.310154015622718 7.361378444167744 0 0 0
263 261 1 1.8418288352944676 -11.097926508278155 7.505086230335755 0 0 0
261 262 1 0.6172865735298775 -10.405797094384882 7.60426163118866 0 0 0
262 263 1 0.615025892548154 -9.022327278218356 7.311988023586997 0 0 0
264 264 1 1.8551317005227226 -8.322243643166967 7.309977459100776 0 0 0
265 266 1 3.0723282512828725 -10.43118834564857 7.665722388003728 0 0 0
266 267 1 3.0636501231115614 -9.019554092813143 7.601137029464685 0 0 0
298 293 1 -3.0676708420205228 -6.929627732002718 7.531489640193676 0 0 0
303 297 1 -0.5977904474850483 -6.924276775775861 7.605933936614622 0 0 0
301 298 1 -1.835561679610018 -6.2329935707130995 7.698649291250268 0 0 0
302 299 1 -1.8478417712835238 -4.828684635053279 7.538405678904832 0 0 0
308 301 1 1.8573468156774497 -6.90977570945586 7.341093919562243 0 0 0
306 302 1 0.6192013312799004 -6.216671130851283 7.411266375827971 0 0 0
307 303 1 0.6120787865228648 -4.836555560126095 7.709538272330499 0 0 0
311 306 1 3.0754436426470995 -6.2535137699182135 7.673674621254659 0 0 0
312 307 1 3.0660063408380016 -4.8445303681941665 7.816967161193615 0 0 0
267 265 1 4.2892868325848585 -11.119165469775213 7.463458824459546 0 0 0
268 268 1 4.303125355261667 -8.34459225564258 7.434169836935322 0 0 0
271 269 1 6.737182929914715 -11.165591200558854 7.547333335119783 0 0 0
269 270 1 5.527718780305394 -10.450802297355798 7.377727219623173 0 0 0
270 271 1 5.510111489637968 -9.068318739119752 7.665652499517462 0 0 0
272 272 1 6.755110284133916 -8.385750142148895 7.714958200432411 0 0 0
275 273 1 9.199875641184578 -11.225400165135861 7.6650573918917 0 0 0
273 274 1 7.972079982180789 -10.519038750469212 7.772249129681616 0 0 0
274 275 1 7.972295763811258 -9.122404043023101 7.561204635619744 0 0 0
276 276 1 9.21612752767428 -8.448674868038312 7.6883681875905525 0 0 0
279 277 1 11.6662286499999 -11.344000020833501 7.5 0 0 0
277 278 1 10.466977170511639 -10.599050307952202 7.761078520496394 0 0 0
278 279 1 10.428196724792901 -9.200483278912484 7.486475068883338 0 0 0
280 280 1 11.6662286499999 -8.508000020833501 7.5 0 0 0
313 305 1 4.3087091616173785 -6.934867241323636 7.480079419872953 0 0 0
318 309 1 6.772872972641904 -6.985038423403445 7.549651066710866 0 0 0
316 310 1 5.543466947925752 -6.277817269429757 7.719430879761056 0 0 0
317 311 1 5.526726156668891 -4.864460480818699 7.615984258138875 0 0 0
323 313 1 9.228967982426484 -7.037500884701203 7.5344895698346095 0 0 0
321 314 1 8.006452310970285 -6.3142681997064205 7.709692209839425 0 0 0
322 315 1 7.984143417978487 -4.902463229977934 7.5649062211828415 0 0 0
328 317 1 11.6662286499999 -7.090000020833501 7.5 0 0 0
326 318 1 10.457623136403344 -6.355895049666689 7.67242515321541 0 0 0
327 319 1 10.429810285686214 -4.949904521444896 7.454590266085826 0 0 0
284 284 1 -10.453934551005583 -4.2159743176047675 7.382727533477875 0 0 0
289 288 1 -8.007401796569466 -4.194270113856919 7.701270074533342 0 0 0
294 292 1 -5.545633021987897 -4.147675618403892 7.75048959401812 0 0 0
285 321 1 -10.447318863051558 -2.8238111627301565 7.653292835554948 0 0 0
331 322 1 -11.6662283500001 -2.127000020833501 7.5 0 0 0
332 323 1 -11.6662283500001 -0.7090000208334999 7.5 0 0 0
334 324 1 -10.459693665354443 0.022591545944282025 7.710048175529732 0 0 0
290 325 1 -7.991719874995737 -2.7763252373391 7.7437529090476245 0 0 0
336 326 1 -9.217456595583483 -2.0948007269852047 7.54251082539509 0 0 0
337 327 1 -9.221786266616315 -0.6848087374828526 7.753133046242166 0 0 0
339 328 1 -7.988216689618065 0.045198074508767 7.72966097984951 0 0 0
295 329 1 -5.526806621589074 -2.751082298084234 7.541659597150994 0 0 0
341 330 1 -6.752406353545951 -2.059478784239762 7.72728577904065 0 0 0
342 331 1 -6.768382165824913 -0.6557900534953527 7.519661159503038 0 0 0
344 332 1 -5.540651200153332 0.06758058901555909 7.661012890529669 0 0 0
347 335 1 -4.301379016794766 -0.619807480070509 7.509644229146963 0 0 0
335 361 1 -10.437238744528697 1.423476615368418 7.485243607648495 0 0 0
333 362 1 -11.6662283500001 2.1269999791664986 7.5 0 0 0
381 363 1 -11.6662283500001 3.5449989791665004 7.5 0 0 0
383 364 1 -10.448716839886632 4.270738013369653 7.62661316140804 0 0 0
340 365 1 -7.987986006642512 1.4545479091561844 7.567151582386648 0 0 0
338 366 1 -9.219527371336802 2.144840803042422 7.6962936731023825 0 0 0
385 367 1 -9.225033469045524 3.553482638420679 7.475777325252907 0 0 0
387 368 1 -7.990049034464287 4.274980691373373 7.447355894275921 0 0 0
345 369 1 -5.52085226143624 1.4820637381148039 7.557870111376709 0 0 0
343 370 1 -6.758683765232017 2.162040596588856 7.743211076789896 0 0 0
389 371 1 -6.769925960147356 3.585960679888532 7.706821908833474 0 0 0
348 374 1 -4.300307415109703 2.186067774591225 7.7565829409660925 0 0 0
393 375 1 -4.308763278090034 3.607507984573994 7.727031548196422 0 0 0
346 334 1 -4.293655569275727 -2.038339519915993 7.5043913243531115 0 0 0
299 296 1 -3.0748750982719817 -4.142044264101606 7.749602769152434 0 0 0
304 300 1 -0.6100355607154764 -4.1211424112816 7.5577079237218525 0 0 0
309 304 1 1.8461023478344023 -4.129310350503701 7.624202607432476 0 0 0
300 333 1 -3.07552372230685 -2.723046841180382 7.749440729252474 0 0 0
349 336 1 -3.0787238896941895 0.07445798679693305 7.772385307168863 0 0 0
305 337 1 -0.6146782826474202 -2.7234202612038017 7.7546212912665835 0 0 0
351 338 1 -1.8398310104188325 -2.030522714038303 7.5885075910336255 0 0 0
352 339 1 -1.839749288000364 -0.6254385854066349 7.783982617965558 0 0 0
354 340 1 -0.616811124247816 0.09252787944821074 7.643101819374286 0 0 0
310 341 1 1.8446144057058154 -2.7257407952060837 7.786306977489047 0 0 0
356 342 1 0.6201591465461898 -2.0287737740578953 7.612478438217587 0 0 0
357 343 1 0.6105621474265475 -0.6216871763431259 7.786674482404471 0 0 0
359 344 1 1.8488573422291972 0.08391195693267813 7.7706869110636925 0 0 0
361 346 1 3.0768430383772944 -2.047159462845216 7.572155625947076 0 0 0
362 347 1 3.0652114689773575 -0.6278662069412028 7.534161175814449 0 0 0
350 373 1 -3.0669840968453506 1.4897316420385232 7.630694313355284 0 0 0
355 377 1 -0.6068366968039368 1.492610051612431 7.864407509184171 0 0 0
353 378 1 -1.845809344718237 2.193157807714571 7.85914459150587 0 0 0
397 379 1 -1.8333488635457065 3.5948286400060656 7.615415391513384 0 0 0
360 381 1 1.8478775273161443 1.4926942896571698 7.60167495990562 0 0 0
358 382 1 0.6124143196221751 2.1987618500447987 7.650785124904666 0 0 0
401 383 1 0.6193700101347464 3.607792315945682 7.837756882005561 0 0 0
363 386 1 3.0795132399956167 2.182624892073711 7.7907184090532535 0 0 0
405 387 1 3.070967463525256 3.607093061225506 7.772465717070487 0 0 0
314 308 1 4.309970222260791 -4.148512559028235 7.845220674501817 0 0 0
319 312 1 6.764211246592703 -4.180199296451595 7.766986257881904 0 0 0
324 316 1 9.219348303478805 -4.210715781009434 7.671056882574859 0 0 0
329 320 1 11.6662286499999 -4.254000020833502 7.5 0 0 0
315 345 1 4.308319536525107 -2.7332366218008888 7.770781052599595 0 0 0
364 348 1 4.302547366721938 0.06495080810408124 7.6732610583709935 0 0 0
320 349 1 6.770854579796404 -2.762035965704506 7.742478052327504 0 0 0
366 350 1 5.5406865679958806 -2.071308886914899 7.512578143527032 0 0 0
367 351 1 5.524272636136802 -0.6482871323292692 7.464047674407446 0 0 0
369 352 1 6.7547216294911525 0.05016711307023151 7.626109393921797 0 0 0
325 353 1 9.226467019165826 -2.8027235597987064 7.487893664103373 0 0 0
371 354 1 8.00787270269693 -2.075398159311146 7.6613593552663275 0 0 0
372 355 1 7.977009646844929 -0.6711576945423694 7.44514792058285 0 0 0
374 356 1 9.208896675596055 0.032254917478941283 7.574745519079891 0 0 0
330 357 1 11.6662286499999 -2.8360000208335006 7.5 0 0 0
376 358 1 10.450428940808205 -2.10622393456345 7.619291154305383 0 0 0
377 359 1 10.430269680047127 -0.6995663154836628 7.399838668535434 0 0 0
379 360 1 11.6662286499999 -2.0833500258277127e-08 7.5 0 0 0
365 385 1 4.304131655274235 1.4827875729811946 7.589272568697488 0 0 0
370 389 1 6.767346510183012 1.4668345861578 7.51840990509329 0 0 0
368 390 1 5.541831114500678 2.1658145443317456 7.753494631580372 0 0 0
409 391 1 5.525231678873148 3.5929812132357175 7.735631107404252 0 0 0
375 393 1 9.221808102436656 1.4488591278185596 7.44198392137181 0 0 0
373 394 1 7.998795439281024 2.1543257019810436 7.664256686711769 0 0 0
413 395 1 7.983081839187306 3.5790238436263686 7.6674571569636285 0 0 0
415 396 1 9.20011025449656 4.279731318356172 7.42197604618376 0 0 0
380 397 1 11.6662286499999 1.417999979166499 7.5 0 0 0
378 398 1 10.44508956417748 2.143439046415869 7.6076428599415005 0 0 0
417 399 1 10.434519120461061 3.5490845518226495 7.372866025966413 0 0 0
419 400 1 11.6662286499999 4.2540009791664986 7.5 0 0 0
411 392 1 6.74915113093478 4.283118706503185 7.498438148146816 0 0 0
391 372 1 -5.541490604464902 4.290447054619869 7.50379932816903 0 0 0
384 401 1 -10.441903803469414 5.673360981023729 7.416631115946944 0 0 0
382 402 1 -11.6662283500001 6.3809999791665 7.5 0 0 0
421 403 1 -11.6662283500001 7.7990009791665 7.5 0 0 0
424 404 1 -10.447532841667831 8.510395153055 7.677772949976441 0 0 0
388 405 1 -7.987505375956113 5.697703793011218 7.467452420895116 0 0 0
386 406 1 -9.22058365325693 6.38340344099779 7.636832512533498 0 0 0
427 407 1 -9.220566646586636 7.807948393296365 7.537347772164495 0 0 0
430 408 1 -7.99356559591646 8.513167329853724 7.730177771671118 0 0 0
392 409 1 -5.52012782135921 5.7113087515401615 7.493880016408663 0 0 0
390 410 1 -6.758897801019294 6.391998701757805 7.6853738152104745 0 0 0
433 411 1 -6.765195771805978 7.81485307169549 7.583149207438403 0 0 0
436 412 1 -5.53897918141398 8.52041999762736 7.769296121825955 0 0 0
394 414 1 -4.296228217610762 6.403945668327893 7.7188458232222175 0 0 0
439 415 1 -4.3061407363260376 7.8256746692218675 7.624184406325006 0 0 0
425 441 1 -10.441104731587691 9.920310943666067 7.468797603928261 0 0 0
422 442 1 -11.6662283500001 10.6349989791665 7.5 0 0 0
423 443 1 -11.6662283500001 12.053000979166498 7.5 0 0 0
426 444 1 -10.4382043500001 12.7619999791665 7.5 0 0 0
431 445 1 -7.989895823677876 9.933029321778736 7.584080924003142 0 0 0
428 446 1 -9.220653136439514 10.635791147012263 7.694656213643724 0 0 0
429 447 1 -9.210180350000101 12.053000979166498 7.5 0 0 0
432 448 1 -7.982156350000101 12.7619999791665 7.5 0 0 0
437 449 1 -5.52538739613805 9.93724907090171 7.608340455173033 0 0 0
434 450 1 -6.758528401001018 10.642589353363968 7.741687920452218 0 0 0
435 451 1 -6.7541323500001 12.053000979166498 7.5 0 0 0
438 452 1 -5.526108350000101 12.7619999791665 7.5 0 0 0
440 454 1 -4.298136924639262 10.647254068359624 7.746653403148062 0 0 0
441 455 1 -4.298084350000101 12.053000979166498 7.5 0 0 0
395 376 1 -3.072230055349301 4.295191963034378 7.516413021790353 0 0 0
399 380 1 -0.620589685490793 4.319735696403346 7.82090429845345 0 0 0
403 384 1 1.8389614003632195 4.311157252534697 7.597778091455836 0 0 0
396 413 1 -3.0563721333552634 5.720779663068648 7.538902607074032 0 0 0