
     Program PWSCF v.7.2 starts on  8Sep2024 at  0:10:30 

     This program is part of the open-source Quantum ESPRESSO suite
     for quantum simulation of materials; please cite
         "P. Giannozzi et al., J. Phys.:Condens. Matter 21 395502 (2009);
         "P. Giannozzi et al., J. Phys.:Condens. Matter 29 465901 (2017);
         "P. Giannozzi et al., J. Chem. Phys. 152 154105 (2020);
          URL http://www.quantum-espresso.org", 
     in publications or presentations arising from this work. More details at
     http://www.quantum-espresso.org/quote

     Parallel version (MPI & OpenMP), running on       8 processor cores
     Number of MPI processes:                 8
     Threads/MPI process:                     1

     MPI processes distributed on     1 nodes
     361162 MiB available memory on the printing compute node when the environment starts
 
     Reading input from hydrogen_absorption1_strain.in
Warning: card &CELL ignored
Warning: card     !CELL_FACTOR=4 ignored
Warning: card     !CELL_DOFREE='IBRAV' ignored
Warning: card / ignored
Warning: card     H  1.00784  H.PZ-RRKJUS_PSL.0.1.UPF ignored

     Current dimensions of program PWSCF are:
     Max number of different atomic species (ntypx) = 10
     Max number of k-points (npk) =  40000
     Max angular momentum in pseudopotentials (lmaxx) =  4

     IMPORTANT: XC functional enforced from input :
     Exchange-correlation= LDA
                           (   1   1   0   0   0   0   0)
     Any further DFT definition will be discarded
     Please, verify this is what you really want

 
     R & G space division:  proc/nbgrp/npool/nimage =       8
     Subspace diagonalization in iterative solution of the eigenvalue problem:
     a serial algorithm will be used

 
     Parallelization info
     --------------------
     sticks:   dense  smooth     PW     G-vecs:    dense   smooth      PW
     Min         291     116     35                23111     5843     947
     Max         292     118     36                23120     5848     950
     Sum        2335     931    283               184931    46765    7583
 
     Using Slab Decomposition
 

     Title: 
     1H2_absorption_C_strain                                                    


     bravais-lattice index     =            0
     lattice parameter (alat)  =       8.0000  a.u.
     unit-cell volume          =    1367.9607 (a.u.)^3
     number of atoms/cell      =           24
     number of atomic types    =            1
     number of electrons       =        96.00
     number of Kohn-Sham states=           58
     kinetic-energy cutoff     =      40.0000  Ry
     charge density cutoff     =     400.0000  Ry
     scf convergence threshold =      1.0E-06
     mixing beta               =       0.0500
     number of iterations used =            8  local-TF  mixing
     Exchange-correlation= LDA
                           (   1   1   0   0   0   0   0)

     celldm(1)=   8.000004  celldm(2)=   0.000000  celldm(3)=   0.000000
     celldm(4)=   0.000000  celldm(5)=   0.000000  celldm(6)=   0.000000

     crystal axes: (cart. coord. in units of alat)
               a(1) = (   1.147665   0.000203  -0.001136 )  
               a(2) = (  -0.573657   0.993643   0.000961 )  
               a(3) = (  -0.003587   0.001193   2.342685 )  

     reciprocal axes: (cart. coord. in units 2 pi/alat)
               b(1) = (  0.871246  0.502993  0.001078 )  
               b(2) = ( -0.000178  1.006296 -0.000513 )  
               b(3) = (  0.000423 -0.000169  0.426861 )  


     PseudoPot. # 1 for C  read from file:
     ../../potentials/C.pz-n-rrkjus_psl.0.1.UPF
     MD5 check sum: a3cecbabebb5b3a1aff122f23eb09bb0
     Pseudo is Ultrasoft + core correction, Zval =  4.0
     Generated using "atomic" code by A. Dal Corso  v.5.0.2 svn rev. 9415
     Using radial grid of 1073 points,  4 beta functions with: 
                l(1) =   0
                l(2) =   0
                l(3) =   1
                l(4) =   1
     Q(r) pseudized with 0 coefficients 


     atomic species   valence    mass     pseudopotential
        C              4.00    12.01100     C ( 1.00)

     No symmetry found



   Cartesian axes

     site n.     atom                  positions (alat units)
         1           C   tau(   1) = (  -0.0009762   0.0002706   0.3997150  )
         2           C   tau(   2) = (   0.0028624  -0.0005938   1.0769265  )
         3           C   tau(   3) = (  -0.0046158   0.0010774   2.0201586  )
         4           C   tau(   4) = (  -0.0008035   0.3315263   0.3987580  )
         5           C   tau(   5) = (   0.2893763   0.1648126   1.0816881  )
         6           C   tau(   6) = (  -0.0044153   0.3321980   2.0124734  )
         7           C   tau(   7) = (   0.5729588   0.0003708   0.3991284  )
         8           C   tau(   8) = (   0.5760954  -0.0008668   1.0782649  )
         9           C   tau(   9) = (   0.5693353   0.0010207   2.0182948  )
        10           C   tau(  10) = (   0.5729834   0.3316231   0.3982415  )
        11           C   tau(  11) = (   0.8634311   0.1650456   1.0784116  )
        12           C   tau(  12) = (   0.5691175   0.3323676   2.0113707  )
        13           C   tau(  13) = (  -0.2877366   0.4971280   0.3994508  )
        14           C   tau(  14) = (  -0.2843735   0.4959971   1.0815709  )
        15           C   tau(  15) = (  -0.2914836   0.4978923   2.0081531  )
        16           C   tau(  16) = (  -0.2876517   0.8283819   0.3992339  )
        17           C   tau(  17) = (   0.0021523   0.6613766   1.0785038  )
        18           C   tau(  18) = (  -0.2914517   0.8292976   2.0126418  )
        19           C   tau(  19) = (   0.2860778   0.4972873   0.3996265  )
        20           C   tau(  20) = (   0.2892333   0.4959593   1.0781300  )
        21           C   tau(  21) = (   0.2823098   0.4980781   2.0195537  )
        22           C   tau(  22) = (   0.2861873   0.8284576   0.3996010  )
        23           C   tau(  23) = (   0.5766165   0.6618375   1.0783655  )
        24           C   tau(  24) = (   0.2824414   0.8292679   2.0304037  )

     number of k points=    36  Gaussian smearing, width (Ry)=  0.0100
                       cart. coord. in units 2pi/alat
        k(    1) = (   0.0726947   0.1257318   0.1067625), wk =   0.0555556
        k(    2) = (   0.0724834   0.1258163  -0.1066682), wk =   0.0555556
        k(    3) = (   0.0726649   0.2934477   0.1066770), wk =   0.0555556
        k(    4) = (   0.0724537   0.2935322  -0.1067537), wk =   0.0555556
        k(    5) = (   0.0726352   0.4611637   0.1065916), wk =   0.0555556
        k(    6) = (   0.0724239   0.4612481  -0.1068391), wk =   0.0555556
        k(    7) = (   0.0727838  -0.3774160   0.1070188), wk =   0.0555556
        k(    8) = (   0.0725725  -0.3773315  -0.1064119), wk =   0.0555556
        k(    9) = (   0.0727541  -0.2097000   0.1069333), wk =   0.0555556
        k(   10) = (   0.0725428  -0.2096156  -0.1064973), wk =   0.0555556
        k(   11) = (   0.0727244  -0.0419841   0.1068479), wk =   0.0555556
        k(   12) = (   0.0725131  -0.0418997  -0.1065828), wk =   0.0555556
        k(   13) = (   0.2179024   0.2095640   0.1069421), wk =   0.0555556
        k(   14) = (   0.2176911   0.2096484  -0.1064885), wk =   0.0555556
        k(   15) = (   0.2178727   0.3772799   0.1068567), wk =   0.0555556
        k(   16) = (   0.2176614   0.3773644  -0.1065740), wk =   0.0555556
        k(   17) = (   0.2178430   0.5449958   0.1067713), wk =   0.0555556
        k(   18) = (   0.2176317   0.5450803  -0.1066594), wk =   0.0555556
        k(   19) = (   0.2179915  -0.2935838   0.1071984), wk =   0.0555556
        k(   20) = (   0.2177802  -0.2934993  -0.1062322), wk =   0.0555556
        k(   21) = (   0.2179618  -0.1258679   0.1071130), wk =   0.0555556
        k(   22) = (   0.2177505  -0.1257834  -0.1063177), wk =   0.0555556
        k(   23) = (   0.2179321   0.0418481   0.1070276), wk =   0.0555556
        k(   24) = (   0.2177208   0.0419325  -0.1064031), wk =   0.0555556
        k(   25) = (   0.3631101   0.2933961   0.1071218), wk =   0.0555556
        k(   26) = (   0.3628988   0.2934806  -0.1063089), wk =   0.0555556
        k(   27) = (   0.3630804   0.4611121   0.1070364), wk =   0.0555556
        k(   28) = (   0.3628691   0.4611965  -0.1063943), wk =   0.0555556
        k(   29) = (   0.3630507   0.6288280   0.1069509), wk =   0.0555556
        k(   30) = (   0.3628394   0.6289125  -0.1064797), wk =   0.0555556
        k(   31) = (   0.3631992  -0.2097516   0.1073781), wk =   0.0555556
        k(   32) = (   0.3629879  -0.2096672  -0.1060526), wk =   0.0555556
        k(   33) = (   0.3631695  -0.0420357   0.1072927), wk =   0.0555556
        k(   34) = (   0.3629582  -0.0419513  -0.1061380), wk =   0.0555556
        k(   35) = (   0.3631398   0.1256802   0.1072073), wk =   0.0555556
        k(   36) = (   0.3629285   0.1257647  -0.1062234), wk =   0.0555556

     Dense  grid:   184931 G-vectors     FFT dimensions: (  60,  60, 120)

     Smooth grid:    46765 G-vectors     FFT dimensions: (  40,  40,  75)

     Estimated max dynamical RAM per process >      79.75 MB

     Estimated total dynamical RAM >     637.96 MB

     Check: negative core charge=   -0.000002

     Initial potential from superposition of free atoms

     starting charge      95.9992, renormalised to      96.0000
     Starting wfcs are   96 randomized atomic wfcs

     total cpu time spent up to now is        2.2 secs

     Self-consistent Calculation

     iteration #  1     ecut=    40.00 Ry     beta= 0.05
     Davidson diagonalization with overlap
     ethr =  1.00E-02,  avg # of iterations =  3.6

     total cpu time spent up to now is        6.3 secs

     total energy              =    -287.97370369 Ry
     estimated scf accuracy    <       1.74933294 Ry

     iteration #  2     ecut=    40.00 Ry     beta= 0.05
     Davidson diagonalization with overlap
     ethr =  1.82E-03,  avg # of iterations =  3.5

     total cpu time spent up to now is        9.7 secs

     total energy              =    -288.94381553 Ry
     estimated scf accuracy    <       2.19864166 Ry

     iteration #  3     ecut=    40.00 Ry     beta= 0.05
     Davidson diagonalization with overlap
     ethr =  1.82E-03,  avg # of iterations =  1.0

     total cpu time spent up to now is       12.2 secs

     total energy              =    -287.32904109 Ry
     estimated scf accuracy    <       3.56247316 Ry

     iteration #  4     ecut=    40.00 Ry     beta= 0.05
     Davidson diagonalization with overlap
     ethr =  1.82E-03,  avg # of iterations =  2.1

     total cpu time spent up to now is       14.7 secs

     total energy              =    -287.23464606 Ry
     estimated scf accuracy    <       0.86777637 Ry

     iteration #  5     ecut=    40.00 Ry     beta= 0.05
     Davidson diagonalization with overlap
     ethr =  9.04E-04,  avg # of iterations =  2.1

     total cpu time spent up to now is       17.4 secs

     total energy              =    -287.02813986 Ry
     estimated scf accuracy    <       0.49375087 Ry

     iteration #  6     ecut=    40.00 Ry     beta= 0.05
     Davidson diagonalization with overlap
     ethr =  5.14E-04,  avg # of iterations =  4.4

     total cpu time spent up to now is       21.3 secs

     total energy              =    -287.11598613 Ry
     estimated scf accuracy    <       0.03450697 Ry

     iteration #  7     ecut=    40.00 Ry     beta= 0.05
     Davidson diagonalization with overlap
     c_bands:  1 eigenvalues not converged
     c_bands:  2 eigenvalues not converged
     c_bands:  1 eigenvalues not converged
     ethr =  3.59E-05,  avg # of iterations = 13.2

     total cpu time spent up to now is       29.1 secs

     total energy              =    -287.18276391 Ry
     estimated scf accuracy    <       0.03643050 Ry

     iteration #  8     ecut=    40.00 Ry     beta= 0.05
     Davidson diagonalization with overlap
     ethr =  3.59E-05,  avg # of iterations =  2.0

     total cpu time spent up to now is       31.8 secs

     total energy              =    -287.14483949 Ry
     estimated scf accuracy    <       0.07241689 Ry

     iteration #  9     ecut=    40.00 Ry     beta= 0.05
     Davidson diagonalization with overlap
     ethr =  3.59E-05,  avg # of iterations =  2.0

     total cpu time spent up to now is       34.9 secs

     total energy              =    -287.14760564 Ry
     estimated scf accuracy    <       0.00726586 Ry

     iteration # 10     ecut=    40.00 Ry     beta= 0.05
     Davidson diagonalization with overlap
     ethr =  7.57E-06,  avg # of iterations =  6.4

     total cpu time spent up to now is       40.8 secs

     total energy              =    -287.15341547 Ry
     estimated scf accuracy    <       0.01904726 Ry

     iteration # 11     ecut=    40.00 Ry     beta= 0.05
     Davidson diagonalization with overlap
     ethr =  7.57E-06,  avg # of iterations =  1.1

     total cpu time spent up to now is       43.1 secs

     total energy              =    -287.15000691 Ry
     estimated scf accuracy    <       0.00889407 Ry

     iteration # 12     ecut=    40.00 Ry     beta= 0.05
     Davidson diagonalization with overlap
     ethr =  7.57E-06,  avg # of iterations =  2.0

     total cpu time spent up to now is       45.8 secs

     total energy              =    -287.15227115 Ry
     estimated scf accuracy    <       0.00180521 Ry

     iteration # 13     ecut=    40.00 Ry     beta= 0.05
     Davidson diagonalization with overlap
     ethr =  1.88E-06,  avg # of iterations =  2.9

     total cpu time spent up to now is       48.6 secs

     total energy              =    -287.15152240 Ry
     estimated scf accuracy    <       0.00417701 Ry

     iteration # 14     ecut=    40.00 Ry     beta= 0.05
     Davidson diagonalization with overlap
     ethr =  1.88E-06,  avg # of iterations =  1.2

     total cpu time spent up to now is       51.1 secs

     total energy              =    -287.14958658 Ry
     estimated scf accuracy    <       0.00276715 Ry

     iteration # 15     ecut=    40.00 Ry     beta= 0.05
     Davidson diagonalization with overlap
     ethr =  1.88E-06,  avg # of iterations =  3.4

     total cpu time spent up to now is       55.1 secs

     total energy              =    -287.15027306 Ry
     estimated scf accuracy    <       0.00035206 Ry

     iteration # 16     ecut=    40.00 Ry     beta= 0.05
     Davidson diagonalization with overlap
     ethr =  3.67E-07,  avg # of iterations =  2.0

     total cpu time spent up to now is       57.9 secs

     total energy              =    -287.15029707 Ry
     estimated scf accuracy    <       0.00008324 Ry

     iteration # 17     ecut=    40.00 Ry     beta= 0.05
     Davidson diagonalization with overlap
     ethr =  8.67E-08,  avg # of iterations =  2.4

     total cpu time spent up to now is       60.9 secs

     total energy              =    -287.15030548 Ry
     estimated scf accuracy    <       0.00004624 Ry

     iteration # 18     ecut=    40.00 Ry     beta= 0.05
     Davidson diagonalization with overlap
     ethr =  4.82E-08,  avg # of iterations =  2.4

     total cpu time spent up to now is       64.2 secs

     total energy              =    -287.15031180 Ry
     estimated scf accuracy    <       0.00004310 Ry

     iteration # 19     ecut=    40.00 Ry     beta= 0.05
     Davidson diagonalization with overlap
     ethr =  4.49E-08,  avg # of iterations =  3.0

     total cpu time spent up to now is       67.7 secs

     total energy              =    -287.15027739 Ry
     estimated scf accuracy    <       0.00010585 Ry

     iteration # 20     ecut=    40.00 Ry     beta= 0.05
     Davidson diagonalization with overlap
     ethr =  4.49E-08,  avg # of iterations =  3.7

     total cpu time spent up to now is       71.7 secs

     total energy              =    -287.15030108 Ry
     estimated scf accuracy    <       0.00002236 Ry

     iteration # 21     ecut=    40.00 Ry     beta= 0.05
     Davidson diagonalization with overlap
     ethr =  2.33E-08,  avg # of iterations =  1.0

     total cpu time spent up to now is       74.1 secs

     total energy              =    -287.15030179 Ry
     estimated scf accuracy    <       0.00002112 Ry

     iteration # 22     ecut=    40.00 Ry     beta= 0.05
     Davidson diagonalization with overlap
     ethr =  2.20E-08,  avg # of iterations =  1.0

     total cpu time spent up to now is       76.5 secs

     total energy              =    -287.15029459 Ry
     estimated scf accuracy    <       0.00002243 Ry

     iteration # 23     ecut=    40.00 Ry     beta= 0.05
     Davidson diagonalization with overlap
     ethr =  2.20E-08,  avg # of iterations =  3.6

     total cpu time spent up to now is       80.5 secs

     total energy              =    -287.15029478 Ry
     estimated scf accuracy    <       0.00002250 Ry

     iteration # 24     ecut=    40.00 Ry     beta= 0.05
     Davidson diagonalization with overlap
     ethr =  2.20E-08,  avg # of iterations =  2.0

     total cpu time spent up to now is       83.3 secs

     total energy              =    -287.15029626 Ry
     estimated scf accuracy    <       0.00001152 Ry

     iteration # 25     ecut=    40.00 Ry     beta= 0.05
     Davidson diagonalization with overlap
     ethr =  1.20E-08,  avg # of iterations =  1.0

     total cpu time spent up to now is       85.8 secs

     total energy              =    -287.15029643 Ry
     estimated scf accuracy    <       0.00001141 Ry

     iteration # 26     ecut=    40.00 Ry     beta= 0.05
     Davidson diagonalization with overlap
     ethr =  1.19E-08,  avg # of iterations =  1.0

     total cpu time spent up to now is       88.2 secs

     total energy              =    -287.15029431 Ry
     estimated scf accuracy    <       0.00001285 Ry

     iteration # 27     ecut=    40.00 Ry     beta= 0.05
     Davidson diagonalization with overlap
     ethr =  1.19E-08,  avg # of iterations =  1.0

     total cpu time spent up to now is       90.7 secs

     total energy              =    -287.15029450 Ry
     estimated scf accuracy    <       0.00000867 Ry

     iteration # 28     ecut=    40.00 Ry     beta= 0.05
     Davidson diagonalization with overlap
     ethr =  9.03E-09,  avg # of iterations =  1.0

     total cpu time spent up to now is       93.1 secs

     total energy              =    -287.15029337 Ry
     estimated scf accuracy    <       0.00000759 Ry

     iteration # 29     ecut=    40.00 Ry     beta= 0.05
     Davidson diagonalization with overlap
     ethr =  7.91E-09,  avg # of iterations =  2.0

     total cpu time spent up to now is       96.0 secs

     total energy              =    -287.15029472 Ry
     estimated scf accuracy    <       0.00000401 Ry

     iteration # 30     ecut=    40.00 Ry     beta= 0.05
     Davidson diagonalization with overlap
     ethr =  4.17E-09,  avg # of iterations =  1.3

     total cpu time spent up to now is       98.6 secs

     total energy              =    -287.15029469 Ry
     estimated scf accuracy    <       0.00000461 Ry

     iteration # 31     ecut=    40.00 Ry     beta= 0.05
     Davidson diagonalization with overlap
     ethr =  4.17E-09,  avg # of iterations =  1.0

     total cpu time spent up to now is      100.9 secs

     total energy              =    -287.15029430 Ry
     estimated scf accuracy    <       0.00000449 Ry

     iteration # 32     ecut=    40.00 Ry     beta= 0.05
     Davidson diagonalization with overlap
     ethr =  4.17E-09,  avg # of iterations =  1.0

     total cpu time spent up to now is      103.3 secs

     total energy              =    -287.15029568 Ry
     estimated scf accuracy    <       0.00000373 Ry

     iteration # 33     ecut=    40.00 Ry     beta= 0.05
     Davidson diagonalization with overlap
     ethr =  3.89E-09,  avg # of iterations =  2.0

     total cpu time spent up to now is      106.0 secs

     total energy              =    -287.15029279 Ry
     estimated scf accuracy    <       0.00000600 Ry

     iteration # 34     ecut=    40.00 Ry     beta= 0.05
     Davidson diagonalization with overlap
     ethr =  3.89E-09,  avg # of iterations =  4.0

     total cpu time spent up to now is      109.7 secs

     total energy              =    -287.15029329 Ry
     estimated scf accuracy    <       0.00000259 Ry

     iteration # 35     ecut=    40.00 Ry     beta= 0.05
     Davidson diagonalization with overlap
     ethr =  2.70E-09,  avg # of iterations =  2.0

     total cpu time spent up to now is      112.4 secs

     End of self-consistent calculation

          k = 0.0727 0.1257 0.1068 (  5839 PWs)   bands (ev):

   -12.5806 -12.2761 -12.0263  -8.1388  -8.1334  -7.8986  -7.8932  -7.7134
    -7.7084  -7.0011  -6.8388  -6.7037  -6.1749  -6.0541  -5.9528  -5.2030
    -5.1985  -5.0072  -5.0006  -4.8652  -4.8621  -1.7467  -0.5542   0.1167
     0.2196   0.2696   0.6147   0.6215   0.7037   0.7116   0.7469   0.7544
     0.7904   3.3262   3.3498   3.7193   3.7721   3.7911   3.9169   3.9511
     3.9862   4.2012   4.2811   4.2882   4.8796   5.1561   5.1785   5.5781
     8.1979   8.7828   8.8112   8.9597   9.5796   9.6307   9.6462  10.4128
    10.4451  11.3203

          k = 0.0725 0.1258-0.1067 (  5842 PWs)   bands (ev):

   -12.5806 -12.2761 -12.0263  -8.1387  -8.1334  -7.8989  -7.8931  -7.7132
    -7.7085  -7.0011  -6.8388  -6.7037  -6.1749  -6.0541  -5.9528  -5.2031
    -5.1985  -5.0069  -5.0006  -4.8655  -4.8620  -1.7466  -0.5546   0.1167
     0.2195   0.2697   0.6147   0.6215   0.7036   0.7117   0.7470   0.7543
     0.7907   3.3259   3.3490   3.7194   3.7719   3.7913   3.9170   3.9510
     3.9862   4.2014   4.2787   4.2930   4.8795   5.1561   5.1766   5.5781
     8.1979   8.7853   8.8105   8.9597   9.5755   9.6303   9.6467  10.4137
    10.4465  11.3197

          k = 0.0727 0.2934 0.1067 (  5844 PWs)   bands (ev):

   -12.1568 -11.8583 -11.6149  -9.6582  -9.3951  -9.1877  -8.6924  -8.4428
    -8.2501  -7.3007  -7.0774  -6.9072  -5.2904  -5.1041  -4.9675  -3.9939
    -3.8148  -3.6896  -3.0794  -2.9091  -2.7930  -1.2275  -1.1738  -1.0446
    -0.9712  -0.2026  -0.0936  -0.0491  -0.0307   1.0315   1.1175   1.1596
     1.2740   1.7408   2.3141   2.3913   2.4332   2.8287   2.8470   3.1377
     3.1962   3.2266   3.8526   3.9606   4.2646   4.8912   5.0957   5.8795
     8.3685   9.0833   9.6684   9.7259  10.4384  10.9037  11.1428  11.6097
    11.8560  12.4285

          k = 0.0725 0.2935-0.1068 (  5844 PWs)   bands (ev):

   -12.1569 -11.8584 -11.6149  -9.6583  -9.3948  -9.1879  -8.6921  -8.4434
    -8.2496  -7.3010  -7.0764  -6.9078  -5.2903  -5.1046  -4.9672  -3.9941
    -3.8142  -3.6899  -3.0793  -2.9095  -2.7928  -1.2277  -1.1737  -1.0447
    -0.9711  -0.2027  -0.0934  -0.0489  -0.0308   1.0315   1.1174   1.1597
     1.2739   1.7408   2.3139   2.3919   2.4332   2.8206   2.8545   3.1378
     3.1957   3.2268   3.8538   3.9598   4.2711   4.8916   5.0765   5.8937
     8.3812   9.0554   9.6852   9.7393  10.3954  10.8866  11.1656  11.6554
    11.8637  12.3981

          k = 0.0726 0.4612 0.1066 (  5857 PWs)   bands (ev):

   -11.3990 -11.1111 -10.8971 -10.8788 -10.6164 -10.3913  -8.9344  -8.6813
    -8.4853  -7.5223  -7.2922  -7.1161  -4.0396  -3.8947  -3.7876  -2.7976
    -2.6676  -2.5742  -2.4906  -2.3732  -2.2954  -1.2816  -1.1786  -1.1108
    -0.8317  -0.7006  -0.6090  -0.3011   0.2673   0.2901   0.4197   0.4777
     0.8481   1.4346   1.7423   1.8193   1.8605   2.1264   2.1825   2.2519
     2.2925   2.6241   2.6773   3.6442   4.1936   4.7463   5.1225   6.0589
     8.6454   9.2924   9.9303  10.3418  10.9586  11.5545  12.7580  13.2647
    13.5128  14.0964

          k = 0.0724 0.4612-0.1068 (  5847 PWs)   bands (ev):

   -11.3990 -11.1112 -10.8971 -10.8788 -10.6161 -10.3914  -8.9341  -8.6820
    -8.4848  -7.5225  -7.2913  -7.1166  -4.0396  -3.8949  -3.7875  -2.7978
    -2.6672  -2.5745  -2.4907  -2.3732  -2.2954  -1.2817  -1.1782  -1.1111
    -0.8316  -0.7007  -0.6089  -0.3016   0.2702   0.2873   0.4210   0.4772
     0.8489   1.4325   1.7423   1.8192   1.8606   2.1257   2.1826   2.2521
     2.2925   2.6212   2.6787   3.6514   4.1979   4.7417   5.1110   6.0672
     8.6483   9.2858   9.9330  10.3468  10.9473  11.5596  12.7545  13.3100
    13.4741  14.0809

          k = 0.0728-0.3774 0.1070 (  5853 PWs)   bands (ev):

   -11.8189 -11.5254 -11.2867 -10.3165 -10.0438  -9.8274  -8.8526  -8.6006
    -8.4059  -7.4479  -7.2197  -7.0450  -4.6366  -4.4576  -4.3315  -3.3442
    -3.1828  -3.0685  -1.9598  -1.8952  -1.8072  -1.7600  -1.7040  -1.6765
    -0.8160  -0.7922  -0.6727  -0.6041   0.3529   0.9766   1.3469   1.3534
     1.4359   1.4472   1.4774   1.5016   1.6587   2.1010   2.6484   2.6612
     2.7480   2.7799   3.2957   3.7144   4.2209   4.7995   5.1103   6.0081
     8.5376   9.1823   9.8607  10.0951  10.7490  11.4237  12.1264  12.2607
    12.8717  13.4807

          k = 0.0726-0.3773-0.1064 (  5851 PWs)   bands (ev):

   -11.8190 -11.5251 -11.2869 -10.3165 -10.0439  -9.8273  -8.8523  -8.6014
    -8.4054  -7.4482  -7.2190  -7.0455  -4.6364  -4.4581  -4.3312  -3.3443
    -3.1824  -3.0687  -1.9599  -1.8950  -1.8068  -1.7605  -1.7043  -1.6762
    -0.8149  -0.7925  -0.6726  -0.6042   0.3505   0.9769   1.3468   1.3534
     1.4358   1.4466   1.4775   1.5012   1.6613   2.1008   2.6456   2.6603
     2.7478   2.7791   3.2962   3.7268   4.2216   4.7904   5.1109   6.0058
     8.5246   9.2120   9.8462  10.0869  10.7689  11.4146  12.1407  12.2579
    12.8068  13.5180

          k = 0.0728-0.2097 0.1069 (  5839 PWs)   bands (ev):

   -12.4107 -12.1088 -11.8614  -8.9285  -8.6757  -8.4796  -8.4497  -8.2043
    -8.0153  -7.1097  -6.9016  -6.7433  -5.8754  -5.6970  -5.5656  -4.6178
    -4.4306  -4.2949  -4.1654  -3.9806  -3.8510  -1.5387  -0.4665  -0.3550
    -0.3484  -0.2899   0.2878   0.3890   0.4386   0.7828   0.8711   0.9136
     0.9842   2.5474   3.0524   3.1305   3.1948   3.2208   3.5609   3.5899
     3.6356   3.6578   4.0461   4.2685   4.6165   5.0030   5.0262   5.7432
     8.2426   8.9540   9.2326   9.6486   9.7312   9.9911  10.5655  10.8148
    11.3367  11.5379

          k = 0.0725-0.2096-0.1065 (  5839 PWs)   bands (ev):

   -12.4108 -12.1086 -11.8615  -8.9285  -8.6759  -8.4795  -8.4493  -8.2052
    -8.0148  -7.1098  -6.9012  -6.7436  -5.8751  -5.6976  -5.5652  -4.6180
    -4.4301  -4.2953  -4.1655  -3.9801  -3.8513  -1.5379  -0.4664  -0.3558
    -0.3499  -0.2898   0.2877   0.3891   0.4385   0.7828   0.8710   0.9137
     0.9856   2.5489   3.0456   3.1316   3.1935   3.2215   3.5575   3.5886
     3.6357   3.6581   4.0627   4.2672   4.6213   5.0081   5.0140   5.7375
     8.2304   8.9824   9.2185   9.6342   9.7506  10.0261  10.5132  10.7968
    11.3643  11.5368

          k = 0.0727-0.0420 0.1068 (  5846 PWs)   bands (ev):

   -12.6655 -12.3599 -12.1087  -7.7518  -7.5196  -7.3442  -7.3300  -7.3248
    -7.1178  -7.1126  -6.9559  -6.9510  -6.0943  -6.0930  -5.9126  -5.9103
    -5.7760  -5.7745  -5.7044  -5.5090  -5.3635  -1.8511  -0.6553   0.5293
     0.5366   0.6189   0.6273   0.6622   0.6700   0.6927   0.7017   0.7903
     0.8289   3.6500   3.9093   3.9307   4.0422   4.0925   4.1123   4.1144
     4.1670   4.2003   4.5068   4.7056   4.7315   5.3109   5.4398   5.4451
     8.2529   8.2587   8.4826   9.0558   9.0693   9.2558   9.7923   9.8009
    10.0831  11.2154

          k = 0.0725-0.0419-0.1066 (  5849 PWs)   bands (ev):

   -12.6656 -12.3598 -12.1088  -7.7515  -7.5205  -7.3435  -7.3299  -7.3248
    -7.1182  -7.1125  -6.9557  -6.9511  -6.0947  -6.0931  -5.9123  -5.9093
    -5.7763  -5.7750  -5.7046  -5.5084  -5.3639  -1.8506  -0.6565   0.5293
     0.5366   0.6188   0.6271   0.6622   0.6701   0.6935   0.7017   0.7903
     0.8289   3.6431   3.9116   3.9329   4.0421   4.0925   4.1126   4.1145
     4.1668   4.2009   4.5262   4.6991   4.7213   5.2963   5.4451   5.4533
     8.2625   8.2735   8.4681   9.0308   9.0356   9.2893   9.8105   9.8146
    10.0660  11.2135

          k = 0.2179 0.2096 0.1069 (  5845 PWs)   bands (ev):

   -12.1570 -11.8586 -11.6150  -9.6603  -9.3966  -9.1898  -8.6894  -8.4406
    -8.2470  -7.2989  -7.0744  -6.9058  -5.2928  -5.1071  -4.9697  -3.9923
    -3.8127  -3.6881  -3.0825  -2.9126  -2.7959  -1.2283  -1.1731  -1.0441
    -0.9705  -0.2077  -0.0983  -0.0487  -0.0354   1.0374   1.1232   1.1655
     1.2731   1.7396   2.3112   2.3869   2.4317   2.8179   2.8545   3.1408
     3.2010   3.2291   3.8571   3.9584   4.2724   4.8951   5.0780   5.8942
     8.3794   9.0546   9.6849   9.7387  10.3976  10.8836  11.1653  11.6612
    11.8584  12.3960

          k = 0.2177 0.2096-0.1065 (  5845 PWs)   bands (ev):

   -12.1571 -11.8584 -11.6152  -9.6601  -9.3971  -9.1894  -8.6895  -8.4402
    -8.2473  -7.2986  -7.0753  -6.9053  -5.2930  -5.1066  -4.9700  -3.9922
    -3.8130  -3.6880  -3.0827  -2.9121  -2.7963  -1.2276  -1.1731  -1.0441
    -0.9705  -0.2075  -0.0987  -0.0501  -0.0355   1.0374   1.1233   1.1654
     1.2743   1.7386   2.3115   2.3864   2.4317   2.8267   2.8479   3.1407
     3.2015   3.2290   3.8584   3.9575   4.2662   4.8930   5.0965   5.8804
     8.3669   9.0819   9.6695   9.7261  10.4369  10.9024  11.1447  11.6104
    11.8497  12.4287

          k = 0.2179 0.3773 0.1069 (  5838 PWs)   bands (ev):

   -11.5672 -11.2771 -11.0423 -10.0728 -10.0678  -9.8037  -9.7985  -9.5906
    -9.5858  -6.1517  -5.9998  -5.8752  -5.3667  -5.2592  -5.1678  -2.8216
    -2.6764  -2.5855  -1.8780  -1.8736  -1.7369  -1.7286  -1.6376  -1.6359
    -0.5089   0.4071   0.4114   0.5024   0.5087   0.5593   0.5670   0.6525
     1.0077   1.0755   1.1251   1.2805   1.3078   1.9376   1.9986   2.0538
     2.0876   2.3803   2.3981   3.5552   3.5816   5.4106   6.0702   6.7407
     7.6832   8.3113   8.8196  11.9318  11.9599  12.4716  12.5823  12.6540
    13.1703  13.1916

          k = 0.2177 0.3774-0.1066 (  5840 PWs)   bands (ev):

   -11.5673 -11.2770 -11.0424 -10.0727 -10.0678  -9.8039  -9.7984  -9.5905
    -9.5859  -6.1517  -5.9998  -5.8752  -5.3667  -5.2592  -5.1679  -2.8215
    -2.6765  -2.5854  -1.8781  -1.8736  -1.7368  -1.7285  -1.6379  -1.6358
    -0.5085   0.4072   0.4113   0.5022   0.5088   0.5595   0.5669   0.6514
     1.0075   1.0759   1.1248   1.2799   1.3077   1.9383   1.9987   2.0538
     2.0876   2.3823   2.3981   3.5543   3.5811   5.4108   6.0700   6.7407
     7.6827   8.3120   8.8195  11.9312  11.9611  12.4777  12.5743  12.6513
    13.1708  13.1937

          k = 0.2178 0.5450 0.1068 (  5830 PWs)   bands (ev):

   -11.1475 -10.8636 -10.6490 -10.6345 -10.3718 -10.1563 -10.1474  -9.8827
    -9.6692  -6.0371  -5.8470  -5.7058  -5.0491  -4.9073  -4.7961  -3.4404
    -3.3251  -3.2434  -1.3803  -1.2699  -1.1911  -0.8262  -0.7066  -0.6281
    -0.0077   0.0406   0.1271   0.1536   0.1820   0.2434   0.3058   0.6039
     0.8489   0.9292   0.9819   1.1441   1.1936   1.3862   1.4609   1.4990
     1.7284   2.2907   2.4063   2.9526   3.4906   5.7181   6.4437   7.1292
     7.3544   7.9784   8.5975  12.2425  12.7774  13.0528  13.1517  13.3489
    13.6493  13.7369

          k = 0.2176 0.5451-0.1067 (  5829 PWs)   bands (ev):

   -11.1476 -10.8632 -10.6490 -10.6348 -10.3718 -10.1564 -10.1471  -9.8834
    -9.6687  -6.0373  -5.8465  -5.7061  -5.0489  -4.9077  -4.7959  -3.4403
    -3.3256  -3.2432  -1.3803  -1.2698  -1.1911  -0.8263  -0.7062  -0.6283
    -0.0056   0.0400   0.1278   0.1533   0.1817   0.2436   0.3059   0.6041
     0.8487   0.9289   0.9817   1.1419   1.1889   1.3860   1.4605   1.4991
     1.7276   2.2988   2.4097   2.9534   3.4847   5.7194   6.4442   7.1209
     7.3547   7.9894   8.5929  12.2392  12.7936  13.0498  13.1314  13.3603
    13.5875  13.7946

          k = 0.2180-0.2936 0.1072 (  5842 PWs)   bands (ev):

   -11.9032 -11.6085 -11.3685  -9.9053  -9.6382  -9.4296  -9.4148  -9.1565
    -8.9530  -6.6734  -6.4730  -6.3224  -5.4616  -5.2945  -5.1698  -2.9377
    -2.7749  -2.6643  -2.4729  -2.3168  -2.2070  -2.0032  -1.8646  -1.7784
    -0.9182   0.0547   0.1589   0.2187   0.2557   0.7915   0.8870   0.9346
     1.4601   1.5580   1.7189   1.7972   1.8400   2.0443   2.5414   2.6196
     2.6836   2.7133   3.1123   3.7298   4.2287   4.8651   5.6060   6.3229
     8.0199   8.6812   9.2235  10.7773  11.4688  11.4901  12.0644  12.1452
    12.2352  12.8641

          k = 0.2178-0.2935-0.1062 (  5850 PWs)   bands (ev):

   -11.9033 -11.6081 -11.3687  -9.9051  -9.6390  -9.4290  -9.4149  -9.1565
    -8.9529  -6.6734  -6.4730  -6.3224  -5.4619  -5.2936  -5.1704  -2.9378
    -2.7744  -2.6646  -2.4731  -2.3163  -2.2073  -2.0031  -1.8650  -1.7781
    -0.9166   0.0547   0.1585   0.2186   0.2517   0.7915   0.8870   0.9345
     1.4558   1.5614   1.7192   1.7965   1.8408   2.0447   2.5517   2.6200
     2.6834   2.7138   3.1095   3.7217   4.2312   4.8673   5.5983   6.3295
     8.0295   8.6578   9.2359  10.7914  11.4400  11.4704  12.0823  12.1639
    12.2445  12.8485

          k = 0.2180-0.1259 0.1071 (  5837 PWs)   bands (ev):

   -12.3260 -12.0253 -11.7791  -9.3321  -9.0730  -8.8710  -7.9066  -7.9044
    -7.6707  -7.6675  -7.4892  -7.4864  -5.0018  -4.9986  -4.8109  -4.8064
    -4.6741  -4.6705  -3.6472  -3.4712  -3.3455  -1.4351  -0.3848  -0.3783
    -0.2744  -0.2654  -0.2472  -0.2101  -0.2031   1.0355   1.0802   1.1222
     1.1602   2.1077   2.8012   2.8618   2.9123   3.1897   3.4570   3.4819
     3.5405   3.6468   3.6903   4.2640   4.5449   4.5695   5.4459   5.4524
     8.7548   8.7580   9.5314   9.5466  10.2451  10.2504  10.3151  11.0711
    11.6356  11.9165

          k = 0.2178-0.1258-0.1063 (  5840 PWs)   bands (ev):

   -12.3260 -12.0250 -11.7792  -9.3318  -9.0737  -8.8705  -7.9065  -7.9044
    -7.6710  -7.6675  -7.4890  -7.4864  -5.0021  -4.9988  -4.8104  -4.8056
    -4.6745  -4.6709  -3.6474  -3.4707  -3.3459  -1.4337  -0.3847  -0.3782
    -0.2747  -0.2659  -0.2507  -0.2099  -0.2029   1.0355   1.0828   1.1223
     1.1602   2.1024   2.8020   2.8632   2.9127   3.2011   3.4565   3.4833
     3.5402   3.6490   3.6928   4.2537   4.5382   4.5586   5.4517   5.4621
     8.7707   8.7803   9.4889   9.4960  10.2705  10.2748  10.3019  11.1094
    11.6309  11.8941

          k = 0.2179 0.0418 0.1070 (  5839 PWs)   bands (ev):

   -12.4109 -12.1090 -11.8615  -8.9305  -8.6774  -8.4809  -8.4494  -8.2035
    -8.0145  -7.1047  -6.8967  -6.7387  -5.8753  -5.6969  -5.5655  -4.6192
    -4.4320  -4.2961  -4.1691  -3.9842  -3.8546  -1.5391  -0.4725  -0.3602
    -0.3489  -0.2958   0.2886   0.3899   0.4394   0.7895   0.8776   0.9202
     0.9837   2.5459   3.0532   3.1289   3.1903   3.2208   3.5594   3.5904
     3.6367   3.6576   4.0474   4.2758   4.6153   5.0053   5.0269   5.7458
     8.2431   8.9574   9.2313   9.6459   9.7276   9.9904  10.5659  10.8143
    11.3339  11.5382

          k = 0.2177 0.0419-0.1064 (  5840 PWs)   bands (ev):

   -12.4110 -12.1087 -11.8617  -8.9304  -8.6779  -8.4806  -8.4491  -8.2043
    -8.0140  -7.1048  -6.8965  -6.7387  -5.8751  -5.6973  -5.5652  -4.6194
    -4.4314  -4.2965  -4.1693  -3.9836  -3.8550  -1.5380  -0.4723  -0.3608
    -0.3514  -0.2956   0.2886   0.3898   0.4394   0.7895   0.8775   0.9203
     0.9857   2.5463   3.0467   3.1300   3.1890   3.2216   3.5573   3.5901
     3.6369   3.6583   4.0635   4.2738   4.6180   5.0098   5.0173   5.7391
     8.2318   8.9836   9.2174   9.6327   9.7486  10.0249  10.5096  10.7968
    11.3638  11.5361

          k = 0.3631 0.2934 0.1071 (  5847 PWs)   bands (ev):

   -11.3996 -11.1120 -10.8991 -10.8785 -10.6171 -10.3925  -8.9318  -8.6796
    -8.4826  -7.5195  -7.2885  -7.1137  -4.0441  -3.8988  -3.7913  -2.7990
    -2.6680  -2.5754  -2.4897  -2.3720  -2.2940  -1.2829  -1.1795  -1.1122
    -0.8353  -0.7033  -0.6126  -0.3033   0.2677   0.2870   0.4128   0.4741
     0.8490   1.4293   1.7473   1.8240   1.8655   2.1242   2.1880   2.2559
     2.2980   2.6254   2.6781   3.6536   4.2007   4.7446   5.1145   6.0688
     8.6442   9.2845   9.9334  10.3439  10.9470  11.5606  12.7574  13.3072
    13.4715  14.0786

          k = 0.3629 0.2935-0.1063 (  5854 PWs)   bands (ev):

   -11.3997 -11.1117 -10.8990 -10.8786 -10.6176 -10.3922  -8.9320  -8.6790
    -8.4829  -7.5193  -7.2891  -7.1132  -4.0442  -3.8986  -3.7915  -2.7989
    -2.6683  -2.5753  -2.4896  -2.3722  -2.2939  -1.2827  -1.1801  -1.1118
    -0.8354  -0.7029  -0.6129  -0.3021   0.2649   0.2891   0.4114   0.4746
     0.8460   1.4335   1.7472   1.8241   1.8654   2.1264   2.1880   2.2556
     2.2981   2.6276   2.6752   3.6483   4.1971   4.7480   5.1244   6.0616
     8.6414   9.2907   9.9309  10.3393  10.9577  11.5558  12.7577  13.2647
    13.5132  14.0932

          k = 0.3631 0.4611 0.1070 (  5830 PWs)   bands (ev):

   -11.1487 -10.8642 -10.6505 -10.6346 -10.3720 -10.1526 -10.1498  -9.8821
    -9.6675  -6.0322  -5.8417  -5.7012  -5.0529  -4.9107  -4.7993  -3.4418
    -3.3274  -3.2445  -1.3834  -1.2720  -1.1936  -0.8306  -0.7097  -0.6322
    -0.0067   0.0417   0.1292   0.1529   0.1838   0.2434   0.3051   0.6026
     0.8532   0.9322   0.9868   1.1397   1.1919   1.3871   1.4624   1.5004
     1.7277   2.3001   2.4090   2.9521   3.4866   5.7244   6.4472   7.1211
     7.3515   7.9871   8.5928  12.2371  12.7910  13.0477  13.1331  13.3627
    13.5835  13.7958

          k = 0.3629 0.4612-0.1064 (  5829 PWs)   bands (ev):

   -11.1485 -10.8647 -10.6504 -10.6344 -10.3718 -10.1525 -10.1502  -9.8815
    -9.6679  -6.0320  -5.8421  -5.7010  -5.0530  -4.9105  -4.7994  -3.4420
    -3.3268  -3.2449  -1.3833  -1.2722  -1.1935  -0.8304  -0.7102  -0.6318
    -0.0093   0.0423   0.1285   0.1531   0.1840   0.2433   0.3051   0.6034
     0.8534   0.9324   0.9870   1.1434   1.1959   1.3872   1.4627   1.5002
     1.7258   2.2933   2.4046   2.9532   3.4916   5.7237   6.4449   7.1307
     7.3518   7.9757   8.5973  12.2396  12.7779  13.0585  13.1450  13.3478
    13.6479  13.7351

          k = 0.3631 0.6288 0.1070 (  5841 PWs)   bands (ev):

   -11.0667 -11.0618 -10.7836 -10.7786 -10.5561 -10.5514  -9.5809  -9.3189
    -9.1129  -6.7783  -6.5619  -6.3989  -4.4621  -4.3303  -4.2262  -3.1121
    -3.0177  -2.9427  -2.0073  -1.9015  -1.8222  -0.7004  -0.6221  -0.5629
    -0.2773  -0.2751  -0.1724  -0.1623  -0.0852  -0.0762   0.1071   0.1188
     1.2343   1.2435   1.5912   1.5972   1.6534   1.6853   1.7139   1.7254
     1.8872   2.4843   2.5110   2.9397   4.0900   4.9958   5.8485   6.7097
     7.9066   8.5572   9.2032  11.3190  11.8874  12.4457  13.1425  13.1872
    13.9219  13.9574

          k = 0.3628 0.6289-0.1065 (  5841 PWs)   bands (ev):

   -11.0666 -11.0618 -10.7837 -10.7786 -10.5560 -10.5515  -9.5810  -9.3187
    -9.1130  -6.7783  -6.5620  -6.3988  -4.4622  -4.3302  -4.2262  -3.1121
    -3.0177  -2.9427  -2.0073  -1.9015  -1.8222  -0.7004  -0.6220  -0.5630
    -0.2774  -0.2750  -0.1725  -0.1623  -0.0852  -0.0762   0.1068   0.1188
     1.2353   1.2431   1.5912   1.5971   1.6534   1.6855   1.7139   1.7253
     1.8877   2.4840   2.5109   2.9381   4.0911   4.9951   5.8502   6.7085
     7.9067   8.5569   9.2034  11.3191  11.8865  12.4469  13.1434  13.1871
    13.9223  13.9564

          k = 0.3632-0.2098 0.1074 (  5848 PWs)   bands (ev):

   -11.6505 -11.3596 -11.1232 -10.6475 -10.3699 -10.1490  -8.2199  -8.2190
    -7.9787  -7.9762  -7.7922  -7.7905  -3.7060  -3.7024  -3.5468  -3.5416
    -3.4355  -3.4314  -1.6692  -1.6647  -1.5476  -1.5413  -1.4686  -1.4634
    -1.4040  -1.2636  -1.1631  -0.6094   0.5508   0.5863   0.8400   0.9527
     1.0153   1.6741   1.7195   1.7554   1.7919   1.8444   2.5389   2.6088
     2.6439   2.9476   3.4148   3.4214   4.3850   4.4035   5.4081   5.4173
     9.3817   9.3838  10.0396  10.0453  10.6604  10.6623  12.4500  12.8096
    13.3524  13.8305

          k = 0.3630-0.2097-0.1061 (  5857 PWs)   bands (ev):

   -11.6507 -11.3591 -11.1235 -10.6473 -10.3705 -10.1486  -8.2198  -8.2191
    -7.9789  -7.9762  -7.7921  -7.7905  -3.7063  -3.7026  -3.5462  -3.5408
    -3.4360  -3.4319  -1.6691  -1.6646  -1.5477  -1.5418  -1.4685  -1.4632
    -1.4042  -1.2631  -1.1633  -0.6072   0.5448   0.5824   0.8401   0.9528
     1.0159   1.6741   1.7283   1.7554   1.7919   1.8486   2.5389   2.6089
     2.6438   2.9411   3.4152   3.4225   4.3831   4.3999   5.4099   5.4206
     9.3883   9.3955  10.0171  10.0246  10.6680  10.6760  12.4382  12.8052
    13.4563  13.7185

          k = 0.3632-0.0420 0.1073 (  5844 PWs)   bands (ev):

   -11.9035 -11.6089 -11.3689  -9.9045  -9.6374  -9.4274  -9.4173  -9.1574
    -8.9541  -6.6705  -6.4703  -6.3194  -5.4604  -5.2928  -5.1683  -2.9420
    -2.7792  -2.6684  -2.4748  -2.3185  -2.2088  -2.0080  -1.8693  -1.7832
    -0.9189   0.0609   0.1648   0.2247   0.2556   0.7929   0.8881   0.9359
     1.4610   1.5572   1.7199   1.7978   1.8408   2.0437   2.5422   2.6194
     2.6825   2.7137   3.1078   3.7304   4.2285   4.8696   5.6091   6.3234
     8.0200   8.6816   9.2226  10.7744  11.4680  11.4893  12.0644  12.1429
    12.2341  12.8639

          k = 0.3630-0.0420-0.1061 (  5851 PWs)   bands (ev):

   -11.9037 -11.6085 -11.3691  -9.9042  -9.6381  -9.4269  -9.4172  -9.1577
    -8.9539  -6.6706  -6.4701  -6.3196  -5.4607  -5.2920  -5.1688  -2.9423
    -2.7785  -2.6688  -2.4750  -2.3180  -2.2091  -2.0078  -1.8698  -1.7829
    -0.9170   0.0609   0.1645   0.2245   0.2509   0.7929   0.8881   0.9359
     1.4569   1.5612   1.7201   1.7974   1.8413   2.0429   2.5519   2.6198
     2.6823   2.7143   3.1081   3.7228   4.2288   4.8727   5.5993   6.3314
     8.0288   8.6596   9.2345  10.7892  11.4420  11.4656  12.0795  12.1619
    12.2448  12.8488

          k = 0.3631 0.1257 0.1072 (  5851 PWs)   bands (ev):

   -11.8195 -11.5260 -11.2873 -10.3177 -10.0447  -9.8285  -8.8509  -8.5990
    -8.4041  -7.4441  -7.2159  -7.0414  -4.6368  -4.4579  -4.3316  -3.3474
    -3.1859  -3.0715  -1.9642  -1.8989  -1.8113  -1.7638  -1.7082  -1.6804
    -0.8172  -0.7904  -0.6709  -0.6023   0.3527   0.9766   1.3440   1.3597
     1.4409   1.4433   1.4836   1.4996   1.6575   2.0969   2.6509   2.6646
     2.7523   2.7825   3.2951   3.7170   4.2261   4.8006   5.1128   6.0114
     8.5347   9.1827   9.8602  10.0918  10.7484  11.4237  12.1253  12.2607
    12.8686  13.4779

          k = 0.3629 0.1258-0.1062 (  5851 PWs)   bands (ev):

   -11.8196 -11.5257 -11.2875 -10.3175 -10.0451  -9.8282  -8.8506  -8.5997
    -8.4037  -7.4443  -7.2154  -7.0417  -4.6367  -4.4581  -4.3315  -3.3476
    -3.1854  -3.0718  -1.9644  -1.8987  -1.8107  -1.7644  -1.7086  -1.6801
    -0.8155  -0.7906  -0.6709  -0.6022   0.3488   0.9758   1.3440   1.3597
     1.4403   1.4431   1.4836   1.4993   1.6610   2.0993   2.6483   2.6640
     2.7521   2.7818   3.2937   3.7282   4.2259   4.7923   5.1157   6.0075
     8.5228   9.2101   9.8470  10.0842  10.7670  11.4154  12.1399  12.2571
    12.7998  13.5176

     the Fermi energy is     7.2393 ev

!    total energy              =    -287.15029323 Ry
     estimated scf accuracy    <       0.00000071 Ry
     smearing contrib. (-TS)   =      -0.00062306 Ry
     internal energy E=F+TS    =    -287.14967017 Ry

     The total energy is F=E-TS. E is the sum of the following terms:
     one-electron contribution =    -106.33154422 Ry
     hartree contribution      =     102.71605018 Ry
     xc contribution           =    -100.09385147 Ry
     ewald contribution        =    -183.44032466 Ry

     convergence has been achieved in  35 iterations

     Forces acting on atoms (cartesian axes, Ry/au):

     atom    1 type  1   force =     0.00271309   -0.00104393    0.00039136
     atom    2 type  1   force =    -0.00482037   -0.00212140    0.01246000
     atom    3 type  1   force =    -0.00208238    0.00063669   -0.01264758
     atom    4 type  1   force =    -0.00213887    0.00135558    0.00044648
     atom    5 type  1   force =     0.00252695    0.00068056    0.00000047
     atom    6 type  1   force =    -0.00033898    0.00075866    0.00102940
     atom    7 type  1   force =     0.00179961   -0.00104219    0.00042609
     atom    8 type  1   force =     0.00254790    0.00119924    0.00786689
     atom    9 type  1   force =    -0.00306357    0.00250752   -0.01021485
     atom   10 type  1   force =    -0.00171241    0.00140830    0.00036990
     atom   11 type  1   force =    -0.00189151   -0.00291776    0.00769131
     atom   12 type  1   force =     0.00332292   -0.00055385    0.00138170
     atom   13 type  1   force =     0.00203012   -0.00141821    0.00025892
     atom   14 type  1   force =    -0.00254981   -0.00086851    0.00083936
     atom   15 type  1   force =    -0.00178360    0.00073062    0.00417590
     atom   16 type  1   force =    -0.00196012    0.00102875    0.00044828
     atom   17 type  1   force =     0.00451085    0.00235018    0.01059597
     atom   18 type  1   force =     0.00262909   -0.00313667    0.00118649
     atom   19 type  1   force =     0.00226662   -0.00193264    0.00039650
     atom   20 type  1   force =     0.00191330    0.00297027    0.00896110
     atom   21 type  1   force =    -0.00094548    0.00027890   -0.01165051
     atom   22 type  1   force =    -0.00208976    0.00125958    0.00019345
     atom   23 type  1   force =    -0.00318039   -0.00080793    0.00851404
     atom   24 type  1   force =     0.00229680   -0.00132175   -0.03312067
     The non-local contrib.  to forces
     atom    1 type  1   force =     0.00146223    0.00000658    0.00519244
     atom    2 type  1   force =    -0.00489106   -0.00303832    0.01043663
     atom    3 type  1   force =    -0.00245015   -0.00108452   -0.01016465
     atom    4 type  1   force =    -0.00056618    0.00085452    0.00309016
     atom    5 type  1   force =     0.00174526    0.00088251    0.00039381
     atom    6 type  1   force =    -0.00115570    0.00170151   -0.00739564
     atom    7 type  1   force =    -0.00083902   -0.00001838    0.00512147
     atom    8 type  1   force =     0.00425509    0.00128762    0.00790301
     atom    9 type  1   force =    -0.00161232    0.00134406   -0.00923149
     atom   10 type  1   force =     0.00043355    0.00098851    0.00302298
     atom   11 type  1   force =    -0.00341698   -0.00349512    0.00789231
     atom   12 type  1   force =     0.00201223    0.00009626   -0.00814896
     atom   13 type  1   force =    -0.00001071   -0.00075960    0.00255961
     atom   14 type  1   force =    -0.00149915   -0.00122077    0.00178676
     atom   15 type  1   force =    -0.00057676   -0.00023063   -0.01471382
     atom   16 type  1   force =    -0.00016562    0.00016152    0.00306514
     atom   17 type  1   force =     0.00489182    0.00332595    0.01089173
     atom   18 type  1   force =     0.00181269   -0.00178435   -0.00784466
     atom   19 type  1   force =     0.00030712   -0.00206596    0.00515109
     atom   20 type  1   force =     0.00368031    0.00321316    0.00796605
     atom   21 type  1   force =     0.00007542    0.00037168   -0.00976696
     atom   22 type  1   force =    -0.00026552    0.00071288    0.00458735
     atom   23 type  1   force =    -0.00516581   -0.00075397    0.00806237
     atom   24 type  1   force =     0.00182782   -0.00043989   -0.01854741
     The ionic contribution  to forces
     atom    1 type  1   force =     0.01087103    0.00677984   -0.82303847
     atom    2 type  1   force =    -0.01664703   -0.01577465    4.74470801
     atom    3 type  1   force =    -0.01412111   -0.00498202   -3.90701184
     atom    4 type  1   force =    -0.00459894    0.00570219   -0.87496357
     atom    5 type  1   force =     0.01923147    0.00618257    4.97447113
     atom    6 type  1   force =    -0.00775007    0.00707426   -4.13796457
     atom    7 type  1   force =    -0.01599912    0.00794935   -0.82246830
     atom    8 type  1   force =     0.03377422    0.00011232    4.82295875
     atom    9 type  1   force =    -0.00429770    0.00150740   -3.95201293
     atom   10 type  1   force =     0.00757141    0.00435934   -0.87137254
     atom   11 type  1   force =    -0.01249392   -0.02700734    4.84043965
     atom   12 type  1   force =     0.00007267    0.00262264   -4.14510549
     atom   13 type  1   force =    -0.00470672   -0.00271017   -0.86880249
     atom   14 type  1   force =    -0.00868343   -0.01119621    4.93367136
     atom   15 type  1   force =    -0.00577154   -0.00060318   -4.20296136
     atom   16 type  1   force =     0.00270987   -0.00407542   -0.87578397
     atom   17 type  1   force =     0.02699942    0.01311585    4.78978332
     atom   18 type  1   force =     0.00002300   -0.00159203   -4.14209795
     atom   19 type  1   force =    -0.00148069   -0.01816052   -0.82214873
     atom   20 type  1   force =     0.02333337    0.02147860    4.80464963
     atom   21 type  1   force =    -0.00361208    0.00632487   -3.92500669
     atom   22 type  1   force =    -0.00075762    0.00284225   -0.81320300
     atom   23 type  1   force =    -0.02760868   -0.00212325    4.82586902
     atom   24 type  1   force =     0.00394219    0.00217332   -3.55260898
     The local contribution  to forces
     atom    1 type  1   force =    -0.00961437   -0.00782880    0.81878927
     atom    2 type  1   force =     0.01659205    0.01658803   -4.74291110
     atom    3 type  1   force =     0.01439861    0.00664353    3.90452961
     atom    4 type  1   force =     0.00305228   -0.00519017    0.87263097
     atom    5 type  1   force =    -0.01837701   -0.00634073   -4.97439548
     atom    6 type  1   force =     0.00853287   -0.00796108    4.14567653
     atom    7 type  1   force =     0.01858394   -0.00896931    0.81832172
     atom    8 type  1   force =    -0.03529952   -0.00017691   -4.82299570
     atom    9 type  1   force =     0.00282147   -0.00032948    3.95088663
     atom   10 type  1   force =    -0.00968443   -0.00391651    0.86903916
     atom   11 type  1   force =     0.01388634    0.02745059   -4.84049693
     atom   12 type  1   force =     0.00126543   -0.00327048    4.15388564
     atom   13 type  1   force =     0.00670673    0.00203667    0.86693410
     atom   14 type  1   force =     0.00757274    0.01149359   -4.93429890
     atom   15 type  1   force =     0.00456108    0.00153876    4.22082501
     atom   16 type  1   force =    -0.00448373    0.00495607    0.87347770
     atom   17 type  1   force =    -0.02725334   -0.01398725   -4.79005523
     atom   18 type  1   force =     0.00083765    0.00022526    4.15039405
     atom   19 type  1   force =     0.00341877    0.01824106    0.81794428
     atom   20 type  1   force =    -0.02495325   -0.02158756   -4.80371580
     atom   21 type  1   force =     0.00259804   -0.00639722    3.92306869
     atom   22 type  1   force =    -0.00104112   -0.00227497    0.80925109
     atom   23 type  1   force =     0.02938558    0.00205709   -4.82531785
     atom   24 type  1   force =    -0.00340321   -0.00304518    3.53909876
     The core correction contribution to forces
     atom    1 type  1   force =    -0.00000615   -0.00000296   -0.00019914
     atom    2 type  1   force =     0.00013737    0.00010038    0.00011732
     atom    3 type  1   force =     0.00009423    0.00006436   -0.00000528
     atom    4 type  1   force =    -0.00002300   -0.00001448    0.00004062
     atom    5 type  1   force =    -0.00007751   -0.00004822   -0.00058329
     atom    6 type  1   force =     0.00003592   -0.00006014    0.00069784
     atom    7 type  1   force =     0.00005131   -0.00000068   -0.00019467
     atom    8 type  1   force =    -0.00019048   -0.00002922   -0.00010769
     atom    9 type  1   force =     0.00002389   -0.00000932    0.00013272
     atom   10 type  1   force =    -0.00003386   -0.00002130    0.00003309
     atom   11 type  1   force =     0.00013430    0.00014261   -0.00024927
     atom   12 type  1   force =    -0.00003070   -0.00000456    0.00073110
     atom   13 type  1   force =     0.00003397    0.00001821   -0.00008567
     atom   14 type  1   force =     0.00006341    0.00006099   -0.00042528
     atom   15 type  1   force =     0.00000126    0.00002336    0.00101000
     atom   16 type  1   force =    -0.00002314   -0.00001256    0.00004083
     atom   17 type  1   force =    -0.00013703   -0.00010495   -0.00012707
     atom   18 type  1   force =    -0.00004539    0.00001944    0.00071656
     atom   19 type  1   force =     0.00002381    0.00005037   -0.00019698
     atom   20 type  1   force =    -0.00014939   -0.00013661   -0.00004725
     atom   21 type  1   force =    -0.00000464   -0.00002788    0.00004948
     atom   22 type  1   force =    -0.00002125   -0.00001775   -0.00008392
     atom   23 type  1   force =     0.00021723    0.00001606   -0.00020709
     atom   24 type  1   force =    -0.00007166   -0.00000631   -0.00104820
     The Hubbard contrib.    to forces
     atom    1 type  1   force =     0.00000000    0.00000000    0.00000000
     atom    2 type  1   force =     0.00000000    0.00000000    0.00000000
     atom    3 type  1   force =     0.00000000    0.00000000    0.00000000
     atom    4 type  1   force =     0.00000000    0.00000000    0.00000000
     atom    5 type  1   force =     0.00000000    0.00000000    0.00000000
     atom    6 type  1   force =     0.00000000    0.00000000    0.00000000
     atom    7 type  1   force =     0.00000000    0.00000000    0.00000000
     atom    8 type  1   force =     0.00000000    0.00000000    0.00000000
     atom    9 type  1   force =     0.00000000    0.00000000    0.00000000
     atom   10 type  1   force =     0.00000000    0.00000000    0.00000000
     atom   11 type  1   force =     0.00000000    0.00000000    0.00000000
     atom   12 type  1   force =     0.00000000    0.00000000    0.00000000
     atom   13 type  1   force =     0.00000000    0.00000000    0.00000000
     atom   14 type  1   force =     0.00000000    0.00000000    0.00000000
     atom   15 type  1   force =     0.00000000    0.00000000    0.00000000
     atom   16 type  1   force =     0.00000000    0.00000000    0.00000000
     atom   17 type  1   force =     0.00000000    0.00000000    0.00000000
     atom   18 type  1   force =     0.00000000    0.00000000    0.00000000
     atom   19 type  1   force =     0.00000000    0.00000000    0.00000000
     atom   20 type  1   force =     0.00000000    0.00000000    0.00000000
     atom   21 type  1   force =     0.00000000    0.00000000    0.00000000
     atom   22 type  1   force =     0.00000000    0.00000000    0.00000000
     atom   23 type  1   force =     0.00000000    0.00000000    0.00000000
     atom   24 type  1   force =     0.00000000    0.00000000    0.00000000
     The SCF correction term to forces
     atom    1 type  1   force =     0.00000016    0.00000170   -0.00033387
     atom    2 type  1   force =    -0.00001188    0.00000346    0.00012801
     atom    3 type  1   force =    -0.00000414   -0.00000437    0.00002345
     atom    4 type  1   force =    -0.00000320    0.00000381   -0.00033283
     atom    5 type  1   force =     0.00000457    0.00000472    0.00013317
     atom    6 type  1   force =    -0.00000217    0.00000440    0.00003411
     atom    7 type  1   force =     0.00000231   -0.00000288   -0.00033526
     atom    8 type  1   force =     0.00000842    0.00000573    0.00012737
     atom    9 type  1   force =     0.00000092   -0.00000485    0.00002908
     atom   10 type  1   force =     0.00000073   -0.00000144   -0.00033392
     atom   11 type  1   force =    -0.00000142   -0.00000821    0.00012442
     atom   12 type  1   force =     0.00000312    0.00000260    0.00003827
     atom   13 type  1   force =     0.00000667   -0.00000302   -0.00032775
     atom   14 type  1   force =    -0.00000356   -0.00000582    0.00012427
     atom   15 type  1   force =     0.00000219    0.00000260    0.00003493
     atom   16 type  1   force =     0.00000232   -0.00000056   -0.00033256
     atom   17 type  1   force =     0.00000980    0.00000088    0.00012209
     atom   18 type  1   force =     0.00000097   -0.00000468    0.00003735
     atom   19 type  1   force =    -0.00000256    0.00000271   -0.00033430
     atom   20 type  1   force =     0.00000208    0.00000297    0.00012733
     atom   21 type  1   force =    -0.00000239    0.00000774    0.00002383
     atom   22 type  1   force =    -0.00000443   -0.00000254   -0.00033921
     atom   23 type  1   force =    -0.00000889   -0.00000356    0.00012646
     atom   24 type  1   force =     0.00000148   -0.00000340    0.00000403

     Total force =     0.047790     Total SCF correction =     0.001014


     Computing stress (Cartesian axis) and pressure

          total   stress  (Ry/bohr**3)                   (kbar)     P=       74.48
   0.00056255  -0.00000312  -0.00000394           82.75       -0.46       -0.58
  -0.00000312   0.00058137   0.00000237           -0.46       85.52        0.35
  -0.00000394   0.00000237   0.00037509           -0.58        0.35       55.18


     Writing all to output data dir ../../results/server/1h2_abs_strain/1H2abs_C_strain.save/
 
     init_run     :      1.92s CPU      2.09s WALL (       1 calls)
     electrons    :    103.22s CPU    110.28s WALL (       1 calls)
     forces       :      0.82s CPU      0.99s WALL (       1 calls)
     stress       :     16.56s CPU     16.76s WALL (       1 calls)

     Called by init_run:
     wfcinit      :      1.43s CPU      1.51s WALL (       1 calls)
     potinit      :      0.14s CPU      0.18s WALL (       1 calls)
     hinit0       :      0.28s CPU      0.31s WALL (       1 calls)

     Called by electrons:
     c_bands      :     88.13s CPU     93.08s WALL (      35 calls)
     sum_band     :     14.05s CPU     15.22s WALL (      35 calls)
     v_of_rho     :      0.11s CPU      0.22s WALL (      36 calls)
     newd         :      0.52s CPU      0.82s WALL (      36 calls)
     mix_rho      :      0.36s CPU      0.68s WALL (      35 calls)

     Called by c_bands:
     init_us_2    :      1.41s CPU      1.59s WALL (    2628 calls)
     init_us_2:cp :      1.40s CPU      1.58s WALL (    2628 calls)
     cegterg      :     82.70s CPU     86.60s WALL (    1260 calls)

     Called by *egterg:
     cdiaghg      :     14.90s CPU     16.18s WALL (    4479 calls)
     h_psi        :     51.32s CPU     53.28s WALL (    4515 calls)
     s_psi        :      4.51s CPU      4.60s WALL (    4515 calls)
     g_psi        :      0.34s CPU      0.35s WALL (    3219 calls)

     Called by h_psi:
     h_psi:calbec :      4.83s CPU      5.18s WALL (    4515 calls)
     vloc_psi     :     41.30s CPU     42.76s WALL (    4515 calls)
     add_vuspsi   :      4.79s CPU      4.89s WALL (    4515 calls)

     General routines
     calbec       :      6.86s CPU      7.37s WALL (    5955 calls)
     fft          :      0.16s CPU      0.30s WALL (     222 calls)
     ffts         :      0.13s CPU      0.21s WALL (     839 calls)
     fftw         :     36.04s CPU     37.40s WALL (  439728 calls)
     interpolate  :      0.03s CPU      0.09s WALL (      36 calls)
 
     Parallel routines
 
     PWSCF        :   2m 2.67s CPU   2m10.87s WALL

 
   This run was terminated on:   0:12:41   8Sep2024            

=------------------------------------------------------------------------------=
   JOB DONE.
=------------------------------------------------------------------------------=
