ITEM: TIMESTEP
150000
ITEM: NUMBER OF ATOMS
422
ITEM: BOX BOUNDS pp pp pp
-3.0000000000000000e+01 3.0000000000000000e+01
-3.0000000000000000e+01 3.0000000000000000e+01
-1.5000000000000000e+01 1.5000000000000000e+01
ITEM: ATOMS id type xs ys zs
40 1 0.326908 0.301905 0.492667
35 1 0.306885 0.313783 0.491494
50 1 0.367689 0.301811 0.495465
45 1 0.347094 0.312895 0.488889
60 1 0.409387 0.302026 0.499555
55 1 0.388493 0.313015 0.502721
65 1 0.429169 0.313474 0.503604
70 1 0.449194 0.302045 0.494541
76 1 0.489507 0.299846 0.498672
74 1 0.469891 0.312225 0.491407
10393 2 0.36575 0.0352784 0.621841
10327 2 0.462898 0.145995 0.792124
8826 2 0.39035 0.243472 0.509058
10502 2 0.1585 0.0676876 0.376555
10378 2 0.0743842 0.0197374 0.691763
10401 2 0.057025 0.196546 0.251055
10180 2 0.290588 0.181587 0.570943
10439 2 0.410665 0.216722 0.270977
10449 2 0.10601 0.0914756 0.204091
10485 2 0.336016 0.19776 0.367987
10473 2 0.195521 0.318506 0.670559
10443 2 0.122617 0.275714 0.924072
10016 2 0.0973155 0.0161202 0.946883
4616 2 0.443907 0.317744 0.602251
10025 2 0.144372 0.193114 0.401643
10500 2 0.0837735 0.0493827 0.53418
10387 2 0.345247 0.138314 0.702933
10057 2 0.461549 0.0429659 0.436354
10177 2 0.21219 0.294329 0.394004
10480 2 0.308308 0.32489 0.29456
10504 2 0.291502 0.0603919 0.0785393
10410 2 0.470762 0.276197 0.0545395
10427 2 0.260037 0.325328 0.794487
10429 2 0.229781 0.0925194 0.687768
10430 2 0.0349547 0.127507 0.0623526
10028 2 0.351348 0.00547558 0.890656
10149 2 0.499229 0.0965811 0.078808
10196 2 0.344029 0.397971 0.802958
36 1 0.327891 0.348051 0.488297
41 1 0.346921 0.335586 0.496412
46 1 0.367197 0.347235 0.498329
54 1 0.38783 0.336115 0.493654
59 1 0.40818 0.347058 0.499381
64 1 0.429019 0.336249 0.495273
37 1 0.327183 0.371206 0.499068
32 1 0.306824 0.383734 0.494654
33 1 0.308231 0.406951 0.498714
38 1 0.327632 0.417697 0.505729
47 1 0.368289 0.370741 0.496241
42 1 0.348179 0.382678 0.502423
43 1 0.348183 0.406049 0.498853
48 1 0.368544 0.417018 0.502517
58 1 0.4092 0.370431 0.495559
52 1 0.389341 0.382133 0.501242
53 1 0.389012 0.405514 0.496897
56 1 0.408772 0.41754 0.504736
61 1 0.429534 0.381752 0.503148
63 1 0.428911 0.405613 0.496022
66 1 0.449726 0.348163 0.498545
72 1 0.469799 0.335678 0.498991
77 1 0.490646 0.346942 0.495207
69 1 0.449918 0.371054 0.495714
67 1 0.44947 0.416995 0.502815
78 1 0.490727 0.370796 0.494068
71 1 0.470226 0.382717 0.501426
73 1 0.469657 0.40615 0.49773
79 1 0.490116 0.417927 0.501253
39 1 0.326105 0.441243 0.499833
34 1 0.306384 0.455076 0.505841
139 1 0.306501 0.477826 0.503859
145 1 0.326704 0.488148 0.495215
49 1 0.367232 0.440227 0.497067
44 1 0.347229 0.452681 0.502702
152 1 0.347214 0.476237 0.497376
160 1 0.367997 0.487707 0.50276
57 1 0.407815 0.440882 0.496946
51 1 0.3873 0.452532 0.499703
163 1 0.387631 0.476177 0.492965
172 1 0.407921 0.48721 0.499836
62 1 0.428566 0.453526 0.503301
179 1 0.428425 0.476638 0.496421
144 1 0.327214 0.511211 0.502005
138 1 0.306978 0.522776 0.496911
137 1 0.307213 0.546265 0.50013
146 1 0.327278 0.55791 0.492736
159 1 0.367595 0.510651 0.495889
153 1 0.347722 0.522853 0.502845
151 1 0.347076 0.546199 0.492266
158 1 0.366787 0.557839 0.501287
171 1 0.408346 0.510609 0.493338
164 1 0.388078 0.52229 0.498276
162 1 0.387476 0.546208 0.492829
170 1 0.408352 0.557938 0.494582
180 1 0.42832 0.522496 0.494964
177 1 0.42816 0.5459 0.501091
68 1 0.449285 0.44082 0.498628
187 1 0.448168 0.488451 0.503631
80 1 0.490372 0.441509 0.494638
75 1 0.469321 0.453179 0.502317
195 1 0.468532 0.4774 0.495524
202 1 0.48961 0.488535 0.503733
186 1 0.448723 0.511542 0.507087
185 1 0.449172 0.557932 0.504142
203 1 0.491236 0.512035 0.504575
196 1 0.469977 0.52293 0.499742
194 1 0.469302 0.546441 0.506396
201 1 0.489345 0.558411 0.500016
143 1 0.327719 0.581706 0.499519
136 1 0.308333 0.594833 0.497803
135 1 0.30765 0.617666 0.49529
142 1 0.327976 0.628497 0.498857
157 1 0.367387 0.581082 0.492845
150 1 0.347987 0.592985 0.496666
149 1 0.347764 0.61668 0.491945
156 1 0.367818 0.628474 0.494077
169 1 0.408796 0.581254 0.498002
166 1 0.388028 0.592852 0.492668
165 1 0.387653 0.616444 0.49947
173 1 0.408127 0.628158 0.497655
178 1 0.429323 0.593236 0.494362
176 1 0.428041 0.616458 0.503732
141 1 0.327278 0.651817 0.490967
10112 2 0.0184422 0.520006 0.272167
155 1 0.367153 0.651371 0.501818
148 1 0.347565 0.663836 0.493529
174 1 0.407378 0.65194 0.503973
167 1 0.387039 0.662969 0.494813
181 1 0.428031 0.663366 0.496055
184 1 0.449847 0.581965 0.50475
188 1 0.448319 0.62875 0.498637
200 1 0.490281 0.581904 0.506344
192 1 0.470028 0.594044 0.499801
190 1 0.46938 0.617738 0.50412
199 1 0.489862 0.629229 0.498769
183 1 0.448392 0.652055 0.507672
198 1 0.489006 0.652865 0.506691
191 1 0.468495 0.663735 0.501218
277 2 0.391512 0.62909 0.379331
8257 2 0.437505 0.389553 0.607263
6998 2 0.495655 0.488741 0.397611
9765 2 0.313844 0.632573 0.765405
134 1 0.308092 0.664997 0.498343
9491 2 0.26834 0.491508 0.450328
5925 2 0.489619 0.563514 0.618183
7996 2 0.420085 0.648727 0.609562
9 2 0.445999 0.395397 0.368736
3659 2 0.473658 0.483289 0.604836
10315 2 0.0202714 0.567003 0.0275694
9067 2 0.308698 0.585046 0.397422
10496 2 0.106109 0.512524 0.707651
10469 2 0.35582 0.51231 0.20797
9928 2 0.10145 0.607753 0.0913594
10508 2 0.0985238 0.533576 0.915769
31 1 0.307391 0.337516 0.492376
1896 2 0.392821 0.535351 0.601902
10499 2 0.208599 0.533509 0.753275
10321 2 0.381704 0.423663 0.107179
10484 2 0.130134 0.597592 0.691608
9142 2 0.442826 0.554489 0.400317
10345 2 0.115443 0.379926 0.444347
10268 2 0.462056 0.491346 0.211635
7922 2 0.360478 0.514209 0.384423
10389 2 0.018572 0.352652 0.962971
10117 2 0.0733328 0.417457 0.256019
10097 2 0.254284 0.378593 0.540991
10452 2 0.207052 0.641258 0.706141
10272 2 0.274707 0.489195 0.924111
10369 2 0.409276 0.354444 0.889246
10273 2 0.0272409 0.338421 0.334865
10424 2 0.269112 0.492055 0.254174
10520 2 0.278496 0.59118 0.228315
140 1 0.308986 0.688198 0.496992
147 1 0.328861 0.70008 0.494683
154 1 0.347665 0.686678 0.500447
161 1 0.367586 0.697688 0.499205
168 1 0.387681 0.686372 0.504178
175 1 0.407829 0.697871 0.49734
182 1 0.427638 0.686505 0.490527
189 1 0.447111 0.699032 0.501387
193 1 0.467551 0.686978 0.508717
197 1 0.487701 0.698746 0.503112
10396 2 0.0606368 0.75741 0.382749
5598 2 0.480627 0.670481 0.393378
10152 2 0.159551 0.881875 0.217199
10517 2 0.399147 0.790558 0.69072
10434 2 0.228255 0.756298 0.671607
10435 2 0.407463 0.742592 0.0100241
10498 2 0.404072 0.682371 0.236567
10440 2 0.00253213 0.850039 0.0199484
10250 2 0.197648 0.990506 0.321637
10224 2 0.20722 0.726755 0.355041
10501 2 0.286048 0.910382 0.126266
10324 2 0.088959 0.939486 0.814542
10297 2 0.471961 0.751254 0.792766
10463 2 0.0663173 0.8675 0.161194
9683 2 0.435802 0.742251 0.433152
10366 2 0.315546 0.670682 0.259469
10489 2 0.413677 0.807573 0.146074
10350 2 0.487862 0.985674 0.911258
10414 2 0.3849 0.869707 0.255985
10417 2 0.259536 0.676507 0.00499047
10329 2 0.475799 0.859031 0.57373
10323 2 0.345028 0.780906 0.271605
10459 2 0.183769 0.853511 0.982927
10412 2 0.370784 0.882798 0.848515
10400 2 0.46914 0.902145 0.832134
10516 2 0.0326866 0.810797 0.658317
10521 2 0.0235781 0.844992 0.511973
90 1 0.530285 0.301118 0.500627
85 1 0.509614 0.312207 0.504382
95 1 0.550633 0.312966 0.502877
96 1 0.571841 0.30184 0.499529
110 1 0.612107 0.301472 0.50071
105 1 0.591822 0.312993 0.507607
116 1 0.65213 0.301205 0.498056
111 1 0.632527 0.312731 0.507047
126 1 0.691222 0.300972 0.472487
123 1 0.672611 0.312698 0.492194
10466 2 0.633781 0.323092 0.24994
10397 2 0.564427 0.28997 0.624047
10433 2 0.606344 0.023249 0.410534
8974 2 0.618888 0.258816 0.432505
10314 2 0.553741 0.0773009 0.231539
10420 2 0.919966 0.0164446 0.0752259
10456 2 0.836359 0.182988 0.800233
10008 2 0.548838 0.317001 0.889246
10358 2 0.925202 0.0533455 0.302018
10423 2 0.945009 0.257006 0.48928
10518 2 0.869257 0.232175 0.187813
10375 2 0.913284 0.246908 0.895199
10515 2 0.783485 0.147142 0.0975638
10346 2 0.96478 0.0310319 0.819396
10437 2 0.875543 0.224114 0.379175
10475 2 0.98122 0.0181915 0.533566
10278 2 0.851568 0.10065 0.23108
10495 2 0.548162 0.226841 0.98719
10479 2 0.978466 0.299682 0.783036
10497 2 0.944733 0.234451 0.236499
10471 2 0.687798 0.315758 0.832435
10478 2 0.533747 0.240619 0.364092
10488 2 0.795751 0.0345826 0.20603
10490 2 0.978416 0.188033 0.905673
10492 2 0.718117 0.218891 0.469233
10494 2 0.776546 0.275515 0.406095
10505 2 0.533857 0.0872761 0.890611
10507 2 0.541381 0.145893 0.500602
10513 2 0.778889 0.163338 0.292194
10514 2 0.635075 0.0643558 0.60703
84 1 0.510488 0.335458 0.502762
89 1 0.530283 0.347435 0.494442
94 1 0.550676 0.336131 0.494946
88 1 0.530998 0.371157 0.494241
83 1 0.51055 0.38314 0.500884
82 1 0.511042 0.406833 0.495741
87 1 0.531094 0.418731 0.505727
93 1 0.551231 0.383041 0.500327
92 1 0.551293 0.406209 0.499772
100 1 0.571019 0.347924 0.501033
101 1 0.591959 0.336435 0.49872
107 1 0.61268 0.347521 0.50579
115 1 0.631716 0.335541 0.498415
120 1 0.652523 0.347196 0.50061
125 1 0.672614 0.336338 0.4938
130 1 0.692959 0.34734 0.49435
99 1 0.571126 0.371439 0.498304
98 1 0.571591 0.418095 0.506919
106 1 0.612692 0.370383 0.499429
104 1 0.591708 0.381881 0.506956
103 1 0.592015 0.405712 0.506726
109 1 0.612095 0.417638 0.509572
119 1 0.653306 0.370621 0.498865
114 1 0.632698 0.381893 0.507001
112 1 0.632383 0.406286 0.5026
118 1 0.652476 0.417909 0.513855
129 1 0.693825 0.370649 0.498289
124 1 0.673685 0.382516 0.499349
122 1 0.672751 0.406048 0.509446
127 1 0.692524 0.417971 0.503907
86 1 0.530653 0.441976 0.501933
81 1 0.510424 0.453838 0.497782
205 1 0.510111 0.47734 0.499238
211 1 0.530652 0.488976 0.507477
91 1 0.551355 0.45312 0.496903
219 1 0.550999 0.47693 0.498423
212 1 0.531363 0.512259 0.501767
204 1 0.511228 0.523561 0.499035
206 1 0.509914 0.546289 0.505625
213 1 0.530328 0.558454 0.504264
218 1 0.551921 0.523658 0.507797
220 1 0.551145 0.546894 0.50487
97 1 0.571346 0.441975 0.507834
226 1 0.571574 0.487459 0.502184
108 1 0.612564 0.441062 0.50066
102 1 0.592506 0.452958 0.504584
233 1 0.592396 0.476094 0.497096
241 1 0.612231 0.487626 0.500048
117 1 0.653226 0.44109 0.504432
113 1 0.632523 0.452608 0.49843
249 1 0.63256 0.475785 0.502264
255 1 0.652311 0.487423 0.495233
128 1 0.693303 0.441304 0.506007
121 1 0.673021 0.453012 0.511258
261 1 0.672855 0.475601 0.499974
268 1 0.692964 0.48816 0.50494
227 1 0.571183 0.511116 0.500319
228 1 0.571153 0.557839 0.496016
242 1 0.611291 0.510957 0.494657
234 1 0.591657 0.522777 0.504677
235 1 0.59178 0.54669 0.504038
243 1 0.610614 0.55833 0.494806
256 1 0.652317 0.511183 0.495712
248 1 0.631408 0.522505 0.503502
250 1 0.630999 0.547262 0.500973
254 1 0.651387 0.55788 0.490042
269 1 0.692768 0.511363 0.498984
260 1 0.672323 0.522789 0.499327
262 1 0.671978 0.546337 0.489692
271 1 0.692348 0.558642 0.491027
214 1 0.530601 0.58207 0.504921
207 1 0.510087 0.59401 0.501576
208 1 0.509833 0.61743 0.503607
215 1 0.529291 0.629436 0.495957
221 1 0.551113 0.594008 0.49668
222 1 0.550094 0.617674 0.499543
216 1 0.529692 0.653421 0.502396
209 1 0.509299 0.665231 0.501119
223 1 0.549921 0.665131 0.497742
229 1 0.570711 0.581259 0.500734
230 1 0.570347 0.629443 0.493979
244 1 0.611115 0.581803 0.497824
236 1 0.590617 0.593295 0.492489
237 1 0.590753 0.617188 0.49992
239 1 0.610873 0.629181 0.495501
257 1 0.651416 0.581892 0.493621
247 1 0.630779 0.593547 0.488959
251 1 0.629881 0.61685 0.495372
258 1 0.650776 0.627961 0.489321
270 1 0.693148 0.582124 0.491472
263 1 0.672625 0.593572 0.488523
265 1 0.671203 0.616224 0.498848
272 1 0.69127 0.628179 0.503668
231 1 0.569839 0.652649 0.501884
240 1 0.610998 0.652579 0.499608
232 1 0.590192 0.664118 0.496779
259 1 0.6514 0.651422 0.496726
252 1 0.631784 0.663588 0.497237
273 1 0.691039 0.651612 0.50231
266 1 0.671206 0.663678 0.495518
9795 2 0.553485 0.653583 0.623842
10472 2 0.740499 0.510153 0.186504
10344 2 0.979466 0.395383 0.74836
10493 2 0.517827 0.607681 0.897776
10310 2 0.511638 0.581263 0.299221
10422 2 0.896101 0.361224 0.382552
3 2 0.548467 0.379639 0.59941
8245 2 0.642355 0.366277 0.395821
3149 2 0.641208 0.536371 0.381409
10347 2 0.787148 0.503259 0.617549
10238 2 0.782735 0.421106 0.220888
10476 2 0.591799 0.512884 0.104407
10421 2 0.91044 0.479364 0.425176
9354 2 0.740412 0.405567 0.452082
10519 2 0.51532 0.407968 0.0393507
10448 2 0.82507 0.656271 0.739671
2077 2 0.669972 0.649304 0.391523
9615 2 0.679329 0.462255 0.280666
10154 2 0.665568 0.347009 0.608084
10343 2 0.946331 0.63269 0.939476
10119 2 0.984595 0.487808 0.884956
1399 2 0.618401 0.461131 0.602165
8249 2 0.546448 0.338317 0.394499
3548 2 0.564284 0.418426 0.395306
554 2 0.653981 0.607263 0.603649
10477 2 0.93451 0.483159 0.740086
10482 2 0.5719 0.519059 0.626271
10373 2 0.656266 0.648932 0.0175952
10374 2 0.835249 0.614926 0.172843
10403 2 0.791757 0.446688 0.838694
10404 2 0.718252 0.521734 0.386857
10436 2 0.586173 0.502962 0.277427
10446 2 0.717911 0.606631 0.954616
10451 2 0.500826 0.524166 0.808432
10453 2 0.963603 0.560609 0.518479
10457 2 0.719871 0.605702 0.19638
10506 2 0.984132 0.414337 0.537062
10467 2 0.808684 0.549741 0.0434831
210 1 0.508987 0.687895 0.508539
217 1 0.530213 0.698857 0.50229
224 1 0.550322 0.687616 0.507719
225 1 0.570596 0.699185 0.50111
238 1 0.590787 0.687762 0.495615
245 1 0.61102 0.698001 0.503885
246 1 0.631132 0.68683 0.505153
253 1 0.651968 0.698403 0.499695
264 1 0.671562 0.686668 0.5012
267 1 0.689139 0.69868 0.482129
10474 2 0.563193 0.726227 0.00482415
10012 2 0.774698 0.751261 0.462615
10062 2 0.559048 0.955928 0.680375
9806 2 0.730206 0.695605 0.55418
10128 2 0.951254 0.824997 0.249301
10470 2 0.974723 0.862841 0.859493
10487 2 0.927293 0.68583 0.82152
10289 2 0.756685 0.876324 0.756399
10447 2 0.900867 0.925105 0.567877
10195 2 0.807015 0.872364 0.128767
10073 2 0.646483 0.781731 0.0369551
10354 2 0.746161 0.687735 0.355764
9156 2 0.607335 0.744694 0.463543
10402 2 0.891688 0.752102 0.116378
10503 2 0.719203 0.751637 0.767485
10281 2 0.622962 0.975012 0.245252
10330 2 0.891706 0.764579 0.358517
10462 2 0.757234 0.869581 0.446275
10455 2 0.713218 0.717583 0.0974288
10271 2 0.669515 0.884406 0.752115
10454 2 0.504143 0.72943 0.29187
10510 2 0.909662 0.734033 0.663374
10511 2 0.775516 0.756845 0.110086
10512 2 0.682002 0.918522 0.157464
10522 2 0.562887 0.889052 0.221562
2549 2 0.560224 0.666928 0.397326
