ITEM: TIMESTEP
150000
ITEM: NUMBER OF ATOMS
594
ITEM: BOX BOUNDS pp pp pp
-3.0000000000000000e+01 3.0000000000000000e+01
-3.0000000000000000e+01 3.0000000000000000e+01
-3.0000000000000000e+01 3.0000000000000000e+01
ITEM: ATOMS id type xs ys zs
10906 2 0.336636 0.349923 0.0393074
10822 2 0.176634 0.169949 0.256219
11156 2 0.240508 0.411807 0.128057
10599 2 0.253614 0.219171 0.0412805
10714 2 0.271318 0.498681 0.126486
11206 2 0.0374567 0.41461 0.275922
11305 2 0.401409 0.228579 0.275781
11304 2 0.721408 0.0890867 0.323743
11236 2 0.164895 0.392675 0.19005
10688 2 0.331398 0.228572 0.0734695
11270 2 0.065414 0.20062 0.259621
10101 2 0.337515 0.468182 0.257507
11150 2 0.0529426 0.484312 0.0176267
11076 2 0.130782 0.429293 0.312332
11318 2 0.238914 0.464381 0.228509
11197 2 0.271189 0.297825 0.166627
11320 2 0.114263 0.0797163 0.206976
11226 2 0.917785 0.060643 0.304705
11366 2 0.21445 0.0466545 0.184407
10963 2 0.536727 0.36742 0.290824
11346 2 0.629457 0.317191 0.252185
11317 2 0.00903991 0.33096 0.0642756
11048 2 0.574882 0.202083 0.132928
11105 2 0.361884 0.320537 0.156798
10541 2 0.658678 0.355939 0.333095
11315 2 0.943035 0.432978 0.311956
10980 2 0.56924 0.340757 0.201197
10979 2 0.441082 0.396302 0.220739
11311 2 0.728792 0.377279 0.0504584
11407 2 0.784516 0.147523 0.100586
11117 2 0.497106 0.468143 0.249964
11267 2 0.622643 0.143952 0.099949
11153 2 0.934273 0.38104 0.218363
11363 2 0.313166 0.324389 0.297062
11209 2 0.695133 0.303233 0.12622
11006 2 0.808395 0.086511 0.288429
11039 2 0.957684 0.259595 0.0935392
11405 2 0.779274 0.16327 0.291055
11374 2 0.865965 0.416623 0.0718463
11204 2 0.801462 0.236977 0.0148323
11388 2 0.291508 0.0587135 0.0783101
10764 2 0.812516 0.278307 0.15255
11052 2 0.899238 0.247188 0.198243
11025 2 0.727942 0.07886 0.218675
10379 2 0.737276 0.176107 0.027818
11294 2 0.290722 0.112473 0.0120342
11228 2 0.502597 0.279708 0.290031
11257 2 0.455312 0.158098 0.139169
11274 2 0.5834 0.429187 0.0982001
11277 2 0.473255 0.271453 0.068832
11337 2 0.856565 0.0602748 0.199576
11293 2 0.0256215 0.118849 0.0574045
11401 2 0.0804152 0.177498 0.00752515
11402 2 0.458225 0.449626 0.126662
41 1 0.328039 0.301429 0.497834
36 1 0.307501 0.313447 0.497114
32 1 0.307251 0.336798 0.494608
37 1 0.32718 0.348661 0.492255
38 1 0.327595 0.371792 0.4957
33 1 0.307483 0.38323 0.493989
34 1 0.30672 0.406762 0.495313
39 1 0.326762 0.417694 0.501799
40 1 0.327209 0.440695 0.498488
35 1 0.30691 0.452224 0.500618
142 1 0.306506 0.475844 0.501469
148 1 0.326702 0.488108 0.499928
10635 2 0.0365027 0.398098 0.4511
11376 2 0.770833 0.365505 0.394186
11259 2 0.356371 0.0398153 0.613492
10355 2 0.232524 0.343198 0.515479
11235 2 0.803543 0.26169 0.662996
11095 2 0.0367752 0.462195 0.351329
10408 2 0.237221 0.252004 0.461963
10561 2 0.101743 0.220269 0.467336
11404 2 0.279055 0.371857 0.37515
11323 2 0.182344 0.246356 0.357194
9839 2 0.257586 0.465646 0.499004
9911 2 0.101576 0.106754 0.616058
11350 2 0.426694 0.319487 0.614761
10271 2 0.287984 0.334601 0.649254
10808 2 0.34589 0.404698 0.665488
10853 2 0.18443 0.455665 0.426649
10803 2 0.273811 0.482853 0.379772
11040 2 0.717819 0.229705 0.346242
11126 2 0.0338525 0.31286 0.361349
11109 2 0.0214086 0.157545 0.392864
11092 2 0.172466 0.0549849 0.550683
11007 2 0.229174 0.428532 0.655361
11264 2 0.56198 0.288741 0.644885
11309 2 0.208565 0.0529328 0.421269
11127 2 0.982049 0.176715 0.586893
11011 2 0.61767 0.179873 0.61803
11219 2 0.781161 0.104583 0.396247
11372 2 0.771564 0.281198 0.411135
2567 2 0.376939 0.375206 0.439619
10887 2 0.635503 0.207747 0.511742
8598 2 0.417646 0.250149 0.519315
4261 2 0.361971 0.498719 0.445981
5891 2 0.441289 0.387355 0.553875
3373 2 0.335037 0.366296 0.552644
3367 2 0.520977 0.451679 0.440742
1686 2 0.624845 0.470474 0.452169
291 2 0.377054 0.444799 0.551761
51 1 0.36867 0.302113 0.500291
46 1 0.347995 0.31321 0.495453
42 1 0.346444 0.336657 0.49805
47 1 0.367161 0.348715 0.500478
61 1 0.409263 0.30392 0.507423
56 1 0.387597 0.314751 0.505151
55 1 0.388043 0.33783 0.501843
60 1 0.408387 0.349642 0.503446
66 1 0.429221 0.316415 0.507319
65 1 0.428913 0.338749 0.500294
48 1 0.367802 0.371829 0.495745
43 1 0.34783 0.383866 0.49454
44 1 0.34764 0.40725 0.496895
49 1 0.368292 0.417579 0.500855
59 1 0.408332 0.372416 0.497845
53 1 0.387861 0.383471 0.498744
54 1 0.38815 0.40602 0.496696
57 1 0.408373 0.418219 0.498013
62 1 0.429458 0.384097 0.499725
64 1 0.429186 0.406966 0.495396
71 1 0.448877 0.304902 0.505216
67 1 0.449453 0.349884 0.504629
77 1 0.489679 0.30304 0.50602
75 1 0.469514 0.314893 0.502466
73 1 0.470125 0.338086 0.504597
78 1 0.489862 0.34918 0.499464
91 1 0.530231 0.303297 0.504403
86 1 0.509661 0.315016 0.50363
85 1 0.509852 0.338409 0.499742
90 1 0.530378 0.350229 0.501455
97 1 0.55119 0.315026 0.504788
96 1 0.551214 0.337988 0.499977
70 1 0.450077 0.372462 0.49926
68 1 0.449869 0.418353 0.499509
79 1 0.490221 0.372535 0.500139
72 1 0.46992 0.384245 0.502279
74 1 0.470484 0.407239 0.499093
80 1 0.490357 0.4183 0.498595
89 1 0.529124 0.372723 0.495774
84 1 0.509496 0.384594 0.494899
83 1 0.510096 0.407277 0.499814
88 1 0.531022 0.418657 0.499203
95 1 0.550325 0.38353 0.499398
94 1 0.550942 0.406683 0.496575
98 1 0.571013 0.303462 0.501675
102 1 0.571918 0.348967 0.50036
112 1 0.611775 0.301967 0.498631
107 1 0.591687 0.313733 0.500752
103 1 0.591648 0.336572 0.494469
109 1 0.612326 0.347798 0.493483
118 1 0.651905 0.30214 0.497867
113 1 0.631995 0.312826 0.493453
117 1 0.63246 0.33574 0.498411
122 1 0.652758 0.34793 0.496094
101 1 0.570698 0.372074 0.496529
100 1 0.571118 0.418329 0.497954
108 1 0.612013 0.371048 0.499242
106 1 0.592014 0.382891 0.495971
105 1 0.591523 0.40616 0.501113
111 1 0.61256 0.417779 0.499257
121 1 0.652062 0.371477 0.498694
116 1 0.631868 0.382509 0.501406
114 1 0.632303 0.405712 0.503345
120 1 0.652374 0.418493 0.501572
50 1 0.367629 0.44121 0.497604
45 1 0.347553 0.453133 0.501146
155 1 0.347017 0.476134 0.499067
163 1 0.367052 0.487493 0.502219
58 1 0.407732 0.441467 0.495353
52 1 0.387978 0.45309 0.499008
166 1 0.388155 0.476632 0.498163
175 1 0.408487 0.488334 0.501094
63 1 0.428996 0.452473 0.497734
182 1 0.429088 0.476408 0.496756
69 1 0.449463 0.440916 0.495416
190 1 0.449221 0.487734 0.5006
81 1 0.489712 0.441176 0.501608
76 1 0.468946 0.453265 0.499715
198 1 0.469238 0.476479 0.498129
205 1 0.489656 0.488054 0.501629
87 1 0.529703 0.441768 0.496277
82 1 0.509734 0.45344 0.499486
208 1 0.510004 0.476933 0.497931
214 1 0.530518 0.488623 0.500857
93 1 0.550712 0.453628 0.497638
222 1 0.551165 0.477282 0.502418
99 1 0.571033 0.441592 0.501465
229 1 0.571564 0.488638 0.504053
110 1 0.611855 0.441138 0.50192
104 1 0.591828 0.452995 0.502737
236 1 0.590799 0.476456 0.499447
244 1 0.611532 0.487767 0.500432
119 1 0.651728 0.441571 0.496194
115 1 0.631427 0.452893 0.500782
252 1 0.631576 0.476289 0.498496
258 1 0.652306 0.487906 0.499556
729 2 0.577099 0.337722 0.438309
3800 2 0.550732 0.460111 0.552537
2961 2 0.550097 0.364511 0.549719
1248 2 0.653044 0.458223 0.545553
8601 2 0.641758 0.368237 0.562627
10835 2 0.519094 0.214641 0.466333
10562 2 0.540495 0.25553 0.528164
10929 2 0.631544 0.179304 0.435008
10830 2 0.473549 0.312812 0.447193
10844 2 0.445061 0.240576 0.351229
11288 2 0.948541 0.281675 0.500621
11081 2 0.434733 0.159071 0.56483
11287 2 0.898742 0.363855 0.377433
11073 2 0.926165 0.134995 0.569794
11384 2 0.0815511 0.0518791 0.539775
11056 2 0.962105 0.466095 0.405342
11295 2 0.59888 0.0275953 0.42396
11035 2 0.767603 0.402467 0.461619
11218 2 0.403488 0.111314 0.486284
10726 2 0.980463 0.458035 0.551761
11406 2 0.636057 0.0644962 0.612922
264 1 0.672685 0.477045 0.495733
10513 2 0.68041 0.374963 0.437368
123 1 0.672008 0.453127 0.493635
126 1 0.671361 0.383866 0.502527
11367 2 0.332718 0.20494 0.371605
124 1 0.672048 0.406598 0.498451
7533 2 0.734386 0.348358 0.533126
129 1 0.692483 0.418132 0.500422
125 1 0.672199 0.314031 0.501276
10898 2 0.79758 0.481852 0.609916
131 1 0.692168 0.372352 0.50324
130 1 0.691894 0.441206 0.497066
127 1 0.672839 0.337237 0.498784
128 1 0.693085 0.303995 0.500369
271 1 0.693018 0.488046 0.500818
132 1 0.692289 0.349145 0.504081
11296 2 0.197134 0.371534 0.391005
11253 2 0.689472 0.119162 0.562463
11302 2 0.704515 0.335654 0.643471
11291 2 0.628481 0.497683 0.346636
11358 2 0.985256 0.0189448 0.538397
11362 2 0.538424 0.239613 0.360596
11391 2 0.410877 0.22766 0.4354
11392 2 0.540851 0.146255 0.504071
11399 2 0.922692 0.0596275 0.40986
11409 2 0.173189 0.494534 0.834842
10567 2 0.0170713 0.162945 0.798731
11386 2 0.459161 0.390787 0.855733
10931 2 0.163093 0.301782 0.722789
10894 2 0.216458 0.0651884 0.92464
11124 2 0.25515 0.479905 0.937022
10946 2 0.265084 0.278797 0.807291
11050 2 0.271395 0.362826 0.889356
11308 2 0.12845 0.269829 0.910094
11199 2 0.278578 0.0782619 0.693016
11205 2 0.0455952 0.362705 0.742095
11355 2 0.690948 0.315112 0.841239
11345 2 0.200862 0.172726 0.870761
11087 2 0.34762 0.203305 0.69555
11171 2 0.348854 0.05473 0.954097
11278 2 0.143072 0.218057 0.754778
10966 2 0.484593 0.0245711 0.928542
11289 2 0.79345 0.0237908 0.949329
10679 2 0.591675 0.230512 0.740967
10223 2 0.598598 0.443997 0.936252
10508 2 0.673916 0.00121337 0.873171
10678 2 0.484989 0.0251981 0.821482
11327 2 0.599651 0.0897505 0.837276
10947 2 0.522775 0.394719 0.73015
11044 2 0.37753 0.409584 0.814855
11356 2 0.379269 0.105931 0.774579
11139 2 0.579577 0.149734 0.95035
11038 2 0.509849 0.364405 0.983865
11336 2 0.514851 0.200712 0.825266
11286 2 0.758823 0.446984 0.975113
10659 2 0.857837 0.279853 0.930259
11176 2 0.692158 0.317657 0.923902
11085 2 0.943766 0.300151 0.735721
11200 2 0.807099 0.178545 0.754423
11332 2 0.163872 0.10384 0.810958
11021 2 0.836812 0.0742789 0.808296
11389 2 0.533247 0.0878298 0.889752
11212 2 0.72673 0.370514 0.74517
11185 2 0.748783 0.0910777 0.846139
11061 2 0.821617 0.0990267 0.896802
11082 2 0.966379 0.144294 0.883623
10603 2 0.958041 0.404016 0.97561
10804 2 0.952746 0.0844607 0.761651
11157 2 0.96339 0.178303 0.694196
11230 2 0.269602 0.282458 0.960275
11272 2 0.795377 0.449652 0.836123
11387 2 0.398675 0.4032 0.92143
11128 2 0.903914 0.0267086 0.898927
11368 2 0.107352 0.413235 0.833002
11408 2 0.286701 0.136245 0.767855
10344 2 0.252626 0.675812 0.315744
10363 2 0.231615 0.687256 0.102802
11306 2 0.0114358 0.844847 0.03128
11283 2 0.270927 0.677264 0.016019
11271 2 0.878667 0.752959 0.13029
10828 2 0.300317 0.980369 0.213022
11247 2 0.558586 0.798356 0.311857
10809 2 0.050394 0.589033 0.240482
10988 2 0.188798 0.897246 0.25127
11009 2 0.161723 0.969171 0.161822
11301 2 0.58903 0.502733 0.265064
11343 2 0.0542522 0.858542 0.169336
11120 2 0.655877 0.833383 0.253319
11279 2 0.0403689 0.930159 0.237144
11403 2 0.680087 0.91687 0.158065
10920 2 0.870096 0.879998 0.207126
11335 2 0.387983 0.750243 0.0358839
11285 2 0.199388 0.838646 0.00615823
11316 2 0.506459 0.54393 0.174558
11312 2 0.126162 0.65459 0.126914
10489 2 0.541714 0.918604 0.250367
11122 2 0.446525 0.604262 0.324164
11239 2 0.649672 0.646789 0.0127835
10996 2 0.383756 0.853081 0.267135
11300 2 0.279333 0.84482 0.259051
11201 2 0.464293 0.959523 0.268892
11319 2 0.658326 0.63636 0.128333
11043 2 0.799071 0.910361 0.103324
11359 2 0.599164 0.516139 0.1061
11182 2 0.904357 0.961778 0.0555748
11196 2 0.738608 0.998898 0.0258571
10986 2 0.946675 0.618236 0.136056
11370 2 0.415492 0.809429 0.152457
10474 2 0.700319 0.863891 0.320733
10628 2 0.879633 0.774097 0.265267
11110 2 0.955105 0.776827 0.0338474
11377 2 0.397975 0.68456 0.233616
11158 2 0.743291 0.576501 0.323303
11382 2 0.54317 0.787725 0.0552319
10871 2 0.964814 0.668124 0.268515
10409 2 0.691921 0.780455 0.122133
11258 2 0.189501 0.902505 0.0961072
11276 2 0.614373 0.987055 0.0282858
11281 2 0.172676 0.992261 0.0105901
11349 2 0.806786 0.548866 0.052822
11357 2 0.553756 0.719407 0.00679246
11361 2 0.784908 0.910614 0.0142841
11383 2 0.744281 0.700855 0.174557
11385 2 0.285424 0.913899 0.119065
11390 2 0.583237 0.73635 0.131428
11393 2 0.279673 0.651971 0.172102
11395 2 0.73984 0.57453 0.104665
11396 2 0.871944 0.835832 0.0841721
11397 2 0.776504 0.756773 0.106006
11400 2 0.0220611 0.519558 0.116794
11412 2 0.278217 0.588738 0.230217
147 1 0.326929 0.511731 0.503857
141 1 0.307901 0.525044 0.501488
140 1 0.307584 0.547555 0.501721
149 1 0.327197 0.558537 0.504921
146 1 0.327483 0.581057 0.499005
139 1 0.308148 0.59392 0.499801
138 1 0.307307 0.617643 0.498534
145 1 0.32782 0.629114 0.502999
144 1 0.329068 0.652481 0.498406
137 1 0.309003 0.664926 0.499921
143 1 0.308965 0.688242 0.49723
150 1 0.329492 0.699906 0.498063
11146 2 0.0800028 0.558291 0.355523
11183 2 0.236253 0.632915 0.52235
10995 2 0.287215 0.695021 0.407965
6153 2 0.319143 0.676635 0.550351
266 1 0.672843 0.593651 0.496239
11064 2 0.296198 0.51099 0.662045
11275 2 0.916844 0.7358 0.579992
11069 2 0.173004 0.77465 0.461653
10831 2 0.279121 0.795812 0.43991
11080 2 0.196406 0.526302 0.606779
11326 2 0.396818 0.68962 0.648545
11145 2 0.218558 0.959855 0.394021
11249 2 0.856327 0.711468 0.638695
267 1 0.671241 0.686952 0.501284
11410 2 0.0339379 0.809715 0.657865
11328 2 0.952236 0.554045 0.520546
10826 2 0.105169 0.585306 0.633317
11175 2 0.928519 0.820039 0.357356
11347 2 0.925488 0.947132 0.615926
270 1 0.689096 0.700128 0.508892
11210 2 0.551274 0.601813 0.631534
11378 2 0.307805 0.962586 0.371038
11334 2 0.518386 0.543635 0.338963
9646 2 0.352453 0.576529 0.445947
9761 2 0.630174 0.60601 0.560903
2777 2 0.360991 0.589228 0.566919
1065 2 0.453039 0.533073 0.549786
5802 2 0.580245 0.53443 0.562451
3235 2 0.382296 0.674582 0.452643
162 1 0.367796 0.511141 0.499008
156 1 0.347189 0.523432 0.501013
154 1 0.347013 0.546396 0.505801
161 1 0.366536 0.558555 0.500527
174 1 0.408262 0.511091 0.500636
167 1 0.388018 0.52293 0.502813
165 1 0.387099 0.546625 0.498862
173 1 0.408237 0.557409 0.501206
183 1 0.429101 0.522258 0.502506
180 1 0.429248 0.545763 0.499721
189 1 0.44975 0.510805 0.499666
188 1 0.449294 0.557309 0.502039
206 1 0.489731 0.511708 0.499215
199 1 0.469469 0.523084 0.501761
197 1 0.469659 0.545727 0.499225
204 1 0.489869 0.558061 0.501405
215 1 0.530583 0.511553 0.50512
207 1 0.510125 0.523105 0.50182
209 1 0.509587 0.546581 0.505088
216 1 0.529704 0.557722 0.505716
221 1 0.55124 0.523486 0.504691
223 1 0.550658 0.546802 0.502514
230 1 0.571483 0.51169 0.500846
231 1 0.571422 0.557904 0.502041
245 1 0.61168 0.511858 0.496797
237 1 0.59127 0.523678 0.502028
238 1 0.591202 0.546366 0.49685
246 1 0.611673 0.558359 0.496263
259 1 0.652785 0.511754 0.498925
251 1 0.632392 0.523408 0.49677
253 1 0.632262 0.547074 0.4999
257 1 0.652813 0.558457 0.49803
160 1 0.367505 0.581111 0.505095
153 1 0.347129 0.5931 0.503849
152 1 0.347769 0.616862 0.501293
159 1 0.368527 0.627808 0.505225
172 1 0.408996 0.580557 0.49726
169 1 0.387879 0.592222 0.499582
168 1 0.388735 0.615295 0.504546
176 1 0.408983 0.627892 0.500326
181 1 0.429517 0.592564 0.501082
179 1 0.428885 0.616211 0.498344
158 1 0.369056 0.651596 0.501844
151 1 0.349008 0.663709 0.503646
157 1 0.348793 0.68658 0.498279
164 1 0.368632 0.697831 0.504359
177 1 0.410018 0.650835 0.505559
170 1 0.389887 0.662702 0.503887
171 1 0.388845 0.685791 0.508164
178 1 0.408616 0.698528 0.503147
184 1 0.429571 0.663092 0.502482
185 1 0.4282 0.68665 0.497821
187 1 0.448892 0.580658 0.499564
191 1 0.449222 0.627372 0.502083
203 1 0.489095 0.58133 0.502184
195 1 0.468426 0.592159 0.50354
193 1 0.469026 0.614805 0.499326
202 1 0.489081 0.627086 0.503211
217 1 0.529935 0.580788 0.500945
210 1 0.509504 0.592569 0.503713
211 1 0.508864 0.615893 0.500824
218 1 0.529896 0.62707 0.502274
224 1 0.550628 0.592896 0.501499
225 1 0.550052 0.61537 0.496304
186 1 0.448997 0.650919 0.498572
192 1 0.448825 0.698434 0.498414
201 1 0.489503 0.650515 0.499013
194 1 0.469254 0.661858 0.500716
196 1 0.468617 0.684807 0.496342
200 1 0.489075 0.696378 0.499191
219 1 0.529462 0.650178 0.498223
212 1 0.509629 0.662099 0.500851
213 1 0.509179 0.685222 0.498252
220 1 0.529922 0.696886 0.500448
226 1 0.550455 0.6618 0.498341
227 1 0.550102 0.684584 0.503979
232 1 0.570349 0.58078 0.496563
233 1 0.570676 0.62683 0.498037
247 1 0.611661 0.581464 0.500198
239 1 0.591265 0.591884 0.497089
240 1 0.591134 0.615136 0.50321
242 1 0.611965 0.626464 0.504744
260 1 0.653304 0.58205 0.500957
250 1 0.632357 0.593196 0.498221
254 1 0.631512 0.616332 0.49869
261 1 0.651878 0.627655 0.501113
234 1 0.570434 0.649697 0.503414
228 1 0.569814 0.695514 0.500116
243 1 0.611198 0.6498 0.502341
235 1 0.590691 0.662174 0.504289
241 1 0.590194 0.685061 0.498565
248 1 0.610772 0.696334 0.500735
262 1 0.65173 0.651458 0.500631
255 1 0.631069 0.661968 0.503585
249 1 0.631051 0.684923 0.500397
256 1 0.650751 0.698122 0.502518
3988 2 0.533191 0.672307 0.451318
2555 2 0.478749 0.604897 0.450587
1107 2 0.616053 0.631415 0.449244
7729 2 0.516417 0.649063 0.54856
7987 2 0.585685 0.720663 0.54742
1310 2 0.538491 0.534245 0.452524
8129 2 0.472812 0.746263 0.508723
8360 2 0.422388 0.672979 0.566543
10100 2 0.550005 0.807002 0.544795
11225 2 0.876456 0.555492 0.568962
10614 2 0.771143 0.756138 0.481149
11321 2 0.845869 0.975657 0.346873
11255 2 0.248153 0.799846 0.547871
10575 2 0.434085 0.538623 0.392892
11273 2 0.725942 0.517168 0.385442
10641 2 0.456833 0.689865 0.366959
10800 2 0.421919 0.820264 0.373327
10881 2 0.641203 0.864762 0.442928
11111 2 0.538165 0.885042 0.45953
9810 2 0.656055 0.752852 0.47948
11381 2 0.538985 0.907799 0.612824
11051 2 0.769813 0.817104 0.592391
11341 2 0.755331 0.877734 0.438509
11115 2 0.67363 0.695562 0.427775
11119 2 0.912382 0.629951 0.486619
11413 2 0.748602 0.681061 0.551034
11238 2 0.137125 0.687995 0.39884
11208 2 0.814997 0.668742 0.483311
11190 2 0.981901 0.644467 0.399811
10375 2 0.680224 0.792735 0.602581
273 1 0.692991 0.582898 0.496088
9514 2 0.793308 0.571362 0.547322
276 1 0.691614 0.652319 0.497579
11004 2 0.899227 0.973285 0.536386
11224 2 0.76592 0.688557 0.343267
11380 2 0.0133159 0.943406 0.527522
272 1 0.693075 0.51162 0.501259
11231 2 0.135444 0.795939 0.565646
263 1 0.672788 0.523858 0.496927
269 1 0.671927 0.663716 0.503702
274 1 0.691492 0.559559 0.498553
275 1 0.691745 0.629403 0.496169
265 1 0.672228 0.547625 0.500966
268 1 0.672719 0.616317 0.500177
11248 2 0.830043 0.902311 0.47362
11089 2 0.356323 0.536034 0.342131
11251 2 0.984126 0.847708 0.49024
11254 2 0.112246 0.823686 0.345304
11414 2 0.940463 0.589563 0.658553
9355 2 0.135172 0.581394 0.913235
11198 2 0.755531 0.616748 0.951806
9887 2 0.282463 0.713852 0.859634
10163 2 0.157889 0.719242 0.852301
11180 2 0.0801527 0.947794 0.82075
11297 2 0.247014 0.761461 0.690059
11193 2 0.818829 0.940105 0.80449
10824 2 0.0682372 0.529467 0.850882
10778 2 0.270178 0.551167 0.983551
10919 2 0.24408 0.650631 0.762892
11237 2 0.0443431 0.824634 0.946571
11142 2 0.690321 0.765104 0.726189
11373 2 0.873412 0.721801 0.77647
11144 2 0.0855888 0.758026 0.746848
11269 2 0.471814 0.887537 0.813446
10930 2 0.302076 0.519932 0.773546
11168 2 0.212362 0.977534 0.900447
11192 2 0.451916 0.607915 0.88003
11037 2 0.339251 0.862977 0.706184
11138 2 0.548004 0.683825 0.895371
11164 2 0.566381 0.96912 0.780795
11152 2 0.480106 0.783577 0.798764
11063 2 0.581406 0.985053 0.878069
11371 2 0.0914757 0.645556 0.981407
10872 2 0.358417 0.545264 0.951607
11280 2 0.933124 0.837257 0.745238
11135 2 0.608243 0.823275 0.833268
11070 2 0.591128 0.531036 0.961185
10868 2 0.385464 0.520371 0.686565
11059 2 0.416504 0.513352 0.803122
11202 2 0.409475 0.727852 0.828563
11307 2 0.252205 0.846786 0.810475
11324 2 0.177105 0.69364 0.689599
10589 2 0.68917 0.946455 0.956807
11098 2 0.689414 0.63861 0.723745
11354 2 0.970614 0.863078 0.859634
11375 2 0.100457 0.510114 0.710255
11314 2 0.835825 0.641538 0.730348
11379 2 0.208598 0.530265 0.750291
11106 2 0.826495 0.816773 0.87435
11155 2 0.943706 0.609883 0.759817
10816 2 0.898309 0.577022 0.830449
11265 2 0.516894 0.664993 0.67794
11282 2 0.165783 0.740834 0.973872
11369 2 0.925421 0.687744 0.818048
10626 2 0.752186 0.747326 0.904365
10444 2 0.83061 0.596874 0.924445
11342 2 0.996596 0.61663 0.896139
11344 2 0.788395 0.953467 0.703504
11348 2 0.366926 0.640821 0.877653
11351 2 0.662074 0.584959 0.84594
11352 2 0.40214 0.792497 0.893654
11353 2 0.795159 0.524747 0.760936
11365 2 0.343311 0.88372 0.990869
11394 2 0.0992376 0.654701 0.739686
11398 2 0.157452 0.851291 0.887708
11411 2 0.399119 0.792287 0.689285
