ITEM: TIMESTEP
150000
ITEM: NUMBER OF ATOMS
698
ITEM: BOX BOUNDS pp pp pp
-3.0000000000000000e+01 3.0000000000000000e+01
-3.0000000000000000e+01 3.0000000000000000e+01
-1.5000000000000000e+01 1.5000000000000000e+01
ITEM: ATOMS id type xs ys zs
6 1 0.32768 0.289064 0.250404
3 1 0.306894 0.300103 0.243824
1 1 0.308154 0.323398 0.243964
12 1 0.366817 0.28926 0.254103
9 1 0.347401 0.300956 0.259079
7 1 0.347561 0.323193 0.247971
18 1 0.408446 0.290112 0.249972
15 1 0.387393 0.301264 0.246216
14 1 0.387968 0.324576 0.243505
21 1 0.428561 0.300747 0.243
20 1 0.428113 0.32385 0.253498
24 1 0.449349 0.290092 0.247025
28 1 0.489524 0.291383 0.247123
27 1 0.469054 0.302014 0.254539
26 1 0.468187 0.325057 0.245621
278 1 0.329686 0.312721 0.756
276 1 0.308572 0.323071 0.751432
282 1 0.368945 0.314666 0.754386
280 1 0.34897 0.325324 0.758452
286 1 0.408993 0.313394 0.752125
284 1 0.389071 0.325795 0.74583
288 1 0.429547 0.32562 0.755998
290 1 0.44975 0.313839 0.750405
293 1 0.489738 0.313508 0.749182
292 1 0.469778 0.325556 0.747072
9578 2 0.185271 0.248009 0.367473
9406 2 0.249203 0.302997 0.258276
9556 2 0.170139 0.184439 0.943159
9427 2 0.176996 0.268422 0.578065
1761 2 0.497929 0.315473 0.35575
9509 2 0.0751665 0.0192379 0.689649
9533 2 0.057025 0.19665 0.250456
2376 2 0.371318 0.238169 0.305388
9412 2 0.0213161 0.0152675 0.445352
9572 2 0.105505 0.0918091 0.204351
7945 2 0.364892 0.276458 0.667113
9552 2 0.0347777 0.127469 0.0622265
7241 2 0.360316 0.292972 0.85707
9564 2 0.203406 0.056607 0.432703
9322 2 0.0454471 0.257154 0.836903
9608 2 0.211764 0.0471004 0.202211
9072 2 0.465922 0.269856 0.70046
9520 2 0.0891468 0.12717 0.542843
8717 2 0.264332 0.211044 0.48275
9537 2 0.143996 0.217626 0.768215
9505 2 0.36381 0.155389 0.07125
9593 2 0.468246 0.139663 0.953019
9536 2 0.470954 0.275915 0.0552091
9602 2 0.38018 0.106097 0.774049
9409 2 0.407999 0.0210401 0.407512
9524 2 0.365686 0.0349709 0.621401
9486 2 0.39885 0.107186 0.502353
9491 2 0.230198 0.181647 0.167287
9545 2 0.385235 0.202986 0.490731
9550 2 0.229379 0.0923131 0.687305
9598 2 0.429169 0.313921 0.620201
9624 2 0.364611 0.295872 0.0451428
9627 2 0.291499 0.0603828 0.0785393
9642 2 0.285997 0.136962 0.768734
9479 2 0.311943 0.332762 0.496944
4 1 0.327334 0.334962 0.255556
10 1 0.367921 0.336006 0.250396
17 1 0.40813 0.33487 0.252547
5 1 0.327432 0.358708 0.247573
2 1 0.307532 0.371954 0.250108
64 1 0.30672 0.395636 0.247398
69 1 0.327257 0.406187 0.249468
11 1 0.36752 0.359548 0.248627
8 1 0.347565 0.370938 0.254472
74 1 0.347048 0.39369 0.24523
79 1 0.366974 0.406076 0.25095
16 1 0.408119 0.358415 0.248076
13 1 0.38791 0.371057 0.253227
88 1 0.387968 0.394808 0.246785
89 1 0.408668 0.406628 0.249
19 1 0.428055 0.371512 0.251273
96 1 0.428584 0.394492 0.241295
22 1 0.448322 0.33682 0.252912
29 1 0.489125 0.33698 0.245812
23 1 0.448332 0.360726 0.246251
99 1 0.448576 0.40684 0.2485
30 1 0.488961 0.360814 0.248344
25 1 0.46826 0.371929 0.249597
104 1 0.468664 0.394849 0.243086
109 1 0.489464 0.406643 0.249673
73 1 0.327205 0.429946 0.24349
66 1 0.307132 0.442481 0.247145
68 1 0.307659 0.465751 0.246538
71 1 0.328603 0.476797 0.249976
80 1 0.368114 0.429782 0.244571
76 1 0.348252 0.44145 0.247721
77 1 0.348304 0.465183 0.241817
83 1 0.36797 0.476189 0.251336
90 1 0.408752 0.429537 0.24433
85 1 0.388772 0.440742 0.250998
86 1 0.388363 0.463956 0.248125
93 1 0.408468 0.475562 0.248274
95 1 0.428906 0.440353 0.253234
97 1 0.428871 0.464249 0.253502
70 1 0.328029 0.500185 0.244927
67 1 0.308002 0.510993 0.254591
65 1 0.307875 0.534158 0.255181
72 1 0.327702 0.54574 0.247988
82 1 0.368289 0.499041 0.251561
78 1 0.34908 0.510734 0.241864
75 1 0.348456 0.533899 0.25119
81 1 0.368481 0.546141 0.248189
92 1 0.408464 0.498854 0.254173
87 1 0.388938 0.510346 0.247492
84 1 0.388906 0.533857 0.254536
91 1 0.408778 0.546732 0.250586
98 1 0.428809 0.511066 0.248828
94 1 0.428762 0.534608 0.255504
175 1 0.32792 0.569385 0.257469
183 1 0.367783 0.568987 0.256871
189 1 0.408471 0.570404 0.255863
100 1 0.449204 0.429918 0.244911
103 1 0.448802 0.476351 0.24666
110 1 0.489901 0.430579 0.245029
106 1 0.468903 0.442136 0.252717
107 1 0.468764 0.46523 0.251514
112 1 0.489422 0.476687 0.248852
102 1 0.448994 0.499527 0.251147
101 1 0.449466 0.546268 0.249348
113 1 0.489808 0.500348 0.255835
108 1 0.46919 0.511141 0.249561
105 1 0.470432 0.534834 0.254339
111 1 0.489348 0.547492 0.245495
198 1 0.449891 0.570243 0.25224
208 1 0.490018 0.570597 0.250679
171 1 0.307477 0.581471 0.252071
170 1 0.30807 0.604874 0.24875
174 1 0.327461 0.616449 0.246892
179 1 0.348196 0.581237 0.251114
178 1 0.347386 0.604914 0.254492
182 1 0.367771 0.616102 0.251125
186 1 0.38789 0.581174 0.252363
185 1 0.387827 0.604507 0.256084
190 1 0.408511 0.616008 0.248185
194 1 0.428929 0.581338 0.245753
193 1 0.429281 0.604475 0.252678
173 1 0.327334 0.639584 0.256118
169 1 0.307541 0.65212 0.250617
181 1 0.368178 0.63925 0.254569
177 1 0.348589 0.651165 0.250021
191 1 0.409189 0.63958 0.252826
187 1 0.389047 0.650848 0.249312
195 1 0.429213 0.6512 0.24615
199 1 0.449235 0.617123 0.245563
203 1 0.469689 0.581936 0.24612
201 1 0.469087 0.60529 0.25148
207 1 0.489743 0.616909 0.242551
197 1 0.449104 0.640415 0.252329
206 1 0.489172 0.640815 0.240794
202 1 0.46945 0.651766 0.251034
275 1 0.308468 0.346339 0.744638
277 1 0.328198 0.359744 0.746857
279 1 0.348196 0.347904 0.74497
281 1 0.368597 0.359595 0.752452
283 1 0.388573 0.34933 0.744904
285 1 0.409382 0.360668 0.749177
287 1 0.429817 0.34852 0.741826
321 1 0.328388 0.383165 0.738508
315 1 0.308485 0.395499 0.740541
316 1 0.307738 0.419294 0.742581
332 1 0.367724 0.383061 0.742825
326 1 0.347572 0.394624 0.747517
327 1 0.347593 0.418101 0.743629
347 1 0.408914 0.383153 0.743667
341 1 0.388661 0.394636 0.749398
342 1 0.388132 0.417914 0.749503
348 1 0.429051 0.394801 0.750417
351 1 0.429184 0.418631 0.753135
289 1 0.450619 0.360682 0.745222
291 1 0.470838 0.349004 0.755552
294 1 0.490933 0.360742 0.758886
358 1 0.449702 0.383977 0.746039
365 1 0.490374 0.383756 0.751517
359 1 0.469619 0.39473 0.7585
360 1 0.469643 0.418094 0.752037
322 1 0.327799 0.430857 0.740612
333 1 0.367748 0.429859 0.755548
343 1 0.40832 0.429917 0.758879
325 1 0.328666 0.453454 0.753862
318 1 0.308266 0.465282 0.754263
320 1 0.308933 0.488063 0.755257
323 1 0.328867 0.500165 0.74915
334 1 0.368896 0.453572 0.752403
329 1 0.349202 0.465288 0.747211
331 1 0.349822 0.488395 0.75223
335 1 0.369324 0.500791 0.748554
344 1 0.409454 0.453691 0.758514
337 1 0.389804 0.464688 0.746001
340 1 0.389451 0.488217 0.752072
345 1 0.409347 0.500018 0.7499
349 1 0.429923 0.46515 0.752205
353 1 0.429634 0.488841 0.756066
324 1 0.328437 0.523144 0.758761
319 1 0.308418 0.535091 0.756285
317 1 0.309237 0.557796 0.752836
434 1 0.327736 0.570379 0.744493
336 1 0.369149 0.523792 0.757549
330 1 0.348708 0.534919 0.751845
328 1 0.347985 0.558491 0.751128
443 1 0.368533 0.569351 0.748746
346 1 0.40965 0.523273 0.754092
339 1 0.389552 0.535133 0.750296
338 1 0.38883 0.557983 0.747947
450 1 0.408651 0.569787 0.753852
352 1 0.42998 0.534751 0.750399
350 1 0.429026 0.558353 0.756942
354 1 0.449876 0.429745 0.761053
366 1 0.489522 0.429801 0.762962
355 1 0.449972 0.453068 0.7614
356 1 0.450465 0.499544 0.745252
367 1 0.490532 0.452597 0.762647
362 1 0.470603 0.463975 0.754643
364 1 0.470583 0.487689 0.754745
369 1 0.490468 0.499608 0.749068
357 1 0.450112 0.522626 0.752167
460 1 0.44914 0.569428 0.751426
368 1 0.489935 0.523186 0.750666
363 1 0.469616 0.534681 0.745957
361 1 0.469297 0.55803 0.753311
471 1 0.489592 0.570407 0.747027
433 1 0.327934 0.593726 0.75121
429 1 0.307783 0.605626 0.746956
428 1 0.307511 0.629008 0.747676
432 1 0.328409 0.639953 0.749495
442 1 0.369365 0.59305 0.744873
438 1 0.349527 0.604785 0.751576
437 1 0.349412 0.628 0.745632
441 1 0.369407 0.639605 0.747819
449 1 0.410359 0.593134 0.747943
446 1 0.390103 0.604713 0.750401
445 1 0.389248 0.627942 0.755823
451 1 0.409526 0.639717 0.757579
455 1 0.429509 0.604923 0.756778
454 1 0.429123 0.628269 0.750842
431 1 0.328796 0.663281 0.743652
440 1 0.368567 0.662784 0.755494
452 1 0.40969 0.662671 0.749081
459 1 0.449382 0.593073 0.756812
461 1 0.449631 0.639603 0.758661
470 1 0.489524 0.593638 0.750892
465 1 0.468831 0.604637 0.748758
463 1 0.469931 0.627789 0.757229
469 1 0.489457 0.640424 0.752652
458 1 0.450534 0.662764 0.749675
468 1 0.489674 0.663868 0.761114
9496 2 0.131051 0.580684 0.707277
266 2 0.361426 0.507185 0.133725
672 2 0.444443 0.666419 0.136155
9548 2 0.175854 0.505433 0.54998
9622 2 0.453607 0.372685 0.00114068
9638 2 0.278169 0.371135 0.371615
767 2 0.46859 0.500368 0.432532
5911 2 0.41352 0.466774 0.361389
8659 2 0.253928 0.584397 0.383495
8995 2 0.494837 0.659358 0.354484
9373 2 0.137911 0.400519 0.34269
4348 2 0.456742 0.529948 0.141711
8606 2 0.365758 0.405017 0.122919
9566 2 0.12405 0.662657 0.110417
2878 2 0.328689 0.540678 0.63571
1760 2 0.377337 0.426955 0.637548
7721 2 0.417614 0.40642 0.866505
9464 2 0.242089 0.439352 0.677127
9074 2 0.268179 0.403868 0.181406
167 2 0.42486 0.343806 0.147532
754 2 0.378518 0.552029 0.352791
8514 2 0.454676 0.50226 0.843951
3356 2 0.458936 0.449987 0.655582
9183 2 0.26295 0.497155 0.232649
7648 2 0.492864 0.351022 0.645131
9535 2 0.129623 0.43846 0.0623086
2188 2 0.462569 0.389261 0.367483
8447 2 0.260476 0.500832 0.800366
4553 2 0.394798 0.612248 0.864383
557 2 0.374547 0.346023 0.353853
6021 2 0.356728 0.513068 0.870657
9643 2 0.172628 0.49304 0.832154
3786 2 0.443474 0.443428 0.142728
9124 2 0.317774 0.48568 0.357171
9462 2 0.222925 0.637753 0.513043
1285 2 0.429103 0.572958 0.647267
6652 2 0.479275 0.615732 0.859711
9435 2 0.0828821 0.537447 0.823265
9432 2 0.0274119 0.594276 0.646391
9422 2 0.0274018 0.337846 0.335244
9614 2 0.0163277 0.339409 0.0549456
172 1 0.309324 0.675074 0.241341
176 1 0.329517 0.687524 0.244185
180 1 0.348357 0.675204 0.256528
184 1 0.369411 0.685614 0.246607
188 1 0.389384 0.67389 0.241428
192 1 0.409283 0.685036 0.249286
196 1 0.429718 0.673647 0.254547
200 1 0.449628 0.685937 0.248595
204 1 0.469665 0.674103 0.239719
205 1 0.489681 0.686456 0.245541
427 1 0.309311 0.675544 0.746328
430 1 0.309192 0.699088 0.746046
435 1 0.329285 0.710321 0.748157
436 1 0.349688 0.674339 0.745025
439 1 0.349785 0.698107 0.753799
444 1 0.370416 0.709598 0.750316
447 1 0.389108 0.674092 0.758369
448 1 0.390193 0.698066 0.75646
453 1 0.409986 0.709687 0.751152
456 1 0.430176 0.674437 0.751876
457 1 0.429204 0.697715 0.742044
462 1 0.448951 0.710358 0.747469
464 1 0.469225 0.675332 0.760276
466 1 0.468493 0.699294 0.757662
467 1 0.489043 0.711283 0.746428
9369 2 0.254661 0.668467 0.237285
9347 2 0.270776 0.824456 0.546744
9244 2 0.0788626 0.679751 0.350382
9561 2 0.252753 0.837995 0.806991
9276 2 0.396253 0.912807 0.424188
9508 2 0.167376 0.805376 0.415576
9531 2 0.469074 0.902248 0.8331
9579 2 0.176043 0.690164 0.685706
9619 2 0.311631 0.960828 0.377603
9270 2 0.328352 0.874996 0.87095
6263 2 0.363957 0.748292 0.829499
9460 2 0.0859925 0.937697 0.816759
9158 2 0.479041 0.935658 0.519113
9542 2 0.153708 0.751857 0.972212
9626 2 0.286183 0.910569 0.126235
9600 2 0.427129 0.803477 0.777351
6841 2 0.478264 0.669635 0.650164
9538 2 0.0398303 0.933755 0.268631
8456 2 0.379068 0.684677 0.640054
9543 2 0.259464 0.676528 0.00535764
7267 2 0.399514 0.675226 0.342308
9585 2 0.0122361 0.892051 0.0871131
9522 2 0.244551 0.847087 0.159669
9513 2 0.102663 0.851526 0.571089
9591 2 0.183829 0.853875 0.981688
9613 2 0.394224 0.879178 0.585012
9628 2 0.391294 0.71529 0.0461282
9644 2 0.0326755 0.81081 0.658217
36 1 0.530161 0.290051 0.251303
33 1 0.510333 0.301969 0.240952
32 1 0.509669 0.324519 0.250216
39 1 0.550015 0.302144 0.254201
38 1 0.550116 0.325508 0.245211
40 1 0.569495 0.289972 0.248154
48 1 0.611099 0.290022 0.244635
45 1 0.589931 0.301386 0.245602
43 1 0.590053 0.324484 0.254194
52 1 0.651788 0.290213 0.247435
49 1 0.630727 0.301926 0.243133
51 1 0.630764 0.324556 0.253245
58 1 0.692507 0.289116 0.240916
55 1 0.672558 0.300948 0.25423
57 1 0.672284 0.324344 0.242626
298 1 0.529956 0.313189 0.750917
296 1 0.509755 0.325001 0.756582
300 1 0.550572 0.323971 0.757465
301 1 0.571338 0.314583 0.753875
306 1 0.611541 0.314004 0.757491
304 1 0.59142 0.325598 0.759489
309 1 0.650885 0.313798 0.751276
307 1 0.631227 0.325702 0.74802
313 1 0.690425 0.313933 0.758408
311 1 0.670755 0.325373 0.748524
9488 2 0.794394 0.086409 0.375181
9490 2 0.620503 0.145196 0.313452
5920 2 0.591554 0.320584 0.377943
9532 2 0.605416 0.0197913 0.819379
8416 2 0.750566 0.261456 0.253936
8385 2 0.695657 0.300183 0.34528
9554 2 0.606277 0.0232896 0.411184
9529 2 0.799251 0.322861 0.423822
9580 2 0.671192 0.180523 0.898657
9612 2 0.978158 0.188234 0.90573
9583 2 0.575768 0.0417441 0.126309
9452 2 0.919655 0.0137683 0.546284
9641 2 0.783483 0.147154 0.0975801
9501 2 0.887821 0.260026 0.127517
9342 2 0.587935 0.265506 0.169498
9457 2 0.836585 0.0588275 0.681986
9370 2 0.881289 0.137533 0.524254
9166 2 0.554781 0.310041 0.874528
9456 2 0.702386 0.316055 0.925339
9588 2 0.836076 0.182884 0.80048
9425 2 0.81576 0.22806 0.966725
9597 2 0.944207 0.22655 0.383195
9590 2 0.859006 0.0595958 0.202391
9549 2 0.5714 0.103222 0.962924
9618 2 0.634378 0.313711 0.850454
9617 2 0.968489 0.0628711 0.898955
9616 2 0.548192 0.226827 0.987147
9615 2 0.718224 0.218915 0.46904
9596 2 0.967413 0.0518718 0.320403
9605 2 0.534041 0.240223 0.363716
9611 2 0.53201 0.0107519 0.969501
9631 2 0.541386 0.145885 0.500631
9634 2 0.738931 0.113226 0.869301
9639 2 0.778871 0.163348 0.292185
9640 2 0.635078 0.0643594 0.607081
35 1 0.529692 0.337078 0.249545
34 1 0.52976 0.360548 0.245854
31 1 0.509867 0.371861 0.253383
118 1 0.509669 0.395112 0.246017
123 1 0.529867 0.406773 0.251626
37 1 0.550316 0.371834 0.251775
128 1 0.550201 0.394567 0.249037
42 1 0.570086 0.336777 0.252187
47 1 0.610565 0.336234 0.252548
54 1 0.652015 0.335904 0.250964
60 1 0.692298 0.33672 0.240707
41 1 0.570765 0.360208 0.247995
133 1 0.570602 0.405745 0.255418
46 1 0.610924 0.359451 0.257459
44 1 0.591093 0.370805 0.259978
138 1 0.591393 0.394127 0.254315
143 1 0.611883 0.405871 0.259282
53 1 0.651979 0.35864 0.240205
50 1 0.63164 0.370206 0.253825
144 1 0.630616 0.393729 0.24764
153 1 0.651018 0.406399 0.244726
59 1 0.692594 0.360397 0.24223
56 1 0.671173 0.370843 0.246572
158 1 0.671243 0.393714 0.236193
161 1 0.691725 0.405811 0.24193
122 1 0.530608 0.430028 0.248452
117 1 0.510682 0.441954 0.253646
115 1 0.50968 0.464914 0.253656
119 1 0.529903 0.476981 0.251791
126 1 0.550732 0.441447 0.255149
125 1 0.550139 0.465024 0.246576
120 1 0.529592 0.500056 0.243083
114 1 0.509962 0.512319 0.251973
116 1 0.509099 0.535607 0.242472
121 1 0.530126 0.547326 0.249479
124 1 0.549922 0.511711 0.241163
127 1 0.550254 0.534876 0.24749
213 1 0.530338 0.57027 0.250508
132 1 0.571029 0.429655 0.250694
129 1 0.570695 0.476223 0.252739
142 1 0.611218 0.429653 0.252278
136 1 0.591051 0.441309 0.257691
134 1 0.591325 0.464365 0.248948
139 1 0.611886 0.476621 0.252826
149 1 0.651012 0.430593 0.239126
147 1 0.631616 0.442016 0.249888
146 1 0.631719 0.465496 0.244311
151 1 0.651921 0.47722 0.2474
162 1 0.69176 0.429171 0.24489
156 1 0.671886 0.442023 0.240053
155 1 0.671925 0.465297 0.252918
159 1 0.692452 0.47744 0.255472
130 1 0.570598 0.499722 0.243435
131 1 0.570317 0.546943 0.243574
140 1 0.611777 0.500311 0.251849
135 1 0.591449 0.512119 0.252364
137 1 0.591156 0.535841 0.244733
141 1 0.610989 0.547236 0.255482
152 1 0.651815 0.50051 0.258466
145 1 0.631409 0.512215 0.252934
148 1 0.631238 0.535526 0.25762
150 1 0.651258 0.547439 0.246686
160 1 0.692454 0.50063 0.259285
154 1 0.67206 0.512669 0.260411
157 1 0.671181 0.535551 0.248811
163 1 0.690865 0.547423 0.252126
222 1 0.570373 0.569841 0.252805
233 1 0.611618 0.569569 0.247585
240 1 0.652485 0.571394 0.254001
248 1 0.692236 0.570193 0.24713
209 1 0.509996 0.581749 0.245768
210 1 0.509911 0.604945 0.249609
214 1 0.53002 0.615819 0.241088
217 1 0.550708 0.581266 0.245064
218 1 0.550063 0.604655 0.248295
215 1 0.529934 0.638959 0.246304
211 1 0.510087 0.651812 0.241862
219 1 0.550554 0.650486 0.24789
223 1 0.570701 0.616497 0.245069
226 1 0.590995 0.581155 0.246526
227 1 0.591037 0.604856 0.250691
231 1 0.610266 0.617477 0.24053
236 1 0.631552 0.582427 0.252841
237 1 0.630396 0.605483 0.241123
241 1 0.650629 0.617536 0.245894
243 1 0.672765 0.582666 0.250077
245 1 0.671394 0.605507 0.240012
249 1 0.691528 0.617822 0.246991
224 1 0.570547 0.639946 0.252117
232 1 0.610812 0.640712 0.242712
225 1 0.590362 0.651588 0.244275
242 1 0.651484 0.641035 0.236548
238 1 0.631197 0.652599 0.235662
250 1 0.691857 0.640862 0.246047
246 1 0.671716 0.652707 0.237561
295 1 0.510485 0.348306 0.753517
297 1 0.531174 0.359519 0.753503
299 1 0.550923 0.346927 0.748825
380 1 0.53056 0.383016 0.747564
375 1 0.510405 0.395282 0.756685
374 1 0.509923 0.418643 0.753539
386 1 0.550634 0.394499 0.749939
385 1 0.550144 0.417471 0.74242
302 1 0.570747 0.359288 0.753043
303 1 0.591528 0.348577 0.747705
305 1 0.611243 0.360383 0.753533
308 1 0.631266 0.348786 0.755019
310 1 0.651939 0.360321 0.749275
312 1 0.670965 0.348209 0.755855
314 1 0.691529 0.360559 0.755689
391 1 0.570384 0.382432 0.743724
398 1 0.611705 0.382702 0.741051
397 1 0.591136 0.393843 0.739828
396 1 0.591196 0.417657 0.745177
413 1 0.651935 0.383974 0.755943
408 1 0.631651 0.394638 0.743478
403 1 0.631634 0.41813 0.742914
424 1 0.692065 0.383979 0.756413
419 1 0.672171 0.395491 0.759001
418 1 0.67165 0.418309 0.748996
379 1 0.530844 0.429633 0.753977
378 1 0.530984 0.452553 0.747415
372 1 0.511225 0.463639 0.76014
370 1 0.510569 0.487383 0.758384
377 1 0.530609 0.499467 0.747681
383 1 0.550865 0.464359 0.745197
382 1 0.550105 0.487618 0.751138
376 1 0.530884 0.523043 0.751952
371 1 0.510714 0.535123 0.74485
373 1 0.510708 0.558769 0.750254
476 1 0.531011 0.57029 0.743903
381 1 0.551137 0.535284 0.745325
384 1 0.550891 0.558622 0.752112
390 1 0.570296 0.429645 0.741549
402 1 0.611366 0.430115 0.741535
412 1 0.651196 0.429779 0.752934
422 1 0.692186 0.42974 0.754408
389 1 0.570795 0.452407 0.75149
387 1 0.570046 0.499792 0.744846
401 1 0.610679 0.453373 0.74886
394 1 0.590382 0.464906 0.745194
392 1 0.589878 0.488382 0.750791
400 1 0.610472 0.499333 0.744404
409 1 0.651676 0.453545 0.754729
407 1 0.63138 0.464285 0.745574
404 1 0.630674 0.487963 0.751078
411 1 0.651512 0.500361 0.745242
423 1 0.69169 0.453233 0.753045
417 1 0.672038 0.465096 0.749916
414 1 0.671932 0.488511 0.752665
421 1 0.692347 0.499924 0.74982
388 1 0.571398 0.522888 0.749477
486 1 0.571306 0.56977 0.747518
399 1 0.61182 0.52261 0.746855
393 1 0.591838 0.533789 0.745678
395 1 0.591526 0.557716 0.750972
496 1 0.611772 0.569751 0.744819
410 1 0.65159 0.523953 0.747093
405 1 0.631515 0.534784 0.740441
406 1 0.631568 0.55732 0.748782
504 1 0.651551 0.56939 0.742929
420 1 0.692366 0.523031 0.750234
415 1 0.672397 0.534073 0.743867
416 1 0.67177 0.557353 0.750377
514 1 0.691737 0.570054 0.746914
477 1 0.529688 0.593503 0.748958
472 1 0.508892 0.605832 0.743196
473 1 0.509093 0.628242 0.754687
478 1 0.530325 0.63938 0.754093
481 1 0.550648 0.604495 0.750923
482 1 0.55087 0.628232 0.745962
479 1 0.529958 0.66308 0.746546
487 1 0.570843 0.593051 0.744928
488 1 0.571114 0.639185 0.750897
497 1 0.611919 0.592788 0.752771
491 1 0.591276 0.604253 0.753052
492 1 0.591417 0.627075 0.747113
494 1 0.610958 0.638953 0.756075
505 1 0.652737 0.593257 0.748609
500 1 0.631902 0.604424 0.748822
501 1 0.632035 0.627382 0.755514
506 1 0.651764 0.640486 0.7502
513 1 0.69227 0.59295 0.740839
508 1 0.672805 0.60556 0.741933
510 1 0.672263 0.628895 0.752471
515 1 0.692402 0.642137 0.748529
489 1 0.570468 0.662599 0.743701
495 1 0.610717 0.662829 0.747349
507 1 0.651493 0.663743 0.759127
9050 2 0.593626 0.491536 0.141703
3594 2 0.563408 0.407436 0.363179
5841 2 0.658248 0.424069 0.854424
652 2 0.674412 0.521521 0.635703
8480 2 0.693528 0.518959 0.891033
3957 2 0.582328 0.544951 0.647739
63 2 0.624071 0.631837 0.650119
1206 2 0.577393 0.651325 0.856277
2828 2 0.58951 0.504696 0.355872
516 1 0.692005 0.665785 0.750504
5269 2 0.575747 0.458903 0.640094
3640 2 0.528111 0.41841 0.141882
1039 2 0.51125 0.391523 0.86513
9581 2 0.963251 0.560999 0.518728
7506 2 0.662294 0.419044 0.640365
9428 2 0.76282 0.567761 0.277383
9439 2 0.951645 0.370472 0.162338
9604 2 0.934668 0.483173 0.740528
867 2 0.576021 0.543588 0.843774
9073 2 0.75326 0.373519 0.237892
9551 2 0.570954 0.370382 0.632159
9470 2 0.758524 0.454589 0.910886
4325 2 0.695883 0.468458 0.128635
9601 2 0.791136 0.522106 0.75902
9414 2 0.912696 0.629782 0.48656
9248 2 0.552687 0.653392 0.488446
3601 2 0.652352 0.407206 0.351689
6662 2 0.657615 0.33624 0.13731
7517 2 0.505766 0.559828 0.348016
9403 2 0.997387 0.505747 0.0425986
4504 2 0.764693 0.60968 0.779651
166 2 0.523407 0.559129 0.139497
8625 2 0.566631 0.452035 0.858313
7972 2 0.668714 0.613066 0.136707
9599 2 0.665988 0.591032 0.850279
8182 2 0.605388 0.649187 0.345317
7343 2 0.502561 0.530843 0.624817
8157 2 0.561726 0.651851 0.146972
9534 2 0.714145 0.520274 0.37902
9514 2 0.92735 0.407649 0.00234095
9546 2 0.896068 0.360625 0.381206
9557 2 0.67375 0.463923 0.484591
9594 2 0.989502 0.616037 0.894952
9567 2 0.819325 0.529947 0.0041203
9569 2 0.717614 0.607329 0.956539
9571 2 0.942907 0.437883 0.311655
9629 2 0.984132 0.414344 0.537036
9646 2 0.784662 0.634885 0.101015
9647 2 0.836454 0.650724 0.67947
212 1 0.510038 0.674258 0.253031
216 1 0.530461 0.68642 0.254664
220 1 0.550377 0.674137 0.257661
221 1 0.57095 0.686207 0.25748
228 1 0.591232 0.673989 0.257671
234 1 0.610664 0.686383 0.250745
235 1 0.630974 0.676157 0.23671
239 1 0.650937 0.686154 0.250727
244 1 0.670424 0.674466 0.253408
247 1 0.690026 0.686299 0.253146
474 1 0.509892 0.67543 0.753582
475 1 0.509126 0.698258 0.738892
480 1 0.529479 0.709992 0.73485
483 1 0.550103 0.674826 0.74695
484 1 0.549829 0.697733 0.734641
485 1 0.570118 0.709238 0.737449
490 1 0.589857 0.673868 0.751063
493 1 0.589507 0.69721 0.747814
498 1 0.61068 0.707795 0.742889
502 1 0.630733 0.674941 0.756022
499 1 0.631096 0.697106 0.746375
503 1 0.649892 0.71056 0.757935
511 1 0.670944 0.67649 0.751635
509 1 0.670406 0.699714 0.761927
512 1 0.688795 0.713363 0.753232
9022 2 0.865434 0.744642 0.307142
9311 2 0.589318 0.861693 0.743546
9493 2 0.742088 0.686189 0.354136
9603 2 0.563464 0.726556 0.00471433
9518 2 0.947921 0.969179 0.265943
6421 2 0.523359 0.727536 0.185932
3466 2 0.54947 0.755413 0.794718
8990 2 0.715186 0.69099 0.663463
9202 2 0.665134 0.848151 0.384337
9516 2 0.86104 0.892425 0.463757
9372 2 0.534028 0.998629 0.691545
9433 2 0.691481 0.766785 0.756991
9434 2 0.753137 0.87429 0.747776
9365 2 0.609981 0.84041 0.0727941
9623 2 0.536864 0.909104 0.615336
9574 2 0.849497 0.979687 0.346514
9280 2 0.788746 0.893259 0.124383
9482 2 0.789858 0.687879 0.501698
9586 2 0.713076 0.717679 0.0974496
9610 2 0.927447 0.685585 0.822129
9411 2 0.806145 0.894318 0.900161
9291 2 0.731629 0.895981 0.318739
9582 2 0.932752 0.768642 0.181232
9530 2 0.629517 0.955909 0.957986
9539 2 0.9261 0.833803 0.755016
9633 2 0.873003 0.838102 0.0841151
9635 2 0.909667 0.734026 0.663387
9636 2 0.775518 0.756853 0.110037
9637 2 0.681966 0.918516 0.157465
9645 2 0.925695 0.94803 0.0552147
9648 2 0.562894 0.889061 0.22154
