
     Program PWSCF v.7.2 starts on  3Sep2024 at  1: 1:54 

     This program is part of the open-source Quantum ESPRESSO suite
     for quantum simulation of materials; please cite
         "P. Giannozzi et al., J. Phys.:Condens. Matter 21 395502 (2009);
         "P. Giannozzi et al., J. Phys.:Condens. Matter 29 465901 (2017);
         "P. Giannozzi et al., J. Chem. Phys. 152 154105 (2020);
          URL http://www.quantum-espresso.org", 
     in publications or presentations arising from this work. More details at
     http://www.quantum-espresso.org/quote

     Parallel version (MPI & OpenMP), running on      96 processor cores
     Number of MPI processes:                96
     Threads/MPI process:                     1

     MPI processes distributed on     2 nodes
     367515 MiB available memory on the printing compute node when the environment starts
 
     Reading input from hydrogen_absorption8.in

     Current dimensions of program PWSCF are:
     Max number of different atomic species (ntypx) = 10
     Max number of k-points (npk) =  40000
     Max angular momentum in pseudopotentials (lmaxx) =  4

     IMPORTANT: XC functional enforced from input :
     Exchange-correlation= LDA
                           (   1   1   0   0   0   0   0)
     Any further DFT definition will be discarded
     Please, verify this is what you really want

 
     K-points division:     npool     =       2
     R & G space division:  proc/nbgrp/npool/nimage =      48
     Subspace diagonalization in iterative solution of the eigenvalue problem:
     a serial algorithm will be used

 
     Parallelization info
     --------------------
     sticks:   dense  smooth     PW     G-vecs:    dense   smooth      PW
     Min          48      19      5                 5658     1429     224
     Max          49      20      6                 5681     1449     243
     Sum        2347     955    283               272497    69055   11241
 
     Using Slab Decomposition
 

     Title: 
     8H2_absorption_C                                                           


     bravais-lattice index     =            0
     lattice parameter (alat)  =       8.0000  a.u.
     unit-cell volume          =    2017.7336 (a.u.)^3
     number of atoms/cell      =           40
     number of atomic types    =            2
     number of electrons       =       112.00
     number of Kohn-Sham states=           67
     kinetic-energy cutoff     =      40.0000  Ry
     charge density cutoff     =     400.0000  Ry
     scf convergence threshold =      1.0E-06
     mixing beta               =       0.0500
     number of iterations used =            8  local-TF  mixing
     energy convergence thresh.=      1.0E-04
     force convergence thresh. =      1.0E-03
     press convergence thresh. =      5.0E-01
     Exchange-correlation= LDA
                           (   1   1   0   0   0   0   0)
     nstep                     =           50


     celldm(1)=   8.000004  celldm(2)=   0.000000  celldm(3)=   0.000000
     celldm(4)=   0.000000  celldm(5)=   0.000000  celldm(6)=   0.000000

     crystal axes: (cart. coord. in units of alat)
               a(1) = (   1.155047   0.011209   0.057450 )  
               a(2) = (  -0.579323   0.984454  -0.182555 )  
               a(3) = (   0.186787  -0.343014   3.508913 )  

     reciprocal axes: (cart. coord. in units 2 pi/alat)
               b(1) = (  0.860656  0.507170  0.003764 )  
               b(2) = ( -0.014981  1.025718  0.101067 )  
               b(3) = ( -0.014871  0.045060  0.290185 )  


     PseudoPot. # 1 for C  read from file:
     ../../potentials/C.pz-n-rrkjus_psl.0.1.UPF
     MD5 check sum: a3cecbabebb5b3a1aff122f23eb09bb0
     Pseudo is Ultrasoft + core correction, Zval =  4.0
     Generated using "atomic" code by A. Dal Corso  v.5.0.2 svn rev. 9415
     Using radial grid of 1073 points,  4 beta functions with: 
                l(1) =   0
                l(2) =   0
                l(3) =   1
                l(4) =   1
     Q(r) pseudized with 0 coefficients 


     PseudoPot. # 2 for H  read from file:
     ../../potentials/H.pz-rrkjus_psl.0.1.UPF
     MD5 check sum: 1467ebfaa2880178e80d097b970df8c7
     Pseudo is Ultrasoft, Zval =  1.0
     Generated using "atomic" code by A. Dal Corso  v.5.0.2 svn rev. 9415
     Using radial grid of  929 points,  2 beta functions with: 
                l(1) =   0
                l(2) =   0
     Q(r) pseudized with 0 coefficients 


     atomic species   valence    mass     pseudopotential
        C              4.00    12.01100     C ( 1.00)
        H              1.00     1.00784     H ( 1.00)

     No symmetry found



   Cartesian axes

     site n.     atom                  positions (alat units)
         1           C   tau(   1) = (   0.0067028  -0.1293230   0.5740056  )
         2           C   tau(   2) = (  -0.0588629   0.0064578   1.3347081  )
         3           C   tau(   3) = (   0.2232434  -0.2755710   3.2693110  )
         4           C   tau(   4) = (   0.0061885   0.2007682   0.5232386  )
         5           C   tau(   5) = (   0.2296080   0.1742340   1.3233070  )
         6           C   tau(   6) = (   0.2225330   0.0546332   3.2193110  )
         7           C   tau(   7) = (   0.5841654  -0.1234820   0.6040487  )
         8           C   tau(   8) = (   0.5186974   0.0119085   1.3627867  )
         9           C   tau(   9) = (   0.8008040  -0.2701237   3.2977584  )
        10           C   tau(  10) = (   0.5836836   0.2065847   0.5533586  )
        11           C   tau(  11) = (   0.8071311   0.1798373   1.3519408  )
        12           C   tau(  12) = (   0.8001207   0.0600740   3.2474049  )
        13           C   tau(  13) = (  -0.2829040   0.3631042   0.4839273  )
        14           C   tau(  14) = (  -0.3486617   0.4987074   1.2439656  )
        15           C   tau(  15) = (  -0.0665742   0.2167715   3.1789229  )
        16           C   tau(  16) = (  -0.2835552   0.6929660   0.4316178  )
        17           C   tau(  17) = (  -0.0601405   0.6663153   1.2319956  )
        18           C   tau(  18) = (  -0.0670090   0.5465019   3.1261711  )
        19           C   tau(  19) = (   0.2945817   0.3687965   0.5131765  )
        20           C   tau(  20) = (   0.2289811   0.5042099   1.2722302  )
        21           C   tau(  21) = (   0.5109934   0.2224437   3.2083352  )
        22           C   tau(  22) = (   0.2939485   0.6985897   0.4608534  )
        23           C   tau(  23) = (   0.5173123   0.6722441   1.2618915  )
        24           C   tau(  24) = (   0.5105792   0.5522228   3.1557888  )
        25           H   tau(  25) = (   0.1220335   0.9520146   1.7876263  )
        26           H   tau(  26) = (   0.2761462   0.9138567   1.8789711  )
        27           H   tau(  27) = (   0.2427025   0.3832008   2.5671663  )
        28           H   tau(  28) = (   0.2380294   0.2008848   2.5612640  )
        29           H   tau(  29) = (   0.7462094   0.3401990   2.5234439  )
        30           H   tau(  30) = (   0.8999888   0.2483399   2.5619315  )
        31           H   tau(  31) = (   0.5071622  -0.2953465   2.6194410  )
        32           H   tau(  32) = (   0.5637810  -0.1211481   2.6109012  )
        33           H   tau(  33) = (  -0.1018026   0.3441811   1.9128284  )
        34           H   tau(  34) = (  -0.0791318   0.5251707   1.9019418  )
        35           H   tau(  35) = (   0.5764359   0.4275579   1.9632234  )
        36           H   tau(  36) = (   0.3992866   0.4566250   1.9291571  )
        37           H   tau(  37) = (   0.1564324  -0.1288976   2.0468642  )
        38           H   tau(  38) = (   0.2414761   0.0325624   2.0554051  )
        39           H   tau(  39) = (   0.6179529   0.7966357   2.4880060  )
        40           H   tau(  40) = (   0.4375138   0.7822699   2.4639161  )

     number of k points=    36  Gaussian smearing, width (Ry)=  0.0100
                       cart. coord. in units 2pi/alat
        k(    1) = (   0.0667553   0.1390057   0.0812821), wk =   0.0555556
        k(    2) = (   0.0741906   0.1164755  -0.0638104), wk =   0.0555556
        k(    3) = (   0.0642585   0.3099586   0.0981266), wk =   0.0555556
        k(    4) = (   0.0716938   0.2874285  -0.0469659), wk =   0.0555556
        k(    5) = (   0.0617617   0.4809116   0.1149710), wk =   0.0555556
        k(    6) = (   0.0691969   0.4583814  -0.0301215), wk =   0.0555556
        k(    7) = (   0.0742458  -0.3738531   0.0307488), wk =   0.0555556
        k(    8) = (   0.0816811  -0.3963833  -0.1143437), wk =   0.0555556
        k(    9) = (   0.0717490  -0.2029002   0.0475933), wk =   0.0555556
        k(   10) = (   0.0791842  -0.2254303  -0.0974992), wk =   0.0555556
        k(   11) = (   0.0692522  -0.0319472   0.0644377), wk =   0.0555556
        k(   12) = (   0.0766874  -0.0544774  -0.0806548), wk =   0.0555556
        k(   13) = (   0.2101981   0.2235340   0.0819094), wk =   0.0555556
        k(   14) = (   0.2176333   0.2010039  -0.0631831), wk =   0.0555556
        k(   15) = (   0.2077012   0.3944870   0.0987539), wk =   0.0555556
        k(   16) = (   0.2151365   0.3719568  -0.0463386), wk =   0.0555556
        k(   17) = (   0.2052044   0.5654399   0.1155983), wk =   0.0555556
        k(   18) = (   0.2126397   0.5429097  -0.0294942), wk =   0.0555556
        k(   19) = (   0.2176885  -0.2893248   0.0313762), wk =   0.0555556
        k(   20) = (   0.2251238  -0.3118549  -0.1137163), wk =   0.0555556
        k(   21) = (   0.2151917  -0.1183718   0.0482206), wk =   0.0555556
        k(   22) = (   0.2226270  -0.1409020  -0.0968719), wk =   0.0555556
        k(   23) = (   0.2126949   0.0525811   0.0650650), wk =   0.0555556
        k(   24) = (   0.2201301   0.0300509  -0.0800275), wk =   0.0555556
        k(   25) = (   0.3536408   0.3080624   0.0825368), wk =   0.0555556
        k(   26) = (   0.3610761   0.2855322  -0.0625557), wk =   0.0555556
        k(   27) = (   0.3511440   0.4790153   0.0993812), wk =   0.0555556
        k(   28) = (   0.3585792   0.4564851  -0.0457113), wk =   0.0555556
        k(   29) = (   0.3486471   0.6499682   0.1162256), wk =   0.0555556
        k(   30) = (   0.3560824   0.6274381  -0.0288669), wk =   0.0555556
        k(   31) = (   0.3611313  -0.2047965   0.0320035), wk =   0.0555556
        k(   32) = (   0.3685665  -0.2273266  -0.1130890), wk =   0.0555556
        k(   33) = (   0.3586344  -0.0338435   0.0488479), wk =   0.0555556
        k(   34) = (   0.3660697  -0.0563737  -0.0962446), wk =   0.0555556
        k(   35) = (   0.3561376   0.1371094   0.0656923), wk =   0.0555556
        k(   36) = (   0.3635729   0.1145793  -0.0794002), wk =   0.0555556

     Dense  grid:   272497 G-vectors     FFT dimensions: (  60,  60, 180)

     Smooth grid:    69055 G-vectors     FFT dimensions: (  40,  40, 120)

     Estimated max dynamical RAM per process >      14.37 MB

     Estimated total dynamical RAM >       1.28 GB

     Check: negative core charge=   -0.000002

     Initial potential from superposition of free atoms

     starting charge     111.9990, renormalised to     112.0000
     Starting wfcs are  112 randomized atomic wfcs

     total cpu time spent up to now is        0.9 secs

     Self-consistent Calculation

     iteration #  1     ecut=    40.00 Ry     beta= 0.05
     Davidson diagonalization with overlap
     ethr =  1.00E-02,  avg # of iterations =  3.0

     total cpu time spent up to now is        2.2 secs

     total energy              =    -306.38233806 Ry
     estimated scf accuracy    <       2.14078798 Ry

     iteration #  2     ecut=    40.00 Ry     beta= 0.05
     Davidson diagonalization with overlap
     ethr =  1.91E-03,  avg # of iterations =  3.5

     total cpu time spent up to now is        3.4 secs

     total energy              =    -307.25619990 Ry
     estimated scf accuracy    <       2.60824341 Ry

     iteration #  3     ecut=    40.00 Ry     beta= 0.05
     Davidson diagonalization with overlap
     ethr =  1.91E-03,  avg # of iterations =  1.0

     total cpu time spent up to now is        4.2 secs

     total energy              =    -305.24522415 Ry
     estimated scf accuracy    <       3.80774266 Ry

     iteration #  4     ecut=    40.00 Ry     beta= 0.05
     Davidson diagonalization with overlap
     ethr =  1.91E-03,  avg # of iterations =  2.0

     total cpu time spent up to now is        5.1 secs

     total energy              =    -305.38019889 Ry
     estimated scf accuracy    <       0.26301649 Ry

     iteration #  5     ecut=    40.00 Ry     beta= 0.05
     Davidson diagonalization with overlap
     c_bands:  1 eigenvalues not converged
     c_bands:  2 eigenvalues not converged
     ethr =  2.35E-04,  avg # of iterations =  9.2

     total cpu time spent up to now is        7.6 secs

     total energy              =    -305.49803185 Ry
     estimated scf accuracy    <       0.09242118 Ry

     iteration #  6     ecut=    40.00 Ry     beta= 0.05
     Davidson diagonalization with overlap
     ethr =  8.25E-05,  avg # of iterations =  6.0

     total cpu time spent up to now is        9.1 secs

     total energy              =    -305.44609024 Ry
     estimated scf accuracy    <       0.12421753 Ry

     iteration #  7     ecut=    40.00 Ry     beta= 0.05
     Davidson diagonalization with overlap
     ethr =  8.25E-05,  avg # of iterations =  3.7

     total cpu time spent up to now is       10.5 secs

     total energy              =    -305.45989773 Ry
     estimated scf accuracy    <       0.02459966 Ry

     iteration #  8     ecut=    40.00 Ry     beta= 0.05
     Davidson diagonalization with overlap
     c_bands:  1 eigenvalues not converged
     c_bands:  3 eigenvalues not converged
     c_bands:  3 eigenvalues not converged
     ethr =  2.20E-05,  avg # of iterations = 11.3

     total cpu time spent up to now is       13.0 secs

     total energy              =    -305.46384016 Ry
     estimated scf accuracy    <       0.01622272 Ry

     iteration #  9     ecut=    40.00 Ry     beta= 0.05
     Davidson diagonalization with overlap
     ethr =  1.45E-05,  avg # of iterations =  3.5

     total cpu time spent up to now is       14.1 secs

     total energy              =    -305.50700743 Ry
     estimated scf accuracy    <       0.01569042 Ry

     iteration # 10     ecut=    40.00 Ry     beta= 0.05
     Davidson diagonalization with overlap
     c_bands:  2 eigenvalues not converged
     ethr =  1.40E-05,  avg # of iterations =  9.4

     total cpu time spent up to now is       16.4 secs

     total energy              =    -305.49567614 Ry
     estimated scf accuracy    <       0.12488678 Ry

     iteration # 11     ecut=    40.00 Ry     beta= 0.05
     Davidson diagonalization with overlap
     ethr =  1.40E-05,  avg # of iterations =  1.5

     total cpu time spent up to now is       17.3 secs

     total energy              =    -305.45827781 Ry
     estimated scf accuracy    <       0.08578910 Ry

     iteration # 12     ecut=    40.00 Ry     beta= 0.05
     Davidson diagonalization with overlap
     c_bands:  1 eigenvalues not converged
     ethr =  1.40E-05,  avg # of iterations =  4.1

     total cpu time spent up to now is       18.7 secs

     total energy              =    -305.45990249 Ry
     estimated scf accuracy    <       0.01544050 Ry

     iteration # 13     ecut=    40.00 Ry     beta= 0.05
     Davidson diagonalization with overlap
     ethr =  1.38E-05,  avg # of iterations =  3.1

     total cpu time spent up to now is       19.7 secs

     total energy              =    -305.46041701 Ry
     estimated scf accuracy    <       0.00727679 Ry

     iteration # 14     ecut=    40.00 Ry     beta= 0.05
     Davidson diagonalization with overlap
     ethr =  6.50E-06,  avg # of iterations =  6.5

     total cpu time spent up to now is       21.2 secs

     total energy              =    -305.45674124 Ry
     estimated scf accuracy    <       0.00650408 Ry

     iteration # 15     ecut=    40.00 Ry     beta= 0.05
     Davidson diagonalization with overlap
     ethr =  5.81E-06,  avg # of iterations =  5.6

     total cpu time spent up to now is       22.9 secs

     total energy              =    -305.45927130 Ry
     estimated scf accuracy    <       0.00058974 Ry

     iteration # 16     ecut=    40.00 Ry     beta= 0.05
     Davidson diagonalization with overlap
     c_bands:  1 eigenvalues not converged
     c_bands:  1 eigenvalues not converged
     ethr =  5.27E-07,  avg # of iterations = 11.9

     total cpu time spent up to now is       26.0 secs

     total energy              =    -305.45935185 Ry
     estimated scf accuracy    <       0.00323233 Ry

     iteration # 17     ecut=    40.00 Ry     beta= 0.05
     Davidson diagonalization with overlap
     ethr =  5.27E-07,  avg # of iterations =  4.3

     total cpu time spent up to now is       27.2 secs

     total energy              =    -305.45845634 Ry
     estimated scf accuracy    <       0.00170283 Ry

     iteration # 18     ecut=    40.00 Ry     beta= 0.05
     Davidson diagonalization with overlap
     c_bands:  1 eigenvalues not converged
     ethr =  5.27E-07,  avg # of iterations =  6.7

     total cpu time spent up to now is       29.3 secs

     total energy              =    -305.46053609 Ry
     estimated scf accuracy    <       0.00126853 Ry

     iteration # 19     ecut=    40.00 Ry     beta= 0.05
     Davidson diagonalization with overlap
     ethr =  5.27E-07,  avg # of iterations =  5.0

     total cpu time spent up to now is       30.8 secs

     total energy              =    -305.45788062 Ry
     estimated scf accuracy    <       0.00420427 Ry

     iteration # 20     ecut=    40.00 Ry     beta= 0.05
     Davidson diagonalization with overlap
     ethr =  5.27E-07,  avg # of iterations =  7.2

     total cpu time spent up to now is       33.0 secs

     total energy              =    -305.45887357 Ry
     estimated scf accuracy    <       0.00025504 Ry

     iteration # 21     ecut=    40.00 Ry     beta= 0.05
     Davidson diagonalization with overlap
     ethr =  2.28E-07,  avg # of iterations =  2.5

     total cpu time spent up to now is       33.9 secs

     total energy              =    -305.45907690 Ry
     estimated scf accuracy    <       0.00034265 Ry

     iteration # 22     ecut=    40.00 Ry     beta= 0.05
     Davidson diagonalization with overlap
     c_bands:  1 eigenvalues not converged
     c_bands:  1 eigenvalues not converged
     ethr =  2.28E-07,  avg # of iterations =  6.9

     total cpu time spent up to now is       36.0 secs

     total energy              =    -305.45877751 Ry
     estimated scf accuracy    <       0.00076980 Ry

     iteration # 23     ecut=    40.00 Ry     beta= 0.05
     Davidson diagonalization with overlap
     c_bands:  1 eigenvalues not converged
     ethr =  2.28E-07,  avg # of iterations =  2.5

     total cpu time spent up to now is       37.0 secs

     total energy              =    -305.45876133 Ry
     estimated scf accuracy    <       0.00020344 Ry

     iteration # 24     ecut=    40.00 Ry     beta= 0.05
     Davidson diagonalization with overlap
     ethr =  1.82E-07,  avg # of iterations =  1.9

     total cpu time spent up to now is       37.9 secs

     total energy              =    -305.45872635 Ry
     estimated scf accuracy    <       0.00010551 Ry

     iteration # 25     ecut=    40.00 Ry     beta= 0.05
     Davidson diagonalization with overlap
     ethr =  9.42E-08,  avg # of iterations =  4.0

     total cpu time spent up to now is       39.1 secs

     total energy              =    -305.45873635 Ry
     estimated scf accuracy    <       0.00002371 Ry

     iteration # 26     ecut=    40.00 Ry     beta= 0.05
     Davidson diagonalization with overlap
     ethr =  2.12E-08,  avg # of iterations =  3.8

     total cpu time spent up to now is       40.5 secs

     total energy              =    -305.45875141 Ry
     estimated scf accuracy    <       0.00002266 Ry

     iteration # 27     ecut=    40.00 Ry     beta= 0.05
     Davidson diagonalization with overlap
     ethr =  2.02E-08,  avg # of iterations =  1.1

     total cpu time spent up to now is       41.3 secs

     total energy              =    -305.45874377 Ry
     estimated scf accuracy    <       0.00002528 Ry

     iteration # 28     ecut=    40.00 Ry     beta= 0.05
     Davidson diagonalization with overlap
     ethr =  2.02E-08,  avg # of iterations =  1.1

     total cpu time spent up to now is       42.1 secs

     total energy              =    -305.45874357 Ry
     estimated scf accuracy    <       0.00001287 Ry

     iteration # 29     ecut=    40.00 Ry     beta= 0.05
     Davidson diagonalization with overlap
     ethr =  1.15E-08,  avg # of iterations =  2.5

     total cpu time spent up to now is       43.1 secs

     total energy              =    -305.45874506 Ry
     estimated scf accuracy    <       0.00001198 Ry

     iteration # 30     ecut=    40.00 Ry     beta= 0.05
     Davidson diagonalization with overlap
     ethr =  1.07E-08,  avg # of iterations =  2.0

     total cpu time spent up to now is       44.0 secs

     total energy              =    -305.45874563 Ry
     estimated scf accuracy    <       0.00000537 Ry

     iteration # 31     ecut=    40.00 Ry     beta= 0.05
     Davidson diagonalization with overlap
     ethr =  4.80E-09,  avg # of iterations =  1.0

     total cpu time spent up to now is       44.8 secs

     total energy              =    -305.45874543 Ry
     estimated scf accuracy    <       0.00000350 Ry

     iteration # 32     ecut=    40.00 Ry     beta= 0.05
     Davidson diagonalization with overlap
     ethr =  3.13E-09,  avg # of iterations =  1.8

     total cpu time spent up to now is       45.6 secs

     total energy              =    -305.45874499 Ry
     estimated scf accuracy    <       0.00000198 Ry

     iteration # 33     ecut=    40.00 Ry     beta= 0.05
     Davidson diagonalization with overlap
     c_bands:  1 eigenvalues not converged
     ethr =  1.76E-09,  avg # of iterations =  4.3

     total cpu time spent up to now is       46.8 secs

     End of self-consistent calculation

          k = 0.0668 0.1390 0.0813 (  8631 PWs)   bands (ev):

   -15.0210 -14.8858 -14.7554 -10.6757 -10.6735 -10.5750 -10.5718 -10.4830
   -10.4799  -9.5996  -9.5372  -9.4821  -8.7577  -8.7048  -8.6702  -7.7807
    -7.7789  -7.7009  -7.6987  -7.6305  -7.6290  -5.0626  -4.2111  -3.6961
    -2.6541  -2.5568  -2.5195  -2.4949  -2.1814  -2.0680  -2.0635  -2.0354
    -2.0314  -2.0160  -2.0116  -0.7156  -0.6686  -0.4103  -0.1810  -0.1076
     0.3334   0.9466   0.9668   0.9736   1.0599   1.0670   1.1607   1.1758
     1.1802   1.5563   1.5656   1.8071   2.0148   2.0433   2.0998   2.4863
     5.7706   6.1592   6.3852   6.3944   6.4261   6.7516   6.7639   7.1381
     7.1601   7.9742   8.5081

          k = 0.0742 0.1165-0.0638 (  8632 PWs)   bands (ev):

   -15.0210 -14.8857 -14.7554 -10.6757 -10.6735 -10.5750 -10.5718 -10.4830
   -10.4800  -9.5996  -9.5372  -9.4821  -8.7577  -8.7048  -8.6702  -7.7807
    -7.7789  -7.7009  -7.6986  -7.6305  -7.6290  -5.0485  -4.3067  -3.5071
    -2.8521  -2.5568  -2.5195  -2.4949  -2.0890  -2.0680  -2.0635  -2.0354
    -2.0314  -2.0160  -2.0116  -0.7159  -0.6667  -0.4097  -0.1847  -0.1065
     0.3325   0.9466   0.9668   0.9737   1.0516   1.0733   1.1607   1.1758
     1.1802   1.5585   1.5722   1.8070   2.0142   2.0375   2.1015   2.4848
     5.7629   6.1714   6.3875   6.3914   6.4174   6.7624   6.7719   7.1341
     7.1493   7.9677   8.3621

          k = 0.0643 0.3100 0.0981 (  8619 PWs)   bands (ev):

   -14.6062 -14.4742 -14.3474 -12.1620 -12.0483 -11.9423 -11.2138 -11.1073
   -11.0094  -9.8610  -9.7675  -9.6843  -7.8731  -7.7982  -7.7329  -6.6028
    -6.5311  -6.4703  -5.7091  -5.6403  -5.5833  -4.5815  -3.8145  -3.7659
    -3.7298  -3.6639  -3.2967  -2.8696  -2.8282  -2.7993  -2.0949  -1.9119
    -1.7746  -1.6564  -1.6253  -1.6064  -1.1526  -1.0355  -0.4657  -0.4263
    -0.3981  -0.3801  -0.3363  -0.2884   0.3786   0.3934   0.4133   0.4160
     0.4261   0.6002   0.8661   1.2543   1.7829   1.9033   2.3369   2.7859
     5.9573   6.2223   6.4780   7.2304   7.5235   7.9053   8.4014   8.6336
     8.7398   9.1338   9.1698

          k = 0.0717 0.2874-0.0470 (  8624 PWs)   bands (ev):

   -14.6062 -14.4741 -14.3475 -12.1620 -12.0483 -11.9424 -11.2139 -11.1074
   -11.0094  -9.8610  -9.7675  -9.6844  -7.8731  -7.7982  -7.7329  -6.6028
    -6.5311  -6.4703  -5.7091  -5.6403  -5.5832  -4.5562  -3.8489  -3.8143
    -3.7656  -3.7294  -2.9240  -2.8695  -2.8282  -2.7993  -2.4832  -1.9080
    -1.6565  -1.6252  -1.6065  -1.5920  -1.1904  -1.0441  -0.4307  -0.3992
    -0.3824  -0.3694  -0.3170  -0.2953   0.2513   0.3931   0.4147   0.4203
     0.4260   0.6283   0.9168   1.2209   1.7956   1.9053   2.3351   2.7860
     5.9594   6.2125   6.4873   7.2167   7.5505   7.8915   8.3844   8.6346
     8.7493   8.8372   9.1334

          k = 0.0618 0.4809 0.1150 (  8619 PWs)   bands (ev):

   -13.8644 -13.7380 -13.6176 -13.3735 -13.2508 -13.1346 -11.4502 -11.3418
   -11.2417 -10.0716  -9.9744  -9.8868  -6.6769  -6.6275  -6.5908  -5.4549
    -5.4110  -5.3798  -5.0907  -5.0518  -5.0231  -3.9149  -3.8802  -3.8570
    -3.7293  -3.5095  -3.4553  -3.4144  -3.1723  -2.8574  -2.4206  -2.3906
    -2.3676  -2.3442  -2.3357  -1.7120  -1.3517  -1.2546  -0.9631  -0.9349
    -0.9332  -0.9168  -0.8896  -0.5337  -0.5062  -0.4907  -0.4601  -0.3175
    -0.2367   0.3606   0.4162   1.1290   1.6336   1.8719   2.3939   2.9375
     6.2343   6.4289   6.6616   7.8810   8.0752   8.2963   9.5907   9.9447
    10.3566  10.5865  10.7501

          k = 0.0692 0.4584-0.0301 (  8619 PWs)   bands (ev):

   -13.8644 -13.7380 -13.6177 -13.3735 -13.2507 -13.1346 -11.4503 -11.3418
   -11.2418 -10.0715  -9.9744  -9.8868  -6.6769  -6.6275  -6.5907  -5.4549
    -5.4110  -5.3798  -5.0907  -5.0518  -5.0231  -3.9148  -3.8803  -3.8570
    -3.7152  -3.5093  -3.4559  -3.4141  -3.1730  -2.9579  -2.4193  -2.3778
    -2.3667  -2.3374  -2.1518  -1.7073  -1.5646  -1.2515  -0.9631  -0.9358
    -0.9303  -0.9168  -0.8008  -0.5338  -0.5063  -0.4940  -0.4874  -0.3206
    -0.2313   0.4103   0.4551   1.0247   1.6770   1.8597   2.4106   2.9311
     6.2336   6.4296   6.6617   7.8818   8.0744   8.2963   9.5685   9.7952
    10.3544  10.5708  10.7812

          k = 0.0742-0.3739 0.0307 (  8619 PWs)   bands (ev):

   -14.2756 -14.1460 -14.0222 -12.8054 -12.6868 -12.5754 -11.3709 -11.2630
   -11.1635  -9.9995  -9.9036  -9.8176  -7.2398  -7.1706  -7.1120  -5.9766
    -5.9133  -5.8615  -4.6143  -4.5528  -4.5178  -4.5033  -4.4670  -4.4272
    -4.1800  -3.4470  -3.4385  -3.3942  -3.3625  -2.6082  -2.5468  -2.0517
    -1.7774  -1.3767  -1.3420  -1.3384  -1.3156  -1.3115  -1.2936  -1.2707
    -1.1963  -1.0580  -0.4103  -0.3399  -0.1870  -0.0721  -0.0467  -0.0335
     0.2701   0.3677   0.4513   1.1654   1.6925   1.8942   2.3800   2.8717
     6.1332   6.3291   6.5952   7.6230   7.8691   8.1735   9.1979   9.5576
     9.5882   9.7765   9.9079

          k = 0.0817-0.3964-0.1143 (  8617 PWs)   bands (ev):

   -14.2756 -14.1461 -14.0222 -12.8054 -12.6868 -12.5755 -11.3709 -11.2630
   -11.1636  -9.9995  -9.9036  -9.8176  -7.2398  -7.1705  -7.1120  -5.9766
    -5.9133  -5.8615  -4.6144  -4.5527  -4.5179  -4.5033  -4.4669  -4.4273
    -4.1983  -3.4390  -3.3948  -3.3630  -3.3137  -2.8681  -2.5552  -1.7905
    -1.7404  -1.3829  -1.3762  -1.3419  -1.3376  -1.3124  -1.3112  -1.2935
    -1.2270  -1.0861  -0.4238  -0.3128  -0.1731  -0.0721  -0.0467  -0.0335
     0.2364   0.3810   0.5050   1.0991   1.7203   1.8870   2.3876   2.8702
     6.1336   6.3299   6.5939   7.6170   7.8824   8.1654   9.4187   9.5812
     9.6129   9.7244   9.8955

          k = 0.0717-0.2029 0.0476 (  8633 PWs)   bands (ev):

   -14.8548 -14.7208 -14.5920 -11.4488 -11.3407 -11.2410 -10.9794 -10.8746
   -10.7787  -9.6805  -9.5980  -9.5278  -8.4392  -8.3713  -8.3106  -7.2124
    -7.1356  -7.0693  -6.7719  -6.6964  -6.6320  -4.8478  -4.1427  -3.2131
    -3.1293  -3.0864  -3.0560  -2.7650  -2.3886  -2.3519  -2.3278  -1.8993
    -1.8736  -1.8675  -1.8481  -1.2533  -0.9983  -0.5941  -0.1867  -0.1403
     0.2314   0.3575   0.3783   0.3928   0.4055   0.8075   0.8221   0.8406
     0.8467   0.9382   1.3795   1.5215   1.9234   1.9262   2.2405   2.5957
     5.8635   6.1551   6.3494   6.7734   7.1385   7.2873   7.5539   7.6672
     8.0671   8.4818   8.6390

          k = 0.0792-0.2254-0.0975 (  8626 PWs)   bands (ev):

   -14.8548 -14.7208 -14.5919 -11.4488 -11.3407 -11.2410 -10.9794 -10.8746
   -10.7787  -9.6805  -9.5980  -9.5277  -8.4392  -8.3713  -8.3106  -7.2124
    -7.1357  -7.0693  -6.7719  -6.6964  -6.6320  -4.8736  -3.9556  -3.5894
    -3.1293  -3.0864  -3.0560  -2.3887  -2.3678  -2.3518  -2.3278  -2.0588
    -1.8993  -1.8675  -1.8481  -1.2588  -1.0005  -0.5720  -0.1814  -0.1399
     0.2231   0.3190   0.3711   0.3926   0.4039   0.7956   0.8219   0.8406
     0.8466   1.0018   1.3941   1.4968   1.9190   1.9294   2.2350   2.5975
     5.8557   6.1558   6.3598   6.7683   7.1549   7.3018   7.5372   7.6338
     8.0873   8.6318   8.7510

          k = 0.0693-0.0319 0.0644 (  8647 PWs)   bands (ev):

   -15.1041 -14.9682 -14.8372 -10.3029 -10.2056 -10.1181  -9.8972  -9.8967
    -9.8153  -9.8122  -9.7462  -9.7398  -8.6504  -8.6487  -8.5809  -8.5784
    -8.5177  -8.5155  -8.2712  -8.1908  -8.1195  -5.1490  -4.3958  -3.6297
    -2.9220  -2.1922  -2.1513  -2.1466  -2.1186  -2.1143  -2.0990  -2.0944
    -1.9867  -1.9553  -1.9370  -0.6860  -0.3163  -0.2210  -0.0492   0.0749
     0.1262   1.2657   1.2824   1.2875   1.3327   1.3341   1.3531   1.3592
     1.6275   1.6607   1.7482   1.9269   1.9428   2.2086   2.2433   2.3000
     5.8737   5.9393   6.0314   6.2538   6.2798   6.4649   6.4791   6.5089
     6.8103   7.9859   8.2768

          k = 0.0767-0.0545-0.0807 (  8640 PWs)   bands (ev):

   -15.1041 -14.9683 -14.8372 -10.3029 -10.2055 -10.1181  -9.8972  -9.8967
    -9.8154  -9.8122  -9.7462  -9.7398  -8.6504  -8.6487  -8.5809  -8.5784
    -8.5177  -8.5155  -8.2712  -8.1908  -8.1195  -5.1596  -4.3240  -3.7711
    -2.7741  -2.2613  -2.1513  -2.1466  -2.1186  -2.1143  -2.0989  -2.0944
    -1.9866  -1.9552  -1.9370  -0.6874  -0.3167  -0.2216  -0.0483   0.0759
     0.1301   1.2656   1.2819   1.2873   1.3179   1.3341   1.3531   1.3592
     1.6256   1.6617   1.7677   1.9289   1.9458   2.2016   2.2409   2.2967
     5.8849   5.9499   6.0486   6.2394   6.2575   6.4456   6.4690   6.5240
     6.8297   7.9822   8.3729

          k = 0.2102 0.2235 0.0819 (  8606 PWs)   bands (ev):

   -14.6060 -14.4740 -14.3473 -12.1608 -12.0470 -11.9408 -11.2156 -11.1093
   -11.0116  -9.8623  -9.7690  -9.6859  -7.8717  -7.7963  -7.7306  -6.6042
    -6.5317  -6.4707  -5.7068  -5.6386  -5.5815  -4.5775  -3.8151  -3.7666
    -3.7308  -3.7108  -3.2264  -2.8663  -2.8254  -2.7961  -2.1668  -1.9248
    -1.7230  -1.6606  -1.6286  -1.6104  -1.1607  -1.0297  -0.4291  -0.3971
    -0.3888  -0.3774  -0.3570  -0.2778   0.3014   0.3902   0.4130   0.4159
     0.4243   0.5925   0.9064   1.2628   1.7659   1.9067   2.3294   2.7871
     5.9419   6.2218   6.4982   7.2233   7.5348   7.9086   8.3979   8.6107
     8.7449   9.0571   9.1567

          k = 0.2176 0.2010-0.0632 (  8632 PWs)   bands (ev):

   -14.6061 -14.4740 -14.3473 -12.1608 -12.0470 -11.9409 -11.2156 -11.1093
   -11.0116  -9.8623  -9.7690  -9.6859  -7.8718  -7.7963  -7.7306  -6.6042
    -6.5317  -6.4707  -5.7068  -5.6386  -5.5815  -4.5617  -3.8239  -3.8145
    -3.7661  -3.7297  -3.0039  -2.8663  -2.8254  -2.7960  -2.4017  -1.9222
    -1.6605  -1.6289  -1.6178  -1.6102  -1.1506  -1.0222  -0.4399  -0.4220
    -0.3966  -0.3781  -0.3561  -0.2829   0.3341   0.3903   0.4125   0.4170
     0.4240   0.6417   0.8926   1.2048   1.7875   1.9003   2.3391   2.7826
     5.9483   6.2078   6.5079   7.2251   7.5327   7.9092   8.3753   8.6211
     8.7462   8.8787   9.1402

          k = 0.2077 0.3945 0.0988 (  8599 PWs)   bands (ev):

   -14.0287 -13.9011 -13.7793 -12.5643 -12.5623 -12.4481 -12.4450 -12.3381
   -12.3362  -8.7646  -8.7066  -8.6568  -7.9815  -7.9430  -7.9231  -5.4157
    -5.3623  -5.3189  -4.5364  -4.5343  -4.4803  -4.4792  -4.4367  -4.4363
    -3.9148  -3.0134  -2.6130  -2.3584  -2.2961  -2.2659  -2.2610  -2.2283
    -2.2255  -2.2052  -2.2019  -1.7213  -1.6919  -1.6752  -1.5161  -1.4589
    -1.4272  -1.1198  -0.8833  -0.8562  -0.7218  -0.6997  -0.6906  -0.0257
     0.0430   0.2218   0.4788   0.5157   0.7572   3.0182   3.2938   3.6720
     5.3427   5.4046   5.4733   9.2231   9.4027   9.4190   9.6417   9.6574
     9.8531   9.9445   9.9581

          k = 0.2151 0.3720-0.0463 (  8616 PWs)   bands (ev):

   -14.0287 -13.9010 -13.7793 -12.5644 -12.5624 -12.4481 -12.4450 -12.3381
   -12.3362  -8.7646  -8.7066  -8.6568  -7.9815  -7.9430  -7.9231  -5.4157
    -5.3623  -5.3189  -4.5364  -4.5343  -4.4804  -4.4792  -4.4367  -4.4363
    -3.8930  -3.1727  -2.3592  -2.3241  -2.2667  -2.2648  -2.2425  -2.2291
    -2.2185  -2.2045  -2.2016  -1.8098  -1.7212  -1.6921  -1.6751  -1.5533
    -1.5029  -0.9609  -0.7689  -0.7207  -0.7075  -0.6991  -0.6903  -0.1663
    -0.1068   0.2270   0.5473   0.5744   0.7516   3.0175   3.2969   3.6694
     5.3451   5.4037   5.4720   9.2137   9.3971   9.4164   9.5388   9.6578
     9.6727   9.9301   9.9541

          k = 0.2052 0.5654 0.1156 (  8588 PWs)   bands (ev):

   -13.6185 -13.4939 -13.3756 -13.1301 -13.0092 -12.8950 -12.6434 -12.5260
   -12.4158  -8.6315  -8.5572  -8.4949  -7.6707  -7.6290  -7.5960  -6.0123
    -5.9757  -5.9475  -4.0631  -4.0256  -4.0009  -3.5160  -3.4701  -3.4530
    -3.4338  -2.9075  -2.6592  -2.6255  -2.5960  -2.5789  -2.5576  -2.5233
    -2.5021  -2.4110  -2.0609  -1.9591  -1.8358  -1.8025  -1.7822  -1.5420
    -1.4874  -1.3163  -1.2901  -1.2767  -1.1909  -0.9837  -0.5962  -0.5545
    -0.0985  -0.0235   0.4007   0.4210   0.7499   3.3487   3.6630   4.0322
     4.9221   5.1198   5.2843   9.7149   9.8341   9.8952  10.0927  10.1677
    10.2738  10.5010  10.7331

          k = 0.2126 0.5429-0.0295 (  8594 PWs)   bands (ev):

   -13.6185 -13.4939 -13.3756 -13.1301 -13.0092 -12.8951 -12.6435 -12.5260
   -12.4159  -8.6315  -8.5571  -8.4949  -7.6707  -7.6290  -7.5960  -6.0123
    -5.9757  -5.9475  -4.0631  -4.0256  -4.0009  -3.5162  -3.4698  -3.4554
    -3.4340  -2.8977  -2.6470  -2.6236  -2.5963  -2.5788  -2.5570  -2.5232
    -2.5021  -2.3956  -2.1280  -1.9965  -1.8356  -1.8029  -1.7822  -1.6148
    -1.3573  -1.3159  -1.2901  -1.2766  -1.1623  -0.7863  -0.7246  -0.5822
    -0.2468  -0.0295   0.4150   0.5044   0.7482   3.3484   3.6638   4.0316
     4.9231   5.1178   5.2855   9.7158   9.8545   9.8999  10.0876  10.1743
    10.2509  10.5072  10.7304

          k = 0.2177-0.2893 0.0314 (  8627 PWs)   bands (ev):

   -14.3579 -14.2277 -14.1031 -12.4011 -12.2854 -12.1772 -11.9248 -11.8129
   -11.7091  -9.2558  -9.1770  -9.1106  -8.0431  -7.9795  -7.9235  -5.5764
    -5.5109  -5.4574  -5.1154  -5.0525  -5.0011  -4.6261  -4.5727  -4.5306
    -4.2769  -3.5486  -2.6735  -2.6094  -2.5698  -2.5421  -2.2068  -2.1585
    -1.8951  -1.8596  -1.8381  -1.6633  -1.3325  -1.3111  -1.0145  -0.9870
    -0.9715  -0.9156  -0.6817  -0.1225  -0.1014  -0.0962  -0.0851   0.1440
     0.1781   0.4516   0.5769   0.6627   1.1636   2.5157   2.8321   3.1860
     5.6474   5.7688   5.9914   8.2559   8.5745   8.9252   8.9469   9.1160
     9.2027   9.3351   9.5988

          k = 0.2251-0.3119-0.1137 (  8618 PWs)   bands (ev):

   -14.3579 -14.2277 -14.1031 -12.4011 -12.2854 -12.1772 -11.9248 -11.8130
   -11.7091  -9.2558  -9.1771  -9.1105  -8.0431  -7.9795  -7.9235  -5.5764
    -5.5109  -5.4575  -5.1154  -5.0525  -5.0011  -4.6261  -4.5727  -4.5306
    -4.2974  -3.3995  -2.9777  -2.6093  -2.5700  -2.5420  -2.1912  -1.8948
    -1.8602  -1.8442  -1.8372  -1.6701  -1.4962  -1.3341  -1.0147  -0.9865
    -0.9716  -0.9016  -0.5880  -0.1466  -0.1172  -0.0972  -0.0867   0.0404
     0.1817   0.4682   0.6059   0.7070   1.1447   2.5196   2.8259   3.1886
     5.6455   5.7672   5.9951   8.2654   8.5568   8.9241   8.9382   9.2386
     9.3190   9.4482   9.5352

          k = 0.2152-0.1184 0.0482 (  8630 PWs)   bands (ev):

   -14.7716 -14.6382 -14.5101 -11.8412 -11.7296 -11.6261 -10.4501 -10.4490
   -10.3512 -10.3494 -10.2616 -10.2595  -7.5871  -7.5850  -7.5095  -7.5070
    -7.4419  -7.4396  -6.2610  -6.1890  -6.1279  -4.7536  -4.0409  -3.1302
    -3.0435  -3.0392  -3.0011  -2.9970  -2.9710  -2.9668  -2.6569  -1.7988
    -1.6683  -1.6595  -1.6287  -1.6110  -0.8554  -0.5008  -0.4415  -0.0580
    -0.0241   0.0597   0.0778   0.0883   0.1026   0.5927   0.7034   0.7272
     0.7376   1.1991   1.3380   1.3599   1.8225   1.8563   2.2951   2.3261
     6.3281   6.3587   6.6605   6.6773   7.0130   7.0227   7.8159   8.1825
     8.5736   8.6334   9.0172

          k = 0.2226-0.1409-0.0969 (  8632 PWs)   bands (ev):

   -14.7716 -14.6383 -14.5101 -11.8411 -11.7296 -11.6261 -10.4501 -10.4490
   -10.3512 -10.3494 -10.2615 -10.2595  -7.5871  -7.5850  -7.5095  -7.5070
    -7.4419  -7.4396  -6.2610  -6.1890  -6.1279  -4.7777  -3.8670  -3.4802
    -3.0435  -3.0392  -3.0011  -2.9970  -2.9710  -2.9668  -2.2885  -1.9571
    -1.6858  -1.6596  -1.6287  -1.6110  -0.8373  -0.5020  -0.4418  -0.0913
    -0.0318   0.0597   0.0819   0.0876   0.1028   0.6428   0.7034   0.7271
     0.7376   1.1787   1.3312   1.3520   1.8262   1.8629   2.2965   2.3254
     6.3410   6.3668   6.6462   6.6506   7.0205   7.0381   7.8107   8.1941
     8.6044   8.8943   9.0178

          k = 0.2127 0.0526 0.0651 (  8637 PWs)   bands (ev):

   -14.8547 -14.7207 -14.5918 -11.4476 -11.3393 -11.2394 -10.9801 -10.8753
   -10.7794  -9.6815  -9.6017  -9.5347  -8.4372  -8.3707  -8.3112  -7.2115
    -7.1346  -7.0681  -6.7695  -6.6944  -6.6298  -4.8584  -4.0876  -3.3644
    -3.1253  -3.0829  -3.0522  -2.6088  -2.3892  -2.3525  -2.3284  -1.9235
    -1.9040  -1.8717  -1.8526  -1.2705  -0.9954  -0.5739  -0.2103  -0.0393
     0.1422   0.3597   0.3816   0.3935   0.4041   0.8176   0.8271   0.8406
     0.8466   0.9372   1.3539   1.5352   1.9320   1.9586   2.2365   2.5402
     5.9164   6.1489   6.3227   6.7602   7.1627   7.2746   7.5425   7.6635
     8.0844   8.5557   8.7096

          k = 0.2201 0.0301-0.0800 (  8637 PWs)   bands (ev):

   -14.8546 -14.7207 -14.5918 -11.4476 -11.3393 -11.2393 -10.9801 -10.8753
   -10.7794  -9.6815  -9.6017  -9.5347  -8.4372  -8.3707  -8.3112  -7.2115
    -7.1346  -7.0681  -6.7695  -6.6943  -6.6298  -4.8649  -4.0435  -3.4515
    -3.1253  -3.0829  -3.0522  -2.5178  -2.3892  -2.3524  -2.3284  -1.9660
    -1.9040  -1.8717  -1.8526  -1.2750  -0.9990  -0.5496  -0.1966  -0.0374
     0.1361   0.3119   0.3743   0.3935   0.4028   0.7779   0.8192   0.8398
     0.8461   1.0081   1.4148   1.5078   1.9079   1.9599   2.2320   2.5439
     5.9096   6.1447   6.3336   6.7724   7.1336   7.2789   7.5641   7.6526
     8.0907   8.6109   8.7174

          k = 0.3536 0.3081 0.0825 (  8622 PWs)   bands (ev):

   -13.8640 -13.7376 -13.6172 -13.3728 -13.2500 -13.1337 -11.4518 -11.3435
   -11.2436 -10.0735  -9.9765  -9.8891  -6.6775  -6.6242  -6.5835  -5.4573
    -5.4095  -5.3749  -5.0943  -5.0531  -5.0221  -3.9167  -3.8802  -3.8546
    -3.7295  -3.5069  -3.4535  -3.4126  -3.1844  -2.8509  -2.4165  -2.3817
    -2.3683  -2.3495  -2.3354  -1.7022  -1.3509  -1.2334  -0.9666  -0.9398
    -0.9364  -0.9198  -0.9008  -0.5377  -0.5098  -0.4945  -0.4672  -0.3190
    -0.2121   0.3632   0.4067   1.1234   1.6289   1.8699   2.3945   2.9294
     6.1914   6.4320   6.7106   7.8431   8.0767   8.3399   9.5444   9.8995
    10.2673  10.4228  10.6978

          k = 0.3611 0.2855-0.0626 (  8623 PWs)   bands (ev):

   -13.8641 -13.7376 -13.6172 -13.3728 -13.2499 -13.1337 -11.4518 -11.3435
   -11.2436 -10.0735  -9.9765  -9.8891  -6.6775  -6.6242  -6.5835  -5.4573
    -5.4095  -5.3749  -5.0943  -5.0531  -5.0221  -3.9166  -3.8802  -3.8546
    -3.7142  -3.5066  -3.4541  -3.4122  -3.1896  -2.9535  -2.4154  -2.3725
    -2.3606  -2.3357  -2.1402  -1.7126  -1.5734  -1.2470  -0.9665  -0.9367
    -0.9200  -0.9140  -0.7984  -0.5382  -0.5116  -0.5049  -0.4926  -0.3103
    -0.2209   0.4015   0.4520   1.0249   1.6697   1.8625   2.4036   2.9265
     6.1914   6.4311   6.7114   7.8437   8.0765   8.3395   9.5322   9.7325
    10.2446  10.4304  10.6882

          k = 0.3511 0.4790 0.0994 (  8588 PWs)   bands (ev):

   -13.6179 -13.4932 -13.3749 -13.1298 -13.0089 -12.8948 -12.6444 -12.5270
   -12.4169  -8.6331  -8.5609  -8.5011  -7.6724  -7.6254  -7.5879  -6.0140
    -5.9751  -5.9447  -4.0639  -4.0232  -3.9955  -3.5133  -3.4692  -3.4609
    -3.4318  -2.9217  -2.6307  -2.6043  -2.5912  -2.5753  -2.5551  -2.5236
    -2.5045  -2.3878  -2.0914  -2.0213  -1.8388  -1.8055  -1.7851  -1.5677
    -1.5331  -1.3157  -1.2899  -1.2779  -1.0629  -0.9495  -0.6353  -0.5224
    -0.1318  -0.0664   0.4050   0.4658   0.7249   3.3672   3.6635   3.9929
     4.8846   5.1232   5.3379   9.6785   9.8814   9.9735  10.1232  10.1836
    10.3265  10.5118  10.6988

          k = 0.3586 0.4565-0.0457 (  8608 PWs)   bands (ev):

   -13.6179 -13.4932 -13.3749 -13.1299 -13.0089 -12.8948 -12.6444 -12.5269
   -12.4169  -8.6331  -8.5609  -8.5012  -7.6725  -7.6255  -7.5879  -6.0140
    -5.9751  -5.9447  -4.0639  -4.0231  -3.9954  -3.5132  -3.4665  -3.4500
    -3.4313  -2.9071  -2.6925  -2.6289  -2.5990  -2.5791  -2.5542  -2.5237
    -2.5048  -2.3875  -2.1424  -1.8656  -1.8388  -1.8057  -1.7855  -1.6095
    -1.3192  -1.3128  -1.2905  -1.2812  -1.2737  -0.8322  -0.7802  -0.5280
    -0.2086  -0.0083   0.4344   0.5015   0.7189   3.3669   3.6649   3.9913
     4.8869   5.1198   5.3397   9.6819   9.8655   9.9392  10.0633  10.1508
    10.2856  10.5021  10.6138

          k = 0.3486 0.6500 0.1162 (  8615 PWs)   bands (ev):

   -13.5369 -13.5352 -13.4136 -13.4104 -13.2951 -13.2935 -12.0849 -11.9718
   -11.8665  -9.3505  -9.2616  -9.1832  -7.1083  -7.0574  -7.0182  -5.7063
    -5.6690  -5.6451  -4.6910  -4.6505  -4.6221  -3.4147  -3.3574  -3.3373
    -3.3237  -3.3066  -2.9645  -2.9638  -2.9192  -2.9167  -2.8852  -2.8830
    -2.5690  -2.4604  -2.0301  -1.8549  -1.7997  -1.1386  -1.1130  -1.1116
    -1.0823  -1.0804  -1.0646  -1.0629  -1.0255  -0.9353  -0.5689  -0.4657
    -0.3037   0.2736   0.4633   0.5644   1.0158   2.6380   3.0828   3.5486
     5.4163   5.7071   6.0296   8.7527   9.0016   9.2768   9.8862  10.1125
    10.2168  10.5217  10.9743

          k = 0.3561 0.6274-0.0289 (  8615 PWs)   bands (ev):

   -13.5370 -13.5352 -13.4136 -13.4104 -13.2952 -13.2936 -12.0849 -11.9718
   -11.8665  -9.3505  -9.2616  -9.1832  -7.1083  -7.0574  -7.0182  -5.7063
    -5.6690  -5.6451  -4.6910  -4.6505  -4.6222  -3.4086  -3.3577  -3.3297
    -3.3251  -3.3060  -2.9650  -2.9637  -2.9189  -2.9168  -2.8852  -2.8828
    -2.6094  -2.5166  -1.9395  -1.8052  -1.7293  -1.2517  -1.1135  -1.1114
    -1.0830  -1.0807  -1.0672  -1.0640  -1.0619  -1.0236  -0.5097  -0.4270
    -0.2461   0.2575   0.4333   0.5464   1.0423   2.6385   3.0830   3.5480
     5.4161   5.7083   6.0288   8.7523   9.0027   9.2761   9.8521  10.0680
    10.2313  10.4006  11.1187

          k = 0.3611-0.2048 0.0320 (  8613 PWs)   bands (ev):

   -14.1102 -13.9819 -13.8594 -13.1280 -13.0070 -12.8927 -10.7546 -10.7540
   -10.6523 -10.6511 -10.5585 -10.5578  -6.3379  -6.3355  -6.2746  -6.2722
    -6.2233  -6.2211  -4.2951  -4.2920  -4.2482  -4.2449  -4.2119  -4.2089
    -4.0650  -4.0112  -3.9956  -3.9614  -3.2716  -2.9268  -2.3813  -2.0908
    -1.8849  -1.8655  -1.8254  -1.7958  -1.4825  -1.0532  -1.0356  -1.0061
    -0.9896  -0.6533  -0.6238  -0.5746  -0.1922  -0.1649  -0.1507  -0.1187
    -0.0631   0.0509   1.1355   1.1613   1.7073   1.7561   2.2757   2.3025
     6.8827   6.8863   7.1615   7.1656   7.4887   7.4911   9.3884   9.8638
    10.0107  10.2489  10.4327

          k = 0.3686-0.2273-0.1131 (  8630 PWs)   bands (ev):

   -14.1102 -13.9819 -13.8593 -13.1281 -13.0070 -12.8928 -10.7546 -10.7540
   -10.6523 -10.6511 -10.5585 -10.5578  -6.3379  -6.3355  -6.2746  -6.2722
    -6.2233  -6.2211  -4.2951  -4.2920  -4.2482  -4.2449  -4.2120  -4.2089
    -4.0654  -4.0202  -4.0069  -3.9610  -3.1303  -2.9088  -2.6971  -2.1224
    -1.8679  -1.8255  -1.7960  -1.5665  -1.3852  -1.2032  -1.0356  -1.0061
    -0.9896  -0.7309  -0.6452  -0.5818  -0.1921  -0.1649  -0.1506  -0.0921
    -0.0373   0.0529   1.1255   1.1503   1.7193   1.7691   2.2708   2.2984
     6.8843   6.8865   7.1601   7.1648   7.4890   7.4911   9.6444   9.9022
    10.0237  10.2126  10.3352

          k = 0.3586-0.0338 0.0488 (  8629 PWs)   bands (ev):

   -14.3577 -14.2274 -14.1029 -12.4016 -12.2859 -12.1778 -11.9242 -11.8123
   -11.7083  -9.2555  -9.1793  -9.1160  -8.0418  -7.9798  -7.9253  -5.5734
    -5.5083  -5.4547  -5.1145  -5.0512  -4.9995  -4.6229  -4.5698  -4.5274
    -4.2783  -3.5482  -2.6769  -2.6135  -2.5736  -2.5460  -2.2044  -2.1481
    -1.8963  -1.8606  -1.8392  -1.6608  -1.3678  -1.3194  -1.0131  -0.9876
    -0.9743  -0.9277  -0.5927  -0.1193  -0.0960  -0.0885  -0.0595   0.0375
     0.2569   0.3826   0.5318   0.7061   1.1826   2.5457   2.8289   3.1356
     5.6802   5.7622   5.9855   8.2547   8.5721   8.9298   8.9325   9.0954
     9.2284   9.3854   9.6050

          k = 0.3661-0.0564-0.0962 (  8626 PWs)   bands (ev):

   -14.3576 -14.2275 -14.1028 -12.4016 -12.2859 -12.1778 -11.9242 -11.8123
   -11.7083  -9.2555  -9.1793  -9.1160  -8.0418  -7.9798  -7.9253  -5.5734
    -5.5083  -5.4547  -5.1144  -5.0512  -4.9995  -4.6229  -4.5698  -4.5274
    -4.2985  -3.4020  -2.9748  -2.6135  -2.5737  -2.5460  -2.1932  -1.8960
    -1.8618  -1.8471  -1.8379  -1.6745  -1.4849  -1.3073  -1.0132  -0.9876
    -0.9741  -0.8809  -0.6816  -0.1788  -0.1173  -0.0959  -0.0867   0.1348
     0.2686   0.3833   0.6412   0.6701   1.1319   2.5489   2.8245   3.1363
     5.6800   5.7663   5.9821   8.2585   8.5647   8.9235   8.9331   9.2342
     9.3216   9.4340   9.6041

          k = 0.3561 0.1371 0.0657 (  8619 PWs)   bands (ev):

   -14.2752 -14.1456 -14.0218 -12.8046 -12.6860 -12.5746 -11.3721 -11.2643
   -11.1649 -10.0016  -9.9063  -9.8209  -7.2402  -7.1696  -7.1104  -5.9752
    -5.9108  -5.8581  -4.6113  -4.5502  -4.5159  -4.5006  -4.4649  -4.4246
    -4.1898  -3.4409  -3.4019  -3.3925  -3.3633  -2.7289  -2.5456  -1.9303
    -1.7923  -1.3737  -1.3464  -1.3376  -1.3202  -1.3154  -1.3002  -1.2973
    -1.2024  -0.9804  -0.4467  -0.4173  -0.1442  -0.0748  -0.0484  -0.0356
     0.3035   0.3402   0.5177   1.0809   1.7229   1.8974   2.3801   2.8501
     6.1114   6.3360   6.6250   7.5972   7.8785   8.1951   9.2840   9.5708
     9.5986   9.6817   9.9013

          k = 0.3636 0.1146-0.0794 (  8616 PWs)   bands (ev):

   -14.2752 -14.1457 -14.0218 -12.8046 -12.6861 -12.5746 -11.3721 -11.2643
   -11.1649 -10.0016  -9.9063  -9.8209  -7.2402  -7.1696  -7.1104  -5.9752
    -5.9108  -5.8582  -4.6113  -4.5502  -4.5159  -4.5005  -4.4649  -4.4246
    -4.1921  -3.4409  -3.3974  -3.3824  -3.3626  -2.7511  -2.5689  -1.8916
    -1.7155  -1.3742  -1.3464  -1.3375  -1.3243  -1.3155  -1.3029  -1.2977
    -1.2141  -1.1597  -0.4102  -0.2360  -0.1329  -0.0748  -0.0484  -0.0356
     0.1932   0.3563   0.4392   1.1788   1.6823   1.8984   2.3814   2.8483
     6.1161   6.3262   6.6299   7.5992   7.8735   8.1986   9.2996   9.5512
     9.5998   9.6861   9.8975

     the Fermi energy is     4.4586 ev

!    total energy              =    -305.45874473 Ry
     estimated scf accuracy    <       0.00000063 Ry
     smearing contrib. (-TS)   =      -0.00000004 Ry
     internal energy E=F+TS    =    -305.45874469 Ry

     The total energy is F=E-TS. E is the sum of the following terms:
     one-electron contribution =    -434.18853430 Ry
     hartree contribution      =     262.93730542 Ry
     xc contribution           =    -110.25852280 Ry
     ewald contribution        =     -23.94899302 Ry

     convergence has been achieved in  33 iterations

     Forces acting on atoms (cartesian axes, Ry/au):

     atom    1 type  1   force =     0.00025318    0.00023721    0.00178066
     atom    2 type  1   force =     0.00003278   -0.00025519    0.00024406
     atom    3 type  1   force =    -0.00002412   -0.00008560    0.00070363
     atom    4 type  1   force =    -0.00055531    0.00015809    0.00044721
     atom    5 type  1   force =    -0.00020117    0.00006140    0.00060079
     atom    6 type  1   force =    -0.00028937   -0.00012752   -0.00147642
     atom    7 type  1   force =     0.00051482   -0.00041528   -0.00032093
     atom    8 type  1   force =    -0.00000801   -0.00018855    0.00131364
     atom    9 type  1   force =     0.00001180    0.00043179    0.00155191
     atom   10 type  1   force =    -0.00084113   -0.00002692   -0.00196425
     atom   11 type  1   force =     0.00002207    0.00012313    0.00029923
     atom   12 type  1   force =    -0.00024791   -0.00007866   -0.00055037
     atom   13 type  1   force =     0.00015045   -0.00004563   -0.00022640
     atom   14 type  1   force =     0.00014591   -0.00023364   -0.00073390
     atom   15 type  1   force =     0.00048003    0.00006296   -0.00026483
     atom   16 type  1   force =    -0.00029749    0.00014815    0.00109160
     atom   17 type  1   force =     0.00033951    0.00060994    0.00079578
     atom   18 type  1   force =    -0.00031829    0.00033636    0.00192828
     atom   19 type  1   force =     0.00028940   -0.00062452   -0.00107995
     atom   20 type  1   force =     0.00004051   -0.00003772   -0.00029566
     atom   21 type  1   force =     0.00033501    0.00001426   -0.00185981
     atom   22 type  1   force =    -0.00043190    0.00052923    0.00012851
     atom   23 type  1   force =     0.00038015   -0.00011531   -0.00152577
     atom   24 type  1   force =    -0.00053000    0.00000686    0.00024877
     atom   25 type  2   force =     0.00354992   -0.00128677    0.00302783
     atom   26 type  2   force =    -0.00375122    0.00048597   -0.00225525
     atom   27 type  2   force =     0.00092520   -0.00110232   -0.00051704
     atom   28 type  2   force =     0.00029292    0.00146563   -0.00057608
     atom   29 type  2   force =     0.00238237   -0.00252997    0.00076699
     atom   30 type  2   force =    -0.00286077    0.00233228   -0.00117931
     atom   31 type  2   force =     0.00037928    0.00305251   -0.00063860
     atom   32 type  2   force =    -0.00102686   -0.00171851   -0.00036923
     atom   33 type  2   force =     0.00032140    0.00136739   -0.00000121
     atom   34 type  2   force =     0.00007151   -0.00137843    0.00016920
     atom   35 type  2   force =    -0.00045371   -0.00030767    0.00030974
     atom   36 type  2   force =     0.00016970    0.00003392    0.00030251
     atom   37 type  2   force =     0.00068562    0.00023598    0.00000306
     atom   38 type  2   force =    -0.00083104   -0.00070154    0.00000323
     atom   39 type  2   force =    -0.00033895   -0.00067810    0.00008409
     atom   40 type  2   force =     0.00123368    0.00024480    0.00003428
     The non-local contrib.  to forces
     atom    1 type  1   force =     0.00013558    0.00047156    0.00030814
     atom    2 type  1   force =     0.00025516   -0.00082116   -0.00082331
     atom    3 type  1   force =    -0.00014995    0.00064154    0.00053811
     atom    4 type  1   force =    -0.00016175   -0.00032363    0.00004167
     atom    5 type  1   force =     0.00050407   -0.00083376   -0.00087427
     atom    6 type  1   force =     0.00020900   -0.00113816    0.00039714
     atom    7 type  1   force =     0.00027175   -0.00005990    0.00012288
     atom    8 type  1   force =     0.00014702   -0.00164399    0.00160657
     atom    9 type  1   force =    -0.00055127    0.00102339    0.00002018
     atom   10 type  1   force =    -0.00075185   -0.00009581   -0.00052786
     atom   11 type  1   force =    -0.00117882   -0.00073514   -0.00091353
     atom   12 type  1   force =    -0.00043594   -0.00109050    0.00056676
     atom   13 type  1   force =    -0.00031107    0.00046672   -0.00006234
     atom   14 type  1   force =     0.00071232   -0.00000551   -0.00162278
     atom   15 type  1   force =     0.00010814    0.00024742    0.00208940
     atom   16 type  1   force =     0.00032398   -0.00049895    0.00033026
     atom   17 type  1   force =     0.00021273    0.00303135    0.00054765
     atom   18 type  1   force =     0.00033906    0.00105924    0.00157755
     atom   19 type  1   force =    -0.00014982   -0.00024434   -0.00023266
     atom   20 type  1   force =    -0.00048650   -0.00025557   -0.00176477
     atom   21 type  1   force =     0.00026056   -0.00003767    0.00104291
     atom   22 type  1   force =     0.00013207    0.00026341   -0.00005690
     atom   23 type  1   force =     0.00092708    0.00031088   -0.00186267
     atom   24 type  1   force =    -0.00083169    0.00064945    0.00120721
     atom   25 type  2   force =     0.05240627   -0.01302323    0.03113420
     atom   26 type  2   force =    -0.05226813    0.01288597   -0.03131402
     atom   27 type  2   force =    -0.00169242   -0.06247240   -0.00218794
     atom   28 type  2   force =     0.00162607    0.06247466    0.00211777
     atom   29 type  2   force =     0.05261148   -0.03117814    0.01321048
     atom   30 type  2   force =    -0.05255078    0.03122709   -0.01308236
     atom   31 type  2   force =     0.01932886    0.05929693   -0.00260883
     atom   32 type  2   force =    -0.01919596   -0.05919334    0.00307121
     atom   33 type  2   force =     0.00775176    0.06226169   -0.00378463
     atom   34 type  2   force =    -0.00777747   -0.06228955    0.00360743
     atom   35 type  2   force =    -0.06088237    0.01009541   -0.01180522
     atom   36 type  2   force =     0.06087707   -0.01004014    0.01183597
     atom   37 type  2   force =     0.02898974    0.05539312    0.00286838
     atom   38 type  2   force =    -0.02915484   -0.05549841   -0.00321444
     atom   39 type  2   force =    -0.06182584   -0.00471603   -0.00826886
     atom   40 type  2   force =     0.06180280    0.00491985    0.00845982
     The ionic contribution  to forces
     atom    1 type  1   force =     0.00027667   -0.00215472   -0.03149474
     atom    2 type  1   force =    -0.41615903    1.34050050    8.72040596
     atom    3 type  1   force =     0.45026483   -1.35895916   -8.71008200
     atom    4 type  1   force =     0.00265031   -0.00478777   -0.01065226
     atom    5 type  1   force =    -0.44615050    1.33601203    8.73371841
     atom    6 type  1   force =     0.45132925   -1.35712797   -8.62733769
     atom    7 type  1   force =    -0.00280297    0.00506860    0.01799308
     atom    8 type  1   force =    -0.47541196    1.34378845    8.68972106
     atom    9 type  1   force =     0.44023269   -1.32782200   -8.68432364
     atom   10 type  1   force =    -0.00264369    0.00629057    0.04302999
     atom   11 type  1   force =    -0.44608185    1.36304245    8.68359597
     atom   12 type  1   force =     0.43579812   -1.34171257   -8.68349191
     atom   13 type  1   force =    -0.00168170    0.00528761    0.01503151
     atom   14 type  1   force =    -0.45525036    1.37976796    8.75282515
     atom   15 type  1   force =     0.42095631   -1.34254568   -8.65053880
     atom   16 type  1   force =     0.00041566   -0.00560753   -0.02114623
     atom   17 type  1   force =    -0.47395765    1.35771344    8.69958011
     atom   18 type  1   force =     0.42227009   -1.34588973   -8.71331599
     atom   19 type  1   force =    -0.00064093    0.00422790    0.03552554
     atom   20 type  1   force =    -0.43994489    1.34077119    8.70836305
     atom   21 type  1   force =     0.46306079   -1.34465386   -8.63876020
     atom   22 type  1   force =     0.00068011   -0.00110031   -0.00184151
     atom   23 type  1   force =    -0.42390749    1.37056933    8.77095593
     atom   24 type  1   force =     0.47046814   -1.35208341   -8.67608531
     atom   25 type  2   force =    -0.77104202    0.48872347    1.74104685
     atom   26 type  2   force =     0.56559175    0.09571826    2.09215011
     atom   27 type  2   force =     0.13812240    0.45435369   -2.06581648
     atom   28 type  2   force =     0.08972185   -1.06149165   -1.92218876
     atom   29 type  2   force =    -0.58576296    0.13051221   -1.79949489
     atom   30 type  2   force =     0.73632277   -0.65524408   -1.55897892
     atom   31 type  2   force =    -0.15440494   -1.00129656   -1.66183717
     atom   32 type  2   force =     0.33431043    0.47396964   -1.81841107
     atom   33 type  2   force =    -0.18101401   -0.48816516    1.93004395
     atom   34 type  2   force =     0.00989414    1.05819436    1.74781975
     atom   35 type  2   force =     0.66631230    0.13953157    1.87226267
     atom   36 type  2   force =    -0.86222414    0.40854413    1.68886427
     atom   37 type  2   force =    -0.43895325   -0.44361370    1.53624825
     atom   38 type  2   force =     0.29385885    0.92011311    1.45750994
     atom   39 type  2   force =     0.86690320   -0.24641345   -1.76585162
     atom   40 type  2   force =    -0.68140629   -0.34203115   -1.89504238
     The local contribution  to forces
     atom    1 type  1   force =    -0.00015948    0.00196296    0.03297666
     atom    2 type  1   force =     0.41595076   -1.34000300   -8.71951630
     atom    3 type  1   force =    -0.45015011    1.35830322    8.71050185
     atom    4 type  1   force =    -0.00303339    0.00524048    0.01106472
     atom    5 type  1   force =     0.44544505   -1.33513465   -8.73241340
     atom    6 type  1   force =    -0.45184579    1.35816303    8.62580691
     atom    7 type  1   force =     0.00302092   -0.00538778   -0.01830881
     atom    8 type  1   force =     0.47528633   -1.34242517   -8.69023519
     atom    9 type  1   force =    -0.43969737    1.32728818    8.68607045
     atom   10 type  1   force =     0.00254665   -0.00621065   -0.04432921
     atom   11 type  1   force =     0.44727207   -1.36221536   -8.68254847
     atom   12 type  1   force =    -0.43562508    1.34270986    8.68266495
     atom   13 type  1   force =     0.00213455   -0.00574745   -0.01508455
     atom   14 type  1   force =     0.45468983   -1.38003428   -8.75207694
     atom   15 type  1   force =    -0.42058400    1.34243648    8.64853114
     atom   16 type  1   force =    -0.00102569    0.00621799    0.02189718
     atom   17 type  1   force =     0.47411022   -1.36009097   -8.69950080
     atom   18 type  1   force =    -0.42291343    1.34519792    8.71385243
     atom   19 type  1   force =     0.00106084   -0.00459683   -0.03620727
     atom   20 type  1   force =     0.44047997   -1.34058206   -8.70706665
     atom   21 type  1   force =    -0.46302160    1.34478255    8.63624844
     atom   22 type  1   force =    -0.00123434    0.00136798    0.00204916
     atom   23 type  1   force =     0.42334672   -1.37096452   -8.77070808
     atom   24 type  1   force =    -0.47019165    1.35147740    8.67538201
     atom   25 type  2   force =     0.72219230   -0.47698937   -1.76918135
     atom   26 type  2   force =    -0.51707113   -0.10811960   -2.06313532
     atom   27 type  2   force =    -0.13550653   -0.39298189    2.06748377
     atom   28 type  2   force =    -0.09106019    1.00047860    1.91948758
     atom   29 type  2   force =     0.53552512   -0.10186079    1.78702792
     atom   30 type  2   force =    -0.68661384    0.62634356    1.57086410
     atom   31 type  2   force =     0.13545048    0.94502541    1.66378986
     atom   32 type  2   force =    -0.31613848   -0.41647792    1.81495235
     atom   33 type  2   force =     0.17357709    0.42726420   -1.92629340
     atom   34 type  2   force =    -0.00204198   -0.99729264   -1.75129679
     atom   35 type  2   force =    -0.60585978   -0.14994681   -1.86018269
     atom   36 type  2   force =     0.80150139   -0.39847006   -1.70043585
     atom   37 type  2   force =     0.41064344    0.38843633   -1.53914488
     atom   38 type  2   force =    -0.26552951   -0.86530633   -1.45432842
     atom   39 type  2   force =    -0.80540342    0.25045472    1.77419213
     atom   40 type  2   force =     0.62082713    0.33735299    1.88660361
     The core correction contribution to forces
     atom    1 type  1   force =     0.00001191   -0.00001987    0.00005896
     atom    2 type  1   force =    -0.00001722    0.00003799    0.00001323
     atom    3 type  1   force =     0.00000005   -0.00002350    0.00005437
     atom    4 type  1   force =    -0.00001860    0.00003621    0.00005868
     atom    5 type  1   force =    -0.00000192    0.00000278   -0.00001487
     atom    6 type  1   force =    -0.00000195    0.00002416   -0.00005555
     atom    7 type  1   force =     0.00000755   -0.00001998   -0.00005518
     atom    8 type  1   force =    -0.00000987    0.00007001    0.00003659
     atom    9 type  1   force =     0.00000980   -0.00003043    0.00005862
     atom   10 type  1   force =     0.00000876    0.00000413   -0.00005689
     atom   11 type  1   force =     0.00002982   -0.00000283    0.00002340
     atom   12 type  1   force =     0.00000629    0.00005492    0.00001085
     atom   13 type  1   force =     0.00001157   -0.00004124   -0.00004055
     atom   14 type  1   force =    -0.00000653    0.00000307   -0.00004171
     atom   15 type  1   force =    -0.00000152   -0.00002228   -0.00006995
     atom   16 type  1   force =    -0.00002101    0.00004520    0.00008213
     atom   17 type  1   force =     0.00000569   -0.00007768    0.00000667
     atom   18 type  1   force =    -0.00002049    0.00001096    0.00009525
     atom   19 type  1   force =     0.00000847   -0.00001655   -0.00008919
     atom   20 type  1   force =     0.00000853    0.00001370    0.00002562
     atom   21 type  1   force =     0.00000633   -0.00002664   -0.00010331
     atom   22 type  1   force =    -0.00000852    0.00001271    0.00004660
     atom   23 type  1   force =     0.00000014   -0.00005559   -0.00010016
     atom   24 type  1   force =     0.00000261    0.00001126    0.00002097
     atom   25 type  2   force =     0.00000000    0.00000000    0.00000000
     atom   26 type  2   force =     0.00000000    0.00000000    0.00000000
     atom   27 type  2   force =     0.00000000    0.00000000    0.00000000
     atom   28 type  2   force =     0.00000000    0.00000000    0.00000000
     atom   29 type  2   force =     0.00000000    0.00000000    0.00000000
     atom   30 type  2   force =     0.00000000    0.00000000    0.00000000
     atom   31 type  2   force =     0.00000000    0.00000000    0.00000000
     atom   32 type  2   force =     0.00000000    0.00000000    0.00000000
     atom   33 type  2   force =     0.00000000    0.00000000    0.00000000
     atom   34 type  2   force =     0.00000000    0.00000000    0.00000000
     atom   35 type  2   force =     0.00000000    0.00000000    0.00000000
     atom   36 type  2   force =     0.00000000    0.00000000    0.00000000
     atom   37 type  2   force =     0.00000000    0.00000000    0.00000000
     atom   38 type  2   force =     0.00000000    0.00000000    0.00000000
     atom   39 type  2   force =     0.00000000    0.00000000    0.00000000
     atom   40 type  2   force =     0.00000000    0.00000000    0.00000000
     The Hubbard contrib.    to forces
     atom    1 type  1   force =     0.00000000    0.00000000    0.00000000
     atom    2 type  1   force =     0.00000000    0.00000000    0.00000000
     atom    3 type  1   force =     0.00000000    0.00000000    0.00000000
     atom    4 type  1   force =     0.00000000    0.00000000    0.00000000
     atom    5 type  1   force =     0.00000000    0.00000000    0.00000000
     atom    6 type  1   force =     0.00000000    0.00000000    0.00000000
     atom    7 type  1   force =     0.00000000    0.00000000    0.00000000
     atom    8 type  1   force =     0.00000000    0.00000000    0.00000000
     atom    9 type  1   force =     0.00000000    0.00000000    0.00000000
     atom   10 type  1   force =     0.00000000    0.00000000    0.00000000
     atom   11 type  1   force =     0.00000000    0.00000000    0.00000000
     atom   12 type  1   force =     0.00000000    0.00000000    0.00000000
     atom   13 type  1   force =     0.00000000    0.00000000    0.00000000
     atom   14 type  1   force =     0.00000000    0.00000000    0.00000000
     atom   15 type  1   force =     0.00000000    0.00000000    0.00000000
     atom   16 type  1   force =     0.00000000    0.00000000    0.00000000
     atom   17 type  1   force =     0.00000000    0.00000000    0.00000000
     atom   18 type  1   force =     0.00000000    0.00000000    0.00000000
     atom   19 type  1   force =     0.00000000    0.00000000    0.00000000
     atom   20 type  1   force =     0.00000000    0.00000000    0.00000000
     atom   21 type  1   force =     0.00000000    0.00000000    0.00000000
     atom   22 type  1   force =     0.00000000    0.00000000    0.00000000
     atom   23 type  1   force =     0.00000000    0.00000000    0.00000000
     atom   24 type  1   force =     0.00000000    0.00000000    0.00000000
     atom   25 type  2   force =     0.00000000    0.00000000    0.00000000
     atom   26 type  2   force =     0.00000000    0.00000000    0.00000000
     atom   27 type  2   force =     0.00000000    0.00000000    0.00000000
     atom   28 type  2   force =     0.00000000    0.00000000    0.00000000
     atom   29 type  2   force =     0.00000000    0.00000000    0.00000000
     atom   30 type  2   force =     0.00000000    0.00000000    0.00000000
     atom   31 type  2   force =     0.00000000    0.00000000    0.00000000
     atom   32 type  2   force =     0.00000000    0.00000000    0.00000000
     atom   33 type  2   force =     0.00000000    0.00000000    0.00000000
     atom   34 type  2   force =     0.00000000    0.00000000    0.00000000
     atom   35 type  2   force =     0.00000000    0.00000000    0.00000000
     atom   36 type  2   force =     0.00000000    0.00000000    0.00000000
     atom   37 type  2   force =     0.00000000    0.00000000    0.00000000
     atom   38 type  2   force =     0.00000000    0.00000000    0.00000000
     atom   39 type  2   force =     0.00000000    0.00000000    0.00000000
     atom   40 type  2   force =     0.00000000    0.00000000    0.00000000
     The SCF correction term to forces
     atom    1 type  1   force =    -0.00001169   -0.00002220   -0.00006561
     atom    2 type  1   force =     0.00000291    0.00003102    0.00016722
     atom    3 type  1   force =     0.00001087   -0.00004719   -0.00030596
     atom    4 type  1   force =     0.00000793   -0.00000667   -0.00006286
     atom    5 type  1   force =     0.00000194    0.00001553    0.00018766
     atom    6 type  1   force =     0.00001994   -0.00004806   -0.00028449
     atom    7 type  1   force =     0.00001739   -0.00001569   -0.00007016
     atom    8 type  1   force =    -0.00001971    0.00002268    0.00018737
     atom    9 type  1   force =     0.00001775   -0.00002682   -0.00027094
     atom   10 type  1   force =    -0.00000119   -0.00001462   -0.00007753
     atom   11 type  1   force =    -0.00001933    0.00003452    0.00014460
     atom   12 type  1   force =     0.00000851   -0.00003985   -0.00029828
     atom   13 type  1   force =    -0.00000308   -0.00001075   -0.00006771
     atom   14 type  1   force =     0.00000047    0.00003564    0.00018513
     atom   15 type  1   force =     0.00000091   -0.00005246   -0.00027386
     atom   16 type  1   force =     0.00000939   -0.00000803   -0.00006899
     atom   17 type  1   force =    -0.00003167    0.00003432    0.00016491
     atom   18 type  1   force =     0.00000631   -0.00004150   -0.00027821
     atom   19 type  1   force =     0.00001065    0.00000584   -0.00007363
     atom   20 type  1   force =    -0.00001679    0.00001555    0.00014985
     atom   21 type  1   force =     0.00002875   -0.00004959   -0.00028489
     atom   22 type  1   force =    -0.00000141   -0.00001403   -0.00006608
     atom   23 type  1   force =     0.00001351    0.00002512    0.00019196
     atom   24 type  1   force =     0.00002241   -0.00004732   -0.00027338
     atom   25 type  2   force =    -0.00000682    0.00000288    0.00003088
     atom   26 type  2   force =    -0.00000390    0.00000186    0.00004672
     atom   27 type  2   force =     0.00000157   -0.00000121    0.00000635
     atom   28 type  2   force =     0.00000500    0.00000455    0.00001008
     atom   29 type  2   force =     0.00000855   -0.00000272    0.00002622
     atom   30 type  2   force =    -0.00001911    0.00000624    0.00002062
     atom   31 type  2   force =     0.00000468    0.00002727    0.00002028
     atom   32 type  2   force =    -0.00000304   -0.00001637    0.00002102
     atom   33 type  2   force =     0.00000637    0.00000718    0.00003562
     atom   34 type  2   force =    -0.00000336    0.00000993    0.00004156
     atom   35 type  2   force =    -0.00002404    0.00001268    0.00003772
     atom   36 type  2   force =     0.00001520    0.00000051    0.00004085
     atom   37 type  2   force =     0.00000549    0.00002075    0.00003405
     atom   38 type  2   force =    -0.00000572   -0.00000938    0.00003890
     atom   39 type  2   force =    -0.00001308   -0.00000281    0.00001519
     atom   40 type  2   force =     0.00000985    0.00000364    0.00001598

     Total force =     0.011435     Total SCF correction =     0.000985


     Computing stress (Cartesian axis) and pressure

          total   stress  (Ry/bohr**3)                   (kbar)     P=       -0.22
  -0.00000295  -0.00000077  -0.00000669           -0.43       -0.11       -0.98
  -0.00000077  -0.00000571   0.00000305           -0.11       -0.84        0.45
  -0.00000669   0.00000305   0.00000419           -0.98        0.45        0.62


     BFGS Geometry Optimization
     Energy error            =      0.0E+00 Ry
     Gradient error          =      3.8E-03 Ry/Bohr
     Cell gradient error     =      9.8E-01 kbar

     number of scf cycles    =   1
     number of bfgs steps    =   0

     enthalpy           new  =    -305.4587447316 Ry

     new trust radius        =       0.0048399817 bohr
     new conv_thr            =       0.0000010000 Ry

     new unit-cell volume =   2017.50799 a.u.^3 (   298.96384 Ang^3 )
     density =      1.69067 g/cm^3

CELL_PARAMETERS (alat=  8.00000437)
   1.154952206   0.011189630   0.057263554
  -0.579268844   0.984310299  -0.182402041
   0.186192853  -0.342701505   3.509223446

ATOMIC_POSITIONS (crystal)
C            -0.0576162842       -0.0746841222        0.1607062501
C            -0.0423743372        0.1423703407        0.3884859437
C             0.0646723913        0.0444135305        0.9329930367
C             0.1090697391        0.2587476687        0.1608088026
C             0.2909431872        0.3090330229        0.3884630111
C             0.2313101266        0.3780346466        0.9332946367
C             0.4424418168       -0.0744181920        0.1610199678
C             0.4575771029        0.1421687508        0.3883301745
C             0.5646604272        0.0443005773        0.9329384829
C             0.6091143135        0.2590528403        0.1611356348
C             0.7909695761        0.3090262187        0.3884255198
C             0.7312878291        0.3778197893        0.9331369751
C            -0.0574929399        0.4255804036        0.1609882277
C            -0.0424658065        0.6424400828        0.3886086503
C             0.0646632734        0.5446303423        0.9332233787
C             0.1090103914        0.7586908565        0.1607318718
C             0.2908874789        0.8089534941        0.3884570230
C             0.2312523168        0.8775798783        0.9328623878
C             0.4424987559        0.4256387209        0.1611104066
C             0.4575845813        0.6423179217        0.3884859146
C             0.5647185571        0.5447423730        0.9333673941
C             0.6090140791        0.7587992395        0.1608487026
C             0.7909527226        0.8092830654        0.3887241220
C             0.7313258276        0.8777253602        0.9330633699
H             0.5948924054        1.1552058131        0.5599217022
H             0.7078461458        1.1231639588        0.5822493931
H             0.4129234986        0.6487249808        0.7585845141
H             0.3165088557        0.4615233722        0.7487395169
H             0.8243630076        0.5924858145        0.7365076777
H             0.9100141666        0.5004590022        0.7412167577
H             0.2967949761       -0.0454194180        0.7392656366
H             0.4333868030        0.1309420380        0.7437805057
H             0.0942622878        0.5480553688        0.5721039386
H             0.2053246734        0.7319102469        0.5767543128
H             0.7202790291        0.6282996448        0.5804023387
H             0.5825167872        0.6573677063        0.5744613795
H             0.0770545365        0.0723424525        0.5858350517
H             0.2319451991        0.2374266517        0.5943218325
H             0.9451600626        1.0592347084        0.7486892829
H             0.7827150851        1.0448826672        0.7437350983



     Writing config-only to output data dir ../../results/server/8h2_abs/8H2abs_C.save/
     NEW-OLD atomic charge density approx. for the potential

     Check: negative core charge=   -0.000002
     extrapolated charge  111.98748, renormalised to  112.00000

     total cpu time spent up to now is       50.6 secs

     Self-consistent Calculation

     iteration #  1     ecut=    40.00 Ry     beta= 0.05
     Davidson diagonalization with overlap
     ethr =  1.00E-06,  avg # of iterations =  2.0

     Threshold (ethr) on eigenvalues was too large:
     Diagonalizing with lowered threshold

     Davidson diagonalization with overlap
     ethr =  1.41E-08,  avg # of iterations =  5.5

     total cpu time spent up to now is       53.4 secs

     total energy              =    -305.45881402 Ry
     estimated scf accuracy    <       0.00002107 Ry

     iteration #  2     ecut=    40.00 Ry     beta= 0.05
     Davidson diagonalization with overlap
     ethr =  1.88E-08,  avg # of iterations =  2.7

     total cpu time spent up to now is       54.4 secs

     total energy              =    -305.45881775 Ry
     estimated scf accuracy    <       0.00001656 Ry

     iteration #  3     ecut=    40.00 Ry     beta= 0.05
     Davidson diagonalization with overlap
     ethr =  1.48E-08,  avg # of iterations =  1.0

     total cpu time spent up to now is       55.2 secs

     total energy              =    -305.45881010 Ry
     estimated scf accuracy    <       0.00001582 Ry

     iteration #  4     ecut=    40.00 Ry     beta= 0.05
     Davidson diagonalization with overlap
     ethr =  1.41E-08,  avg # of iterations =  2.0

     total cpu time spent up to now is       56.1 secs

     End of self-consistent calculation

          k = 0.0668 0.1390 0.0813 (  8631 PWs)   bands (ev):

   -15.0200 -14.8866 -14.7549 -10.6734 -10.6716 -10.5747 -10.5715 -10.4810
   -10.4785  -9.5958  -9.5362  -9.4788  -8.7584  -8.7064  -8.6707  -7.7778
    -7.7756  -7.7006  -7.6974  -7.6282  -7.6260  -5.0697  -4.2154  -3.6975
    -2.6584  -2.5512  -2.5174  -2.4904  -2.1835  -2.0657  -2.0614  -2.0349
    -2.0299  -2.0144  -2.0098  -0.7264  -0.6856  -0.4263  -0.1990  -0.1199
     0.3166   0.9574   0.9715   0.9805   1.0617   1.0680   1.1593   1.1769
     1.1814   1.5553   1.5663   1.8113   2.0167   2.0429   2.1015   2.4913
     5.7703   6.1589   6.3904   6.3970   6.4305   6.7531   6.7680   7.1419
     7.1654   7.9855   8.5104

          k = 0.0742 0.1165-0.0638 (  8632 PWs)   bands (ev):

   -15.0200 -14.8866 -14.7549 -10.6734 -10.6716 -10.5747 -10.5716 -10.4811
   -10.4786  -9.5958  -9.5362  -9.4788  -8.7584  -8.7064  -8.6706  -7.7778
    -7.7756  -7.7006  -7.6974  -7.6282  -7.6261  -5.0560  -4.3099  -3.5099
    -2.8552  -2.5512  -2.5174  -2.4904  -2.0918  -2.0658  -2.0614  -2.0349
    -2.0299  -2.0144  -2.0098  -0.7270  -0.6834  -0.4258  -0.2024  -0.1190
     0.3158   0.9574   0.9715   0.9805   1.0525   1.0750   1.1593   1.1769
     1.1814   1.5595   1.5709   1.8111   2.0161   2.0372   2.1032   2.4899
     5.7626   6.1711   6.3923   6.3943   6.4218   6.7639   6.7759   7.1379
     7.1546   7.9791   8.3626

          k = 0.0643 0.3100 0.0981 (  8619 PWs)   bands (ev):

   -14.6051 -14.4749 -14.3467 -12.1601 -12.0483 -11.9409 -11.2122 -11.1075
   -11.0082  -9.8587  -9.7673  -9.6825  -7.8722  -7.7979  -7.7321  -6.5990
    -6.5292  -6.4669  -5.7055  -5.6395  -5.5803  -4.5888  -3.8098  -3.7644
    -3.7259  -3.6698  -3.2965  -2.8675  -2.8280  -2.7979  -2.1005  -1.9213
    -1.7757  -1.6541  -1.6235  -1.6044  -1.1634  -1.0489  -0.4643  -0.4207
    -0.3960  -0.3754  -0.3480  -0.3034   0.3760   0.3943   0.3969   0.4182
     0.4282   0.6009   0.8666   1.2519   1.7828   1.9069   2.3378   2.7900
     5.9581   6.2238   6.4802   7.2365   7.5281   7.9105   8.4068   8.6434
     8.7452   9.1380   9.1719

          k = 0.0717 0.2875-0.0470 (  8624 PWs)   bands (ev):

   -14.6051 -14.4748 -14.3468 -12.1602 -12.0483 -11.9409 -11.2122 -11.1075
   -11.0082  -9.8588  -9.7673  -9.6825  -7.8722  -7.7979  -7.7321  -6.5990
    -6.5292  -6.4669  -5.7055  -5.6395  -5.5803  -4.5640  -3.8520  -3.8096
    -3.7642  -3.7254  -2.9278  -2.8675  -2.8280  -2.7978  -2.4852  -1.9180
    -1.6542  -1.6234  -1.6044  -1.5948  -1.1994  -1.0576  -0.4234  -0.3972
    -0.3822  -0.3751  -0.3211  -0.3099   0.2500   0.3943   0.4025   0.4184
     0.4281   0.6281   0.9165   1.2195   1.7951   1.9088   2.3361   2.7901
     5.9602   6.2140   6.4894   7.2228   7.5550   7.8968   8.3899   8.6457
     8.7526   8.8380   9.1382

          k = 0.0618 0.4810 0.1149 (  8619 PWs)   bands (ev):

   -13.8631 -13.7385 -13.6167 -13.3721 -13.2511 -13.1335 -11.4487 -11.3421
   -11.2406 -10.0697  -9.9743  -9.8854  -6.6745  -6.6255  -6.5884  -5.4510
    -5.4081  -5.3763  -5.0875  -5.0520  -5.0207  -3.9124  -3.8808  -3.8556
    -3.7372  -3.5054  -3.4542  -3.4110  -3.1806  -2.8634  -2.4154  -2.3914
    -2.3675  -2.3461  -2.3333  -1.7131  -1.3565  -1.2670  -0.9604  -0.9366
    -0.9312  -0.9142  -0.8920  -0.5318  -0.5040  -0.4887  -0.4718  -0.3198
    -0.2518   0.3593   0.4026   1.1261   1.6341   1.8743   2.3938   2.9395
     6.2380   6.4325   6.6651   7.8864   8.0796   8.3009   9.6036   9.9464
    10.3628  10.5886  10.7526

          k = 0.0692 0.4585-0.0301 (  8619 PWs)   bands (ev):

   -13.8631 -13.7385 -13.6168 -13.3721 -13.2511 -13.1335 -11.4488 -11.3421
   -11.2407 -10.0697  -9.9743  -9.8854  -6.6745  -6.6255  -6.5884  -5.4510
    -5.4081  -5.3763  -5.0875  -5.0520  -5.0206  -3.9124  -3.8809  -3.8556
    -3.7234  -3.5051  -3.4548  -3.4107  -3.1813  -2.9622  -2.4139  -2.3796
    -2.3681  -2.3339  -2.1548  -1.7087  -1.5673  -1.2642  -0.9603  -0.9365
    -0.9301  -0.9143  -0.8031  -0.5319  -0.5046  -0.5018  -0.4880  -0.3236
    -0.2455   0.3938   0.4544   1.0236   1.6767   1.8623   2.4103   2.9332
     6.2372   6.4331   6.6652   7.8871   8.0789   8.3009   9.5808   9.7966
    10.3596  10.5761  10.7865

          k = 0.0742-0.3739 0.0308 (  8619 PWs)   bands (ev):

   -14.2744 -14.1467 -14.0215 -12.8037 -12.6870 -12.5742 -11.3694 -11.2632
   -11.1624  -9.9977  -9.9037  -9.8163  -7.2358  -7.1684  -7.1086  -5.9748
    -5.9120  -5.8599  -4.6101  -4.5516  -4.5161  -4.4997  -4.4673  -4.4261
    -4.1880  -3.4505  -3.4340  -3.3932  -3.3587  -2.6118  -2.5553  -2.0541
    -1.7845  -1.3722  -1.3399  -1.3373  -1.3127  -1.3097  -1.2917  -1.2774
    -1.2046  -1.0597  -0.4219  -0.3430  -0.2031  -0.0683  -0.0433  -0.0300
     0.2676   0.3532   0.4527   1.1634   1.6936   1.8959   2.3796   2.8722
     6.1391   6.3335   6.5998   7.6264   7.8727   8.1771   9.2012   9.5633
     9.5923   9.7900   9.9118

          k = 0.0817-0.3964-0.1143 (  8617 PWs)   bands (ev):

   -14.2744 -14.1467 -14.0214 -12.8037 -12.6871 -12.5742 -11.3694 -11.2632
[...]
     atom   19 type  1   force =    -0.00031507    0.00037495   -0.00007176
     atom   20 type  1   force =     0.00008064   -0.00048846   -0.00147255
     atom   21 type  1   force =     0.00009096    0.00006456    0.00100252
     atom   22 type  1   force =     0.00012092   -0.00056148   -0.00000173
     atom   23 type  1   force =     0.00044396    0.00055564   -0.00068926
     atom   24 type  1   force =     0.00052568    0.00019661    0.00129317
     atom   25 type  2   force =     0.06038050   -0.01397867    0.01073808
     atom   26 type  2   force =    -0.06031900    0.01390922   -0.01092607
     atom   27 type  2   force =    -0.01704706   -0.06038541    0.00340020
     atom   28 type  2   force =     0.01706562    0.06040899   -0.00343007
     atom   29 type  2   force =     0.06113151   -0.01176990    0.00824387
     atom   30 type  2   force =    -0.06114116    0.01185146   -0.00807011
     atom   31 type  2   force =     0.01589482    0.06073621   -0.00233831
     atom   32 type  2   force =    -0.01590641   -0.06070361    0.00269496
     atom   33 type  2   force =     0.01634103    0.06067056   -0.00038723
     atom   34 type  2   force =    -0.01625182   -0.06069187    0.00042244
     atom   35 type  2   force =    -0.05964485    0.01517191   -0.01266556
     atom   36 type  2   force =     0.05966241   -0.01515757    0.01254362
     atom   37 type  2   force =     0.01532149    0.06092822   -0.00163832
     atom   38 type  2   force =    -0.01532848   -0.06098269    0.00124972
     atom   39 type  2   force =    -0.05921144    0.01747713   -0.01202876
     atom   40 type  2   force =     0.05917602   -0.01744387    0.01217983
     The ionic contribution  to forces
     atom    1 type  1   force =     0.00119585   -0.00080878   -0.01390282
     atom    2 type  1   force =    -0.35043535    1.24662795    8.31398128
     atom    3 type  1   force =     0.38209568   -1.26371217   -8.29092166
     atom    4 type  1   force =     0.00207739   -0.00531819   -0.02336923
     atom    5 type  1   force =    -0.35467230    1.25005856    8.32915582
     atom    6 type  1   force =     0.38088163   -1.25703251   -8.27411669
     atom    7 type  1   force =    -0.00067121    0.00019303   -0.01602967
     atom    8 type  1   force =    -0.38310525    1.26146885    8.31774210
     atom    9 type  1   force =     0.34746661   -1.24855947   -8.29158780
     atom   10 type  1   force =     0.00160673   -0.00622101   -0.02580815
     atom   11 type  1   force =    -0.37793588    1.26635686    8.29831091
     atom   12 type  1   force =     0.35138204   -1.25076529   -8.31260459
     atom   13 type  1   force =    -0.00101466   -0.00072493   -0.01181763
     atom   14 type  1   force =    -0.37727794    1.26684350    8.31392187
     atom   15 type  1   force =     0.35201059   -1.23976089   -8.27728814
     atom   16 type  1   force =     0.00080119   -0.00258562   -0.01409998
     atom   17 type  1   force =    -0.38051640    1.26729327    8.30282146
     atom   18 type  1   force =     0.35547615   -1.25243539   -8.31152881
     atom   19 type  1   force =    -0.00026222   -0.00171443   -0.02556238
     atom   20 type  1   force =    -0.35524076    1.24732581    8.29164927
     atom   21 type  1   force =     0.37784555   -1.26345369   -8.30665649
     atom   22 type  1   force =     0.00271176   -0.00663214   -0.02796202
     atom   23 type  1   force =    -0.35036908    1.25765495    8.32198476
     atom   24 type  1   force =     0.37575610   -1.26723325   -8.28408512
     atom   25 type  2   force =    -0.83833806    0.45667961    1.70323985
     atom   26 type  2   force =     0.68161322    0.08884204    1.88700905
     atom   27 type  2   force =     0.28320813    0.48852239   -1.84404293
     atom   28 type  2   force =    -0.14216152   -1.00775986   -1.67477909
     atom   29 type  2   force =    -0.68776333   -0.09647383   -1.66918533
     atom   30 type  2   force =     0.83894313   -0.40128231   -1.52362171
     atom   31 type  2   force =    -0.12386058   -0.99038283   -1.50231411
     atom   32 type  2   force =     0.27675509    0.50983919   -1.66037931
     atom   33 type  2   force =    -0.28104515   -0.48003643    1.85115577
     atom   34 type  2   force =     0.12742939    1.01488734    1.70998744
     atom   35 type  2   force =     0.67367613    0.04959800    1.72427548
     atom   36 type  2   force =    -0.81854594    0.44554177    1.53424176
     atom   37 type  2   force =    -0.26356459   -0.51575433    1.63938728
     atom   38 type  2   force =     0.12406132    0.98971289    1.48866569
     atom   39 type  2   force =     0.82098567   -0.50276818   -1.72241188
     atom   40 type  2   force =    -0.67119911   -0.04603050   -1.92345422
     The local contribution  to forces
     atom    1 type  1   force =    -0.00104739    0.00056744    0.01389381
     atom    2 type  1   force =     0.35021847   -1.24615611   -8.31352901
     atom    3 type  1   force =    -0.38226062    1.26331614    8.29042353
     atom    4 type  1   force =    -0.00233839    0.00560829    0.02341269
     atom    5 type  1   force =     0.35443013   -1.24975382   -8.32833532
     atom    6 type  1   force =    -0.38127006    1.25768712    8.27275886
     atom    7 type  1   force =     0.00090584   -0.00052325    0.01607136
     atom    8 type  1   force =     0.38336511   -1.26090322   -8.31715061
     atom    9 type  1   force =    -0.34723855    1.24817243    8.29073579
     atom   10 type  1   force =    -0.00189308    0.00656700    0.02587651
     atom   11 type  1   force =     0.37781707   -1.26620844   -8.29714886
     atom   12 type  1   force =    -0.35077815    1.25080879    8.31190575
     atom   13 type  1   force =     0.00113033    0.00044002    0.01169829
     atom   14 type  1   force =     0.37767696   -1.26685613   -8.31258886
     atom   15 type  1   force =    -0.35161631    1.23917376    8.27554124
     atom   16 type  1   force =    -0.00086517    0.00273313    0.01379782
     atom   17 type  1   force =     0.38069434   -1.26795939   -8.30153538
     atom   18 type  1   force =    -0.35506890    1.25212714    8.31052586
     atom   19 type  1   force =     0.00037319    0.00146304    0.02595562
     atom   20 type  1   force =     0.35502441   -1.24695407   -8.29012203
     atom   21 type  1   force =    -0.37804381    1.26341993    8.30585664
     atom   22 type  1   force =    -0.00287757    0.00705540    0.02813651
     atom   23 type  1   force =     0.34997316   -1.25799206   -8.32121819
     atom   24 type  1   force =    -0.37619826    1.26731788    8.28306998
     atom   25 type  2   force =     0.77786186   -0.44256078   -1.71391074
     atom   26 type  2   force =    -0.62117840   -0.10262520   -1.87599666
     atom   27 type  2   force =    -0.26668260   -0.42767643    1.84044107
     atom   28 type  2   force =     0.12480869    0.94759633    1.67817094
     atom   29 type  2   force =     0.62650446    0.10810119    1.66102005
     atom   30 type  2   force =    -0.77747060    0.38887938    1.53184504
     atom   31 type  2   force =     0.10794540    0.92968527    1.50480727
     atom   32 type  2   force =    -0.26087882   -0.44895682    1.65767552
     atom   33 type  2   force =     0.26479831    0.41939199   -1.85057222
     atom   34 type  2   force =    -0.11115141   -0.95409771   -1.71035750
     atom   35 type  2   force =    -0.61369512   -0.06500284   -1.71163776
     atom   36 type  2   force =     0.75904965   -0.43065379   -1.54661801
     atom   37 type  2   force =     0.24852436    0.45466813   -1.63780205
     atom   38 type  2   force =    -0.10839601   -0.92864907   -1.49016806
     atom   39 type  2   force =    -0.76190461    0.48543600    1.73397869
     atom   40 type  2   force =     0.61187127    0.06326249    1.91115395
     The core correction contribution to forces
     atom    1 type  1   force =     0.00000854   -0.00002233   -0.00003351
     atom    2 type  1   force =    -0.00000876    0.00003612   -0.00000513
     atom    3 type  1   force =     0.00000158   -0.00001639   -0.00001298
     atom    4 type  1   force =    -0.00001994    0.00002204    0.00003220
     atom    5 type  1   force =    -0.00000221   -0.00000376   -0.00002925
     atom    6 type  1   force =    -0.00001355    0.00002086   -0.00001866
     atom    7 type  1   force =     0.00002334   -0.00003164   -0.00002798
     atom    8 type  1   force =     0.00001067    0.00003747    0.00000149
     atom    9 type  1   force =     0.00000947   -0.00001708   -0.00001495
     atom   10 type  1   force =    -0.00002290    0.00003320    0.00003472
     atom   11 type  1   force =     0.00000111   -0.00001876    0.00000563
     atom   12 type  1   force =     0.00000127    0.00001432    0.00003505
     atom   13 type  1   force =     0.00001760   -0.00002114   -0.00003929
     atom   14 type  1   force =     0.00001067    0.00001883    0.00002317
     atom   15 type  1   force =     0.00001439   -0.00002122   -0.00005621
     atom   16 type  1   force =    -0.00001116    0.00001285    0.00001225
     atom   17 type  1   force =    -0.00000131   -0.00004169    0.00000042
     atom   18 type  1   force =     0.00000191    0.00000431    0.00002330
     atom   19 type  1   force =     0.00002317   -0.00002859   -0.00000672
     atom   20 type  1   force =    -0.00000181    0.00001848    0.00005099
     atom   21 type  1   force =    -0.00000115   -0.00000757   -0.00000120
     atom   22 type  1   force =    -0.00001829    0.00003736    0.00004002
     atom   23 type  1   force =    -0.00000597   -0.00003736   -0.00002103
     atom   24 type  1   force =    -0.00001444    0.00001191    0.00000345
     atom   25 type  2   force =     0.00000000    0.00000000    0.00000000
     atom   26 type  2   force =     0.00000000    0.00000000    0.00000000
     atom   27 type  2   force =     0.00000000    0.00000000    0.00000000
     atom   28 type  2   force =     0.00000000    0.00000000    0.00000000
     atom   29 type  2   force =     0.00000000    0.00000000    0.00000000
     atom   30 type  2   force =     0.00000000    0.00000000    0.00000000
     atom   31 type  2   force =     0.00000000    0.00000000    0.00000000
     atom   32 type  2   force =     0.00000000    0.00000000    0.00000000
     atom   33 type  2   force =     0.00000000    0.00000000    0.00000000
     atom   34 type  2   force =     0.00000000    0.00000000    0.00000000
     atom   35 type  2   force =     0.00000000    0.00000000    0.00000000
     atom   36 type  2   force =     0.00000000    0.00000000    0.00000000
     atom   37 type  2   force =     0.00000000    0.00000000    0.00000000
     atom   38 type  2   force =     0.00000000    0.00000000    0.00000000
     atom   39 type  2   force =     0.00000000    0.00000000    0.00000000
     atom   40 type  2   force =     0.00000000    0.00000000    0.00000000
     The Hubbard contrib.    to forces
     atom    1 type  1   force =     0.00000000    0.00000000    0.00000000
     atom    2 type  1   force =     0.00000000    0.00000000    0.00000000
     atom    3 type  1   force =     0.00000000    0.00000000    0.00000000
     atom    4 type  1   force =     0.00000000    0.00000000    0.00000000
     atom    5 type  1   force =     0.00000000    0.00000000    0.00000000
     atom    6 type  1   force =     0.00000000    0.00000000    0.00000000
     atom    7 type  1   force =     0.00000000    0.00000000    0.00000000
     atom    8 type  1   force =     0.00000000    0.00000000    0.00000000
     atom    9 type  1   force =     0.00000000    0.00000000    0.00000000
     atom   10 type  1   force =     0.00000000    0.00000000    0.00000000
     atom   11 type  1   force =     0.00000000    0.00000000    0.00000000
     atom   12 type  1   force =     0.00000000    0.00000000    0.00000000
     atom   13 type  1   force =     0.00000000    0.00000000    0.00000000
     atom   14 type  1   force =     0.00000000    0.00000000    0.00000000
     atom   15 type  1   force =     0.00000000    0.00000000    0.00000000
     atom   16 type  1   force =     0.00000000    0.00000000    0.00000000
     atom   17 type  1   force =     0.00000000    0.00000000    0.00000000
     atom   18 type  1   force =     0.00000000    0.00000000    0.00000000
     atom   19 type  1   force =     0.00000000    0.00000000    0.00000000
     atom   20 type  1   force =     0.00000000    0.00000000    0.00000000
     atom   21 type  1   force =     0.00000000    0.00000000    0.00000000
     atom   22 type  1   force =     0.00000000    0.00000000    0.00000000
     atom   23 type  1   force =     0.00000000    0.00000000    0.00000000
     atom   24 type  1   force =     0.00000000    0.00000000    0.00000000
     atom   25 type  2   force =     0.00000000    0.00000000    0.00000000
     atom   26 type  2   force =     0.00000000    0.00000000    0.00000000
     atom   27 type  2   force =     0.00000000    0.00000000    0.00000000
     atom   28 type  2   force =     0.00000000    0.00000000    0.00000000
     atom   29 type  2   force =     0.00000000    0.00000000    0.00000000
     atom   30 type  2   force =     0.00000000    0.00000000    0.00000000
     atom   31 type  2   force =     0.00000000    0.00000000    0.00000000
     atom   32 type  2   force =     0.00000000    0.00000000    0.00000000
     atom   33 type  2   force =     0.00000000    0.00000000    0.00000000
     atom   34 type  2   force =     0.00000000    0.00000000    0.00000000
     atom   35 type  2   force =     0.00000000    0.00000000    0.00000000
     atom   36 type  2   force =     0.00000000    0.00000000    0.00000000
     atom   37 type  2   force =     0.00000000    0.00000000    0.00000000
     atom   38 type  2   force =     0.00000000    0.00000000    0.00000000
     atom   39 type  2   force =     0.00000000    0.00000000    0.00000000
     atom   40 type  2   force =     0.00000000    0.00000000    0.00000000
     The SCF correction term to forces
     atom    1 type  1   force =     0.00000175   -0.00000541   -0.00003588
     atom    2 type  1   force =     0.00000067   -0.00000149   -0.00000918
     atom    3 type  1   force =     0.00000057   -0.00000087    0.00000015
     atom    4 type  1   force =     0.00000147   -0.00000534   -0.00003589
     atom    5 type  1   force =     0.00000106   -0.00000137   -0.00000875
     atom    6 type  1   force =     0.00000037    0.00000000    0.00000050
     atom    7 type  1   force =     0.00000154   -0.00000535   -0.00003598
     atom    8 type  1   force =    -0.00000009   -0.00000082   -0.00000887
     atom    9 type  1   force =    -0.00000050    0.00000039    0.00000045
     atom   10 type  1   force =     0.00000161   -0.00000545   -0.00003591
     atom   11 type  1   force =    -0.00000010   -0.00000095   -0.00000917
     atom   12 type  1   force =    -0.00000060    0.00000053   -0.00000016
     atom   13 type  1   force =     0.00000168   -0.00000551   -0.00003592
     atom   14 type  1   force =    -0.00000032   -0.00000135   -0.00000878
     atom   15 type  1   force =    -0.00000080    0.00000067    0.00000002
     atom   16 type  1   force =     0.00000150   -0.00000546   -0.00003603
     atom   17 type  1   force =     0.00000005   -0.00000118   -0.00000925
     atom   18 type  1   force =    -0.00000076   -0.00000009   -0.00000015
     atom   19 type  1   force =     0.00000157   -0.00000547   -0.00003584
     atom   20 type  1   force =     0.00000096   -0.00000182   -0.00000903
     atom   21 type  1   force =     0.00000102    0.00000010   -0.00000009
     atom   22 type  1   force =     0.00000156   -0.00000551   -0.00003599
     atom   23 type  1   force =     0.00000088   -0.00000186   -0.00000860
     atom   24 type  1   force =     0.00000069   -0.00000064    0.00000033
     atom   25 type  2   force =    -0.00000155    0.00000063    0.00000065
     atom   26 type  2   force =     0.00000157   -0.00000013    0.00000179
     atom   27 type  2   force =    -0.00000021    0.00000370    0.00001475
     atom   28 type  2   force =    -0.00000112    0.00000085    0.00001471
     atom   29 type  2   force =    -0.00000185    0.00000238    0.00001406
     atom   30 type  2   force =     0.00000056    0.00000194    0.00001460
     atom   31 type  2   force =    -0.00000103    0.00000053    0.00001425
     atom   32 type  2   force =    -0.00000009    0.00000370    0.00001441
     atom   33 type  2   force =    -0.00000056   -0.00000145    0.00000097
     atom   34 type  2   force =     0.00000040    0.00000185    0.00000162
     atom   35 type  2   force =     0.00000149   -0.00000010    0.00000263
     atom   36 type  2   force =    -0.00000148    0.00000061    0.00000125
     atom   37 type  2   force =    -0.00000057   -0.00000144    0.00000186
     atom   38 type  2   force =     0.00000033    0.00000215    0.00000239
     atom   39 type  2   force =     0.00000071    0.00000172    0.00001534
     atom   40 type  2   force =    -0.00000221    0.00000274    0.00001438

     Total force =     0.002227     Total SCF correction =     0.000114


     Computing stress (Cartesian axis) and pressure

          total   stress  (Ry/bohr**3)                   (kbar)     P=        0.02
   0.00000062  -0.00000076  -0.00000193            0.09       -0.11       -0.28
  -0.00000076   0.00000070   0.00000259           -0.11        0.10        0.38
  -0.00000193   0.00000259  -0.00000098           -0.28        0.38       -0.14


     Writing all to output data dir ../../results/server/8h2_abs/8H2abs_C.save/
 
     init_run     :      1.56s CPU      1.67s WALL (       2 calls)
     electrons    :    777.78s CPU    805.49s WALL (      41 calls)
     update_pot   :      8.87s CPU      8.97s WALL (      39 calls)
     forces       :     11.36s CPU     13.45s WALL (      41 calls)
     stress       :    124.70s CPU    126.60s WALL (      41 calls)

     Called by init_run:
     wfcinit      :      1.08s CPU      1.12s WALL (       2 calls)
     potinit      :      0.15s CPU      0.15s WALL (       2 calls)
     hinit0       :      0.23s CPU      0.24s WALL (       2 calls)

     Called by electrons:
     c_bands      :    692.77s CPU    713.30s WALL (     677 calls)
     sum_band     :     76.74s CPU     79.54s WALL (     677 calls)
     v_of_rho     :      0.85s CPU      0.86s WALL (     702 calls)
     newd         :      2.34s CPU      2.39s WALL (     702 calls)
     mix_rho      :      3.77s CPU      3.84s WALL (     677 calls)

     Called by c_bands:
     init_us_2    :      5.54s CPU      6.16s WALL (   25884 calls)
     init_us_2:cp :      5.46s CPU      6.10s WALL (   25884 calls)
     cegterg      :    641.21s CPU    657.49s WALL (   12190 calls)

     Called by *egterg:
     cdiaghg      :    222.62s CPU    224.48s WALL (   48668 calls)
     h_psi        :    324.00s CPU    337.18s WALL (   49698 calls)
     s_psi        :     18.40s CPU     18.71s WALL (   49698 calls)
     g_psi        :      1.18s CPU      1.20s WALL (   37472 calls)

     Called by h_psi:
     h_psi:calbec :     37.55s CPU     38.70s WALL (   49698 calls)
     vloc_psi     :    265.50s CPU    277.24s WALL (   49698 calls)
     add_vuspsi   :     19.05s CPU     19.32s WALL (   49698 calls)

     General routines
     calbec       :     60.00s CPU     61.64s WALL (   65574 calls)
     fft          :      1.72s CPU      1.75s WALL (    4513 calls)
     ffts         :      1.74s CPU      1.77s WALL (   14295 calls)
     fftw         :    268.30s CPU    279.88s WALL ( 5110758 calls)
     interpolate  :      0.32s CPU      0.33s WALL (     702 calls)
 
     Parallel routines
 
     PWSCF        :  15m26.12s CPU  15m59.29s WALL

 
   This run was terminated on:   1:17:53   3Sep2024            

=------------------------------------------------------------------------------=
   JOB DONE.
=------------------------------------------------------------------------------=
