
     Program PWSCF v.7.3.1 starts on  6Aug2024 at 22:18:55 

     This program is part of the open-source Quantum ESPRESSO suite
     for quantum simulation of materials; please cite
         "P. Giannozzi et al., J. Phys.:Condens. Matter 21 395502 (2009);
         "P. Giannozzi et al., J. Phys.:Condens. Matter 29 465901 (2017);
         "P. Giannozzi et al., J. Chem. Phys. 152 154105 (2020);
          URL http://www.quantum-espresso.org", 
     in publications or presentations arising from this work. More details at
     http://www.quantum-espresso.org/quote

     Parallel version (MPI & OpenMP), running on       4 processor cores
     Number of MPI processes:                 2
     Threads/MPI process:                     2

     MPI processes distributed on     1 nodes
     2505 MiB available memory on the printing compute node when the environment starts

     Reading input from graphene.in

     Current dimensions of program PWSCF are:
     Max number of different atomic species (ntypx) = 10
     Max number of k-points (npk) =  40000
     Max angular momentum in pseudopotentials (lmaxx) =  4

     IMPORTANT: XC functional enforced from input :
     Exchange-correlation= LDA
                           (   1   1   0   0   0   0   0)
     Any further DFT definition will be discarded
     Please, verify this is what you really want

     Found identity + ( -0.5000  0.0000  0.0000) symmetry
     This is a supercell, fractional translations are disabled

     R & G space division:  proc/nbgrp/npool/nimage =       2
     Subspace diagonalization in iterative solution of the eigenvalue problem:
     a serial algorithm will be used


     Parallelization info
     --------------------
     sticks:   dense  smooth     PW     G-vecs:    dense   smooth      PW
     Min         882     351     84                59874    15117    1857
     Max         883     352     85                59879    15122    1860
     Sum        1765     703    169               119753    30239    3717

     Using Slab Decomposition



     bravais-lattice index     =            4
     lattice parameter (alat)  =       8.0000  a.u.
     unit-cell volume          =     886.8115 (a.u.)^3
     number of atoms/cell      =           24
     number of atomic types    =            1
     number of electrons       =        96.00
     number of Kohn-Sham states=           58
     kinetic-energy cutoff     =      40.0000  Ry
     charge density cutoff     =     400.0000  Ry
     scf convergence threshold =      1.0E-06
     mixing beta               =       0.0500
     number of iterations used =            8  TF        mixing
     energy convergence thresh.=      1.0E-04
     force convergence thresh. =      1.0E-03
     press convergence thresh. =      5.0E-01
     Exchange-correlation= LDA
                           (   1   1   0   0   0   0   0)
     nstep                     =           50


     celldm(1)=   8.000004  celldm(2)=   0.000000  celldm(3)=   2.000000
     celldm(4)=   0.000000  celldm(5)=   0.000000  celldm(6)=   0.000000

     crystal axes: (cart. coord. in units of alat)
               a(1) = (   1.000000   0.000000   0.000000 )  
               a(2) = (  -0.500000   0.866025   0.000000 )  
               a(3) = (   0.000000   0.000000   2.000000 )  

     reciprocal axes: (cart. coord. in units 2 pi/alat)
               b(1) = (  1.000000  0.577350 -0.000000 )  
               b(2) = (  0.000000  1.154701  0.000000 )  
               b(3) = (  0.000000 -0.000000  0.500000 )  


     PseudoPot. # 1 for C  read from file:
     /home/edoardocabiati/.burai/.pseudopot/C.pz-n-rrkjus_psl.0.1.UPF
     MD5 check sum: a3cecbabebb5b3a1aff122f23eb09bb0
     Pseudo is Ultrasoft + core correction, Zval =  4.0
     Generated using "atomic" code by A. Dal Corso  v.5.0.2 svn rev. 9415
     Using radial grid of 1073 points,  4 beta functions with: 
                l(1) =   0
                l(2) =   0
                l(3) =   1
                l(4) =   1
     Q(r) pseudized with 0 coefficients 


     atomic species   valence    mass     pseudopotential
     C                 4.00    12.01100     C ( 1.00)

     12 Sym. Ops. (no inversion) found



   Cartesian axes

     site n.     atom                  positions (alat units)
         1        C      tau(   1) = (   0.0000000   0.0000000   0.3333320  )
         2        C      tau(   2) = (   0.0000000   0.0000000   1.0000000  )
         3        C      tau(   3) = (   0.0000000   0.0000000   1.6666660  )
         4        C      tau(   4) = (  -0.0000005   0.2886748   0.3333320  )
         5        C      tau(   5) = (   0.2500000   0.1443370   1.0000000  )
         6        C      tau(   6) = (  -0.0000005   0.2886748   1.6666660  )
         7        C      tau(   7) = (   0.5000000   0.0000000   0.3333320  )
         8        C      tau(   8) = (   0.5000000   0.0000000   1.0000000  )
         9        C      tau(   9) = (   0.5000000   0.0000000   1.6666660  )
        10        C      tau(  10) = (   0.4999995   0.2886748   0.3333320  )
        11        C      tau(  11) = (   0.7500000   0.1443370   1.0000000  )
        12        C      tau(  12) = (   0.4999995   0.2886748   1.6666660  )
        13        C      tau(  13) = (  -0.2500000   0.4330127   0.3333320  )
        14        C      tau(  14) = (  -0.2500000   0.4330127   1.0000000  )
        15        C      tau(  15) = (  -0.2500000   0.4330127   1.6666660  )
        16        C      tau(  16) = (  -0.2500005   0.7216875   0.3333320  )
        17        C      tau(  17) = (   0.0000000   0.5773497   1.0000000  )
        18        C      tau(  18) = (  -0.2500005   0.7216875   1.6666660  )
        19        C      tau(  19) = (   0.2500000   0.4330127   0.3333320  )
        20        C      tau(  20) = (   0.2500000   0.4330127   1.0000000  )
        21        C      tau(  21) = (   0.2500000   0.4330127   1.6666660  )
        22        C      tau(  22) = (   0.2499995   0.7216875   0.3333320  )
        23        C      tau(  23) = (   0.5000000   0.5773497   1.0000000  )
        24        C      tau(  24) = (   0.2499995   0.7216875   1.6666660  )

     number of k points=     1  Gaussian smearing, width (Ry)=  0.0100
                       cart. coord. in units 2pi/alat
        k(    1) = (   0.0000000   0.0000000   0.0000000), wk =   2.0000000

     Dense  grid:   119753 G-vectors     FFT dimensions: (  54,  54, 108)

     Smooth grid:    30239 G-vectors     FFT dimensions: (  36,  36,  72)

     Estimated max dynamical RAM per process >     147.22 MB

     Estimated total dynamical RAM >     294.45 MB

     Check: negative core charge=   -0.000002

     Initial potential from superposition of free atoms

     starting charge      95.9992, renormalised to      96.0000
     Starting wfcs are   96 randomized atomic wfcs

     total cpu time spent up to now is        1.6 secs

     Self-consistent Calculation

     iteration #  1     ecut=    40.00 Ry     beta= 0.05
     Davidson diagonalization with overlap
     ethr =  1.00E-02,  avg # of iterations =  5.0

     total cpu time spent up to now is        6.1 secs

     total energy              =    -284.90017138 Ry
     estimated scf accuracy    <       6.75262558 Ry

     iteration #  2     ecut=    40.00 Ry     beta= 0.05
     Davidson diagonalization with overlap
     ethr =  7.03E-03,  avg # of iterations =  1.0

     total cpu time spent up to now is        8.3 secs

     total energy              =    -288.67574952 Ry
     estimated scf accuracy    <       6.78412195 Ry

     iteration #  3     ecut=    40.00 Ry     beta= 0.05
     Davidson diagonalization with overlap
     ethr =  7.03E-03,  avg # of iterations =  1.0

     total cpu time spent up to now is       10.0 secs

     total energy              =    -279.88839996 Ry
     estimated scf accuracy    <      13.55600985 Ry

     iteration #  4     ecut=    40.00 Ry     beta= 0.05
     Davidson diagonalization with overlap
     ethr =  7.03E-03,  avg # of iterations =  4.0

     total cpu time spent up to now is       12.0 secs

     total energy              =    -281.11652579 Ry
     estimated scf accuracy    <       0.33136827 Ry

     iteration #  5     ecut=    40.00 Ry     beta= 0.05
     Davidson diagonalization with overlap
     ethr =  3.45E-04,  avg # of iterations =  6.0

     total cpu time spent up to now is       14.8 secs

     total energy              =    -281.49054728 Ry
     estimated scf accuracy    <       0.34550329 Ry

     iteration #  6     ecut=    40.00 Ry     beta= 0.05
     Davidson diagonalization with overlap
     ethr =  3.45E-04,  avg # of iterations =  3.0

     total cpu time spent up to now is       16.8 secs

     total energy              =    -281.43529943 Ry
     estimated scf accuracy    <       0.25735477 Ry

     iteration #  7     ecut=    40.00 Ry     beta= 0.05
     Davidson diagonalization with overlap
     ethr =  2.68E-04,  avg # of iterations =  2.0

     total cpu time spent up to now is       18.5 secs

     total energy              =    -281.47509416 Ry
     estimated scf accuracy    <       0.01103656 Ry

     iteration #  8     ecut=    40.00 Ry     beta= 0.05
     Davidson diagonalization with overlap
     ethr =  1.15E-05,  avg # of iterations =  5.0

     total cpu time spent up to now is       20.9 secs

     total energy              =    -281.49687928 Ry
     estimated scf accuracy    <       0.04382558 Ry

     iteration #  9     ecut=    40.00 Ry     beta= 0.05
     Davidson diagonalization with overlap
     ethr =  1.15E-05,  avg # of iterations =  2.0

     total cpu time spent up to now is       22.5 secs

     total energy              =    -281.45891280 Ry
     estimated scf accuracy    <       0.06282433 Ry

     iteration # 10     ecut=    40.00 Ry     beta= 0.05
     Davidson diagonalization with overlap
     ethr =  1.15E-05,  avg # of iterations =  6.0

     total cpu time spent up to now is       25.2 secs

     total energy              =    -281.47359311 Ry
     estimated scf accuracy    <       0.01205478 Ry

     iteration # 11     ecut=    40.00 Ry     beta= 0.05
     Davidson diagonalization with overlap
     ethr =  1.15E-05,  avg # of iterations =  1.0

     total cpu time spent up to now is       26.7 secs

     total energy              =    -281.47257309 Ry
     estimated scf accuracy    <       0.00939064 Ry

     iteration # 12     ecut=    40.00 Ry     beta= 0.05
     Davidson diagonalization with overlap
     ethr =  9.78E-06,  avg # of iterations =  1.0

     total cpu time spent up to now is       28.2 secs

     total energy              =    -281.47157620 Ry
     estimated scf accuracy    <       0.00761216 Ry

     iteration # 13     ecut=    40.00 Ry     beta= 0.05
     Davidson diagonalization with overlap
     ethr =  7.93E-06,  avg # of iterations =  5.0

     total cpu time spent up to now is       30.5 secs

     total energy              =    -281.46707827 Ry
     estimated scf accuracy    <       0.01573966 Ry

     iteration # 14     ecut=    40.00 Ry     beta= 0.05
     Davidson diagonalization with overlap
     ethr =  7.93E-06,  avg # of iterations =  3.0

     total cpu time spent up to now is       32.5 secs

     total energy              =    -281.47081801 Ry
     estimated scf accuracy    <       0.00085172 Ry

     iteration # 15     ecut=    40.00 Ry     beta= 0.05
     Davidson diagonalization with overlap
     ethr =  8.87E-07,  avg # of iterations =  6.0

     total cpu time spent up to now is       34.9 secs

     total energy              =    -281.47369957 Ry
     estimated scf accuracy    <       0.00373049 Ry

     iteration # 16     ecut=    40.00 Ry     beta= 0.05
     Davidson diagonalization with overlap
     ethr =  8.87E-07,  avg # of iterations =  4.0

     total cpu time spent up to now is       37.0 secs

     total energy              =    -281.47245700 Ry
     estimated scf accuracy    <       0.00833277 Ry

     iteration # 17     ecut=    40.00 Ry     beta= 0.05
     Davidson diagonalization with overlap
     ethr =  8.87E-07,  avg # of iterations =  1.0

     total cpu time spent up to now is       38.6 secs

     total energy              =    -281.47095068 Ry
     estimated scf accuracy    <       0.00585375 Ry

     iteration # 18     ecut=    40.00 Ry     beta= 0.05
     Davidson diagonalization with overlap
     ethr =  8.87E-07,  avg # of iterations =  2.0

     total cpu time spent up to now is       40.5 secs

     total energy              =    -281.46910567 Ry
     estimated scf accuracy    <       0.00300918 Ry

     iteration # 19     ecut=    40.00 Ry     beta= 0.05
     Davidson diagonalization with overlap
     ethr =  8.87E-07,  avg # of iterations =  5.0

     total cpu time spent up to now is       43.5 secs

     total energy              =    -281.46992685 Ry
     estimated scf accuracy    <       0.00052706 Ry

     iteration # 20     ecut=    40.00 Ry     beta= 0.05
     Davidson diagonalization with overlap
     ethr =  5.49E-07,  avg # of iterations =  4.0

     total cpu time spent up to now is       45.8 secs

     total energy              =    -281.46984583 Ry
     estimated scf accuracy    <       0.00082400 Ry

     iteration # 21     ecut=    40.00 Ry     beta= 0.05
     Davidson diagonalization with overlap
     ethr =  5.49E-07,  avg # of iterations =  1.0

     total cpu time spent up to now is       47.5 secs

     total energy              =    -281.47052556 Ry
     estimated scf accuracy    <       0.00039371 Ry

     iteration # 22     ecut=    40.00 Ry     beta= 0.05
     Davidson diagonalization with overlap
     ethr =  4.10E-07,  avg # of iterations =  3.0

     total cpu time spent up to now is       49.8 secs

     total energy              =    -281.47017273 Ry
     estimated scf accuracy    <       0.00178343 Ry

     iteration # 23     ecut=    40.00 Ry     beta= 0.05
     Davidson diagonalization with overlap
     ethr =  4.10E-07,  avg # of iterations =  1.0

     total cpu time spent up to now is       51.5 secs

     total energy              =    -281.46997896 Ry
     estimated scf accuracy    <       0.00101265 Ry

     iteration # 24     ecut=    40.00 Ry     beta= 0.05
     Davidson diagonalization with overlap
     ethr =  4.10E-07,  avg # of iterations =  2.0

     total cpu time spent up to now is       53.3 secs

     total energy              =    -281.46981102 Ry
     estimated scf accuracy    <       0.00062947 Ry

     iteration # 25     ecut=    40.00 Ry     beta= 0.05
     Davidson diagonalization with overlap
     ethr =  4.10E-07,  avg # of iterations =  2.0

     total cpu time spent up to now is       54.9 secs

     total energy              =    -281.46966785 Ry
     estimated scf accuracy    <       0.00026602 Ry

     iteration # 26     ecut=    40.00 Ry     beta= 0.05
     Davidson diagonalization with overlap
     ethr =  2.77E-07,  avg # of iterations =  4.0

     total cpu time spent up to now is       56.8 secs

     total energy              =    -281.46974909 Ry
     estimated scf accuracy    <       0.00002479 Ry

     iteration # 27     ecut=    40.00 Ry     beta= 0.05
     Davidson diagonalization with overlap
     ethr =  2.58E-08,  avg # of iterations =  4.0

     total cpu time spent up to now is       58.7 secs

     total energy              =    -281.46975222 Ry
     estimated scf accuracy    <       0.00002981 Ry

     iteration # 28     ecut=    40.00 Ry     beta= 0.05
     Davidson diagonalization with overlap
     ethr =  2.58E-08,  avg # of iterations =  1.0

     total cpu time spent up to now is       60.3 secs

     total energy              =    -281.46974819 Ry
     estimated scf accuracy    <       0.00001247 Ry

     iteration # 29     ecut=    40.00 Ry     beta= 0.05
     Davidson diagonalization with overlap
     ethr =  1.30E-08,  avg # of iterations =  2.0

     total cpu time spent up to now is       62.1 secs

     total energy              =    -281.46974907 Ry
     estimated scf accuracy    <       0.00000615 Ry

     iteration # 30     ecut=    40.00 Ry     beta= 0.05
     Davidson diagonalization with overlap
     ethr =  6.41E-09,  avg # of iterations =  2.0

     total cpu time spent up to now is       63.9 secs

     total energy              =    -281.46975225 Ry
     estimated scf accuracy    <       0.00000242 Ry

     iteration # 31     ecut=    40.00 Ry     beta= 0.05
     Davidson diagonalization with overlap
     ethr =  2.53E-09,  avg # of iterations =  3.0

     total cpu time spent up to now is       66.1 secs

     total energy              =    -281.46975071 Ry
     estimated scf accuracy    <       0.00000140 Ry

     iteration # 32     ecut=    40.00 Ry     beta= 0.05
     Davidson diagonalization with overlap
     ethr =  1.45E-09,  avg # of iterations =  4.0

     total cpu time spent up to now is       68.0 secs

     End of self-consistent calculation

          k = 0.0000 0.0000 0.0000 (  3717 PWs)   bands (ev):

   -10.4162  -9.8381  -9.4737  -3.4813  -3.4813  -3.4812  -3.2139  -3.2138
    -3.2138  -2.8983  -2.8983  -2.8983  -2.3266  -2.3266  -2.3266  -2.0011
    -2.0011  -2.0011  -1.6623  -1.6622  -1.6622   0.8760   1.2041   4.2140
     5.6327   5.6327   5.6327   5.7096   5.7096   5.7096   6.1544   6.1544
     6.1545   8.9401   8.9401   8.9401   9.6336   9.6337   9.6337  10.7376
    10.7376  10.7377  10.8152  10.8154  10.8644  10.8646  11.3132  11.3133
    13.7323  13.7323  13.7324  15.1434  15.1434  15.1435  16.5369  16.5369
    16.5370  16.9179

     the Fermi energy is    12.6431 ev

!    total energy              =    -281.46975097 Ry
     estimated scf accuracy    <       0.00000085 Ry
     smearing contrib. (-TS)   =      -0.00000000 Ry
     internal energy E=F+TS    =    -281.46975097 Ry

     The total energy is F=E-TS. E is the sum of the following terms:
     one-electron contribution =      -3.10589717 Ry
     hartree contribution      =      73.85987887 Ry
     xc contribution           =    -109.23736109 Ry
     ewald contribution        =    -242.98637158 Ry

     convergence has been achieved in  32 iterations

     Forces acting on atoms (cartesian axes, Ry/au):

     atom    1 type  1   force =     0.00000000    0.00000000    0.01528481
     atom    2 type  1   force =     0.00000000   -0.00000000    0.00000000
     atom    3 type  1   force =    -0.00000000   -0.00000000   -0.01528481
     atom    4 type  1   force =    -0.00000000    0.00000485    0.02563725
     atom    5 type  1   force =    -0.00001982   -0.00001144   -0.00000000
     atom    6 type  1   force =    -0.00000000    0.00000485   -0.02563725
     atom    7 type  1   force =    -0.00000000   -0.00001139    0.01528368
     atom    8 type  1   force =     0.00000000    0.00000156    0.00000000
     atom    9 type  1   force =     0.00000000   -0.00001139   -0.01528368
     atom   10 type  1   force =     0.00000000    0.00000000    0.02563833
     atom   11 type  1   force =     0.00001982   -0.00001144    0.00000000
     atom   12 type  1   force =     0.00000000    0.00000000   -0.02563833
     atom   13 type  1   force =     0.00000986    0.00000569    0.01528368
     atom   14 type  1   force =    -0.00000135   -0.00000078    0.00000000
     atom   15 type  1   force =     0.00000986    0.00000569   -0.01528368
     atom   16 type  1   force =     0.00000420   -0.00000243    0.02563725
     atom   17 type  1   force =     0.00000000   -0.00000000    0.00000000
     atom   18 type  1   force =     0.00000420   -0.00000243   -0.02563725
     atom   19 type  1   force =    -0.00000986    0.00000569    0.01528368
     atom   20 type  1   force =     0.00000135   -0.00000078    0.00000000
     atom   21 type  1   force =    -0.00000986    0.00000569   -0.01528368
     atom   22 type  1   force =    -0.00000420   -0.00000243    0.02563725
     atom   23 type  1   force =     0.00000000    0.00002288    0.00000000
     atom   24 type  1   force =    -0.00000420   -0.00000243   -0.02563725

     Total force =     0.084422     Total SCF correction =     0.000846


     Computing stress (Cartesian axis) and pressure

          total   stress  (Ry/bohr**3)                   (kbar)     P=     3014.33
   0.03089764   0.00000000  -0.00000000         4545.20        0.00       -0.00
   0.00000000   0.03089764   0.00000000            0.00     4545.20        0.00
  -0.00000000   0.00000000  -0.00032235           -0.00        0.00      -47.42


     BFGS Geometry Optimization
     Energy error            =      0.0E+00 Ry
     Gradient error          =      2.6E-02 Ry/Bohr
     Cell gradient error     =      4.5E+03 kbar

     number of scf cycles    =   1
     number of bfgs steps    =   0

     enthalpy           new  =    -281.4697509704 Ry

     new trust radius        =       0.5000000000 bohr
     new conv_thr            =       0.0000010000 Ry

     new unit-cell volume =   1041.04576 a.u.^3 (   154.26707 Ang^3 )
     density =      3.10289 g/cm^3

CELL_PARAMETERS (alat=  8.00000437)
   1.083950707   0.000000000  -0.000000000
  -0.541975354   0.938728849   0.000000000
  -0.000000000   0.000000000   1.998248291

ATOMIC_POSITIONS (crystal)
C                0.0000000000       -0.0000000000        0.1667698243    0   0   1
C                0.0000000000       -0.0000000000        0.5000000000    0   0   1
C                0.0000000000        0.0000000000        0.8332291757    0   0   1
C                0.1666660000        0.3333330000        0.1668401447    0   0   1
C                0.3333330000        0.1666660000        0.5000000000    0   0   1
C                0.1666660000        0.3333330000        0.8331588553    0   0   1
C                0.5000000000       -0.0000000000        0.1667698166    0   0   1
C                0.5000000000       -0.0000000000        0.5000000000    0   0   1
C                0.5000000000       -0.0000000000        0.8332291834    0   0   1
C                0.6666660000        0.3333330000        0.1668401520    0   0   1
C                0.8333330000        0.1666660000        0.5000000000    0   0   1
C                0.6666660000        0.3333330000        0.8331588480    0   0   1
C               -0.0000000000        0.5000000000        0.1667698166    0   0   1
C               -0.0000000000        0.5000000000        0.5000000000    0   0   1
C               -0.0000000000        0.5000000000        0.8332291834    0   0   1
C                0.1666660000        0.8333330000        0.1668401447    0   0   1
C                0.3333330000        0.6666660000        0.5000000000    0   0   1
C                0.1666660000        0.8333330000        0.8331588553    0   0   1
C                0.5000000000        0.5000000000        0.1667698166    0   0   1
C                0.5000000000        0.5000000000        0.5000000000    0   0   1
C                0.5000000000        0.5000000000        0.8332291834    0   0   1
C                0.6666660000        0.8333330000        0.1668401447    0   0   1
C                0.8333330000        0.6666660000        0.5000000000    0   0   1
C                0.6666660000        0.8333330000        0.8331588553    0   0   1



     Writing config-only to output data dir ../results/graphene/graphene.save/ :
     XML data file
     NEW-OLD atomic charge density approx. for the potential

     Check: negative core charge=   -0.000002

     total cpu time spent up to now is       72.1 secs

     Self-consistent Calculation

     iteration #  1     ecut=    40.00 Ry     beta= 0.05
     Davidson diagonalization with overlap
     ethr =  1.00E-06,  avg # of iterations = 14.0

     total cpu time spent up to now is       79.0 secs

     total energy              =    -284.64365774 Ry
     estimated scf accuracy    <       0.24077063 Ry

     iteration #  2     ecut=    40.00 Ry     beta= 0.05
     Davidson diagonalization with overlap
     ethr =  2.51E-04,  avg # of iterations =  1.0

     total cpu time spent up to now is       80.7 secs

     total energy              =    -284.49721940 Ry
     estimated scf accuracy    <       0.22493548 Ry

     iteration #  3     ecut=    40.00 Ry     beta= 0.05
     Davidson diagonalization with overlap
     ethr =  2.34E-04,  avg # of iterations =  2.0

     total cpu time spent up to now is       82.7 secs

     total energy              =    -284.53879589 Ry
     estimated scf accuracy    <       0.00745649 Ry

     iteration #  4     ecut=    40.00 Ry     beta= 0.05
     Davidson diagonalization with overlap
     ethr =  7.77E-06,  avg # of iterations =  3.0

     total cpu time spent up to now is       84.9 secs

     total energy              =    -284.54770831 Ry
     estimated scf accuracy    <       0.00520451 Ry

     iteration #  5     ecut=    40.00 Ry     beta= 0.05
     Davidson diagonalization with overlap
     ethr =  5.42E-06,  avg # of iterations =  3.0

     total cpu time spent up to now is       86.9 secs

     total energy              =    -284.54012483 Ry
     estimated scf accuracy    <       0.01493272 Ry

     iteration #  6     ecut=    40.00 Ry     beta= 0.05
     Davidson diagonalization with overlap
     ethr =  5.42E-06,  avg # of iterations =  3.0

     total cpu time spent up to now is       89.0 secs

     total energy              =    -284.54196838 Ry
     estimated scf accuracy    <       0.00048160 Ry

     iteration #  7     ecut=    40.00 Ry     beta= 0.05
     Davidson diagonalization with overlap
     ethr =  5.02E-07,  avg # of iterations =  4.0

     total cpu time spent up to now is       90.8 secs

     total energy              =    -284.54216844 Ry
     estimated scf accuracy    <       0.00069502 Ry

     iteration #  8     ecut=    40.00 Ry     beta= 0.05
     Davidson diagonalization with overlap
     ethr =  5.02E-07,  avg # of iterations =  3.0

     total cpu time spent up to now is       92.9 secs

     total energy              =    -284.54182482 Ry
     estimated scf accuracy    <       0.00117436 Ry

     iteration #  9     ecut=    40.00 Ry     beta= 0.05
     Davidson diagonalization with overlap
     ethr =  5.02E-07,  avg # of iterations =  2.0

     total cpu time spent up to now is       94.5 secs

     total energy              =    -284.54179554 Ry
     estimated scf accuracy    <       0.00020722 Ry

     iteration # 10     ecut=    40.00 Ry     beta= 0.05
     Davidson diagonalization with overlap
     ethr =  2.16E-07,  avg # of iterations =  4.0

     total cpu time spent up to now is       96.4 secs

     total energy              =    -284.54183072 Ry
     estimated scf accuracy    <       0.00004835 Ry

     iteration # 11     ecut=    40.00 Ry     beta= 0.05
     Davidson diagonalization with overlap
     ethr =  5.04E-08,  avg # of iterations =  4.0

     total cpu time spent up to now is       98.4 secs

     total energy              =    -284.54184707 Ry
     estimated scf accuracy    <       0.00002965 Ry

     iteration # 12     ecut=    40.00 Ry     beta= 0.05
     Davidson diagonalization with overlap
     ethr =  3.09E-08,  avg # of iterations =  2.0

     total cpu time spent up to now is      100.0 secs

     total energy              =    -284.54185640 Ry
     estimated scf accuracy    <       0.00003225 Ry

     iteration # 13     ecut=    40.00 Ry     beta= 0.05
     Davidson diagonalization with overlap
     ethr =  3.09E-08,  avg # of iterations =  1.0

     total cpu time spent up to now is      101.5 secs

     total energy              =    -284.54184640 Ry
     estimated scf accuracy    <       0.00004458 Ry

     iteration # 14     ecut=    40.00 Ry     beta= 0.05
     Davidson diagonalization with overlap
     ethr =  3.09E-08,  avg # of iterations =  1.0

     total cpu time spent up to now is      102.9 secs

     total energy              =    -284.54183739 Ry
     estimated scf accuracy    <       0.00001721 Ry

     iteration # 15     ecut=    40.00 Ry     beta= 0.05
     Davidson diagonalization with overlap
     ethr =  1.79E-08,  avg # of iterations =  5.0

     total cpu time spent up to now is      105.0 secs

     total energy              =    -284.54184708 Ry
     estimated scf accuracy    <       0.00000881 Ry

     iteration # 16     ecut=    40.00 Ry     beta= 0.05
     Davidson diagonalization with overlap
     ethr =  9.18E-09,  avg # of iterations =  2.0

     total cpu time spent up to now is      106.6 secs

     total energy              =    -284.54184472 Ry
     estimated scf accuracy    <       0.00000750 Ry

     iteration # 17     ecut=    40.00 Ry     beta= 0.05
     Davidson diagonalization with overlap
     ethr =  7.81E-09,  avg # of iterations =  2.0

     total cpu time spent up to now is      108.2 secs

     total energy              =    -284.54184230 Ry
     estimated scf accuracy    <       0.00000171 Ry

     iteration # 18     ecut=    40.00 Ry     beta= 0.05
     Davidson diagonalization with overlap
     ethr =  1.78E-09,  avg # of iterations =  4.0

     total cpu time spent up to now is      110.2 secs

     End of self-consistent calculation

          k = 0.0000 0.0000 0.0000 (  3717 PWs)   bands (ev):

   -10.7273 -10.1098  -9.6699  -4.2182  -4.2182  -4.2182  -4.0801  -4.0801
    -4.0800  -3.7535  -3.7535  -3.7535  -3.7154  -3.7154  -3.7153  -3.3013
    -3.3012  -3.3012  -3.2343  -3.2343  -3.2342   0.4783   0.8573   3.8081
     3.8082   3.8082   3.9192   3.9193   3.9193   4.1057   4.4480   4.4480
     4.4480   7.0477   7.0477   7.0477   7.8038   7.8038   7.8039   7.9881
     7.9882   8.0620   8.0621   8.5956   8.5958   8.9905   8.9905   8.9906
    11.3437  11.3437  11.3437  12.9494  12.9494  12.9494  14.1661  14.1661
    14.1661  15.8943

     the Fermi energy is     9.9192 ev

!    total energy              =    -284.54184719 Ry
     estimated scf accuracy    <       0.00000051 Ry
     smearing contrib. (-TS)   =      -0.00000000 Ry
     internal energy E=F+TS    =    -284.54184719 Ry

     The total energy is F=E-TS. E is the sum of the following terms:
     one-electron contribution =       4.41476691 Ry
     hartree contribution      =      61.66789254 Ry
     xc contribution           =    -104.10871952 Ry
     ewald contribution        =    -246.51578713 Ry

     convergence has been achieved in  18 iterations

     Forces acting on atoms (cartesian axes, Ry/au):

     atom    1 type  1   force =    -0.00000000   -0.00000000    0.01808138
     atom    2 type  1   force =     0.00000000   -0.00000000    0.00000000
     atom    3 type  1   force =    -0.00000000    0.00000000   -0.01808138
     atom    4 type  1   force =    -0.00000000    0.00000018    0.02911081
     atom    5 type  1   force =    -0.00000054   -0.00000031    0.00000000
     atom    6 type  1   force =     0.00000000    0.00000018   -0.02911081
     atom    7 type  1   force =    -0.00000000    0.00000007    0.01808132
     atom    8 type  1   force =    -0.00000000    0.00000052   -0.00000000
     atom    9 type  1   force =    -0.00000000    0.00000007   -0.01808132
     atom   10 type  1   force =     0.00000000    0.00000000    0.02911077
     atom   11 type  1   force =     0.00000054   -0.00000031    0.00000000
     atom   12 type  1   force =    -0.00000000    0.00000000   -0.02911077
     atom   13 type  1   force =    -0.00000006   -0.00000004    0.01808132
     atom   14 type  1   force =    -0.00000045   -0.00000026   -0.00000000
     atom   15 type  1   force =    -0.00000006   -0.00000004   -0.01808132
     atom   16 type  1   force =     0.00000015   -0.00000009    0.02911081
     atom   17 type  1   force =     0.00000000   -0.00000000    0.00000000
     atom   18 type  1   force =     0.00000015   -0.00000009   -0.02911081
     atom   19 type  1   force =     0.00000006   -0.00000004    0.01808132
     atom   20 type  1   force =     0.00000045   -0.00000026   -0.00000000
     atom   21 type  1   force =     0.00000006   -0.00000004   -0.01808132
     atom   22 type  1   force =    -0.00000015   -0.00000009    0.02911081
     atom   23 type  1   force =    -0.00000000    0.00000063    0.00000000
     atom   24 type  1   force =    -0.00000015   -0.00000009   -0.02911081

     Total force =     0.096928     Total SCF correction =     0.001414


     Computing stress (Cartesian axis) and pressure

          total   stress  (Ry/bohr**3)                   (kbar)     P=     1064.31
   0.01094573  -0.00000000   0.00000000         1610.17       -0.00        0.00
  -0.00000000   0.01094573  -0.00000000           -0.00     1610.17       -0.00
   0.00000000  -0.00000000  -0.00018630            0.00       -0.00      -27.41

     Energy error            =      3.1E+00 Ry
     Gradient error          =      2.9E-02 Ry/Bohr
     Cell gradient error     =      1.6E+03 kbar

     number of scf cycles    =   2
     number of bfgs steps    =   1

     enthalpy           old  =    -281.4697509704 Ry
     enthalpy           new  =    -284.5418471942 Ry

     CASE: enthalpy          _new < enthalpy          _old

     new trust radius        =       0.3114636585 bohr
     new conv_thr            =       0.0000002911 Ry

     new unit-cell volume =   1138.91722 a.u.^3 (   168.77012 Ang^3 )
     density =      2.83625 g/cm^3

CELL_PARAMETERS (alat=  8.00000437)
   1.136268812  -0.000000000   0.000000000
  -0.568134406   0.984037657  -0.000000000
   0.000000000  -0.000000000   1.989430090

ATOMIC_POSITIONS (crystal)
C               -0.0000000000        0.0000000000        0.1680720987    0   0   1
C                0.0000000000       -0.0000000000        0.5000000000    0   0   1
C                0.0000000000       -0.0000000000        0.8319269013    0   0   1
C                0.1666660000        0.3333330000        0.1689011083    0   0   1
C                0.3333330000        0.1666660000        0.5000000000    0   0   1
C                0.1666660000        0.3333330000        0.8310978917    0   0   1
C                0.5000000000        0.0000000000        0.1680721245    0   0   1
C                0.5000000000       -0.0000000000        0.5000000000    0   0   1
C                0.5000000000       -0.0000000000        0.8319268755    0   0   1
C                0.6666660000        0.3333330000        0.1689010743    0   0   1
C                0.8333330000        0.1666660000        0.5000000000    0   0   1
C                0.6666660000        0.3333330000        0.8310979257    0   0   1
C               -0.0000000000        0.5000000000        0.1680721245    0   0   1
C               -0.0000000000        0.5000000000        0.5000000000    0   0   1
C               -0.0000000000        0.5000000000        0.8319268755    0   0   1
C                0.1666660000        0.8333330000        0.1689011083    0   0   1
C                0.3333330000        0.6666660000        0.5000000000    0   0   1
C                0.1666660000        0.8333330000        0.8310978917    0   0   1
C                0.5000000000        0.5000000000        0.1680721245    0   0   1
C                0.5000000000        0.5000000000        0.5000000000    0   0   1
C                0.5000000000        0.5000000000        0.8319268755    0   0   1
C                0.6666660000        0.8333330000        0.1689011083    0   0   1
C                0.8333330000        0.6666660000        0.5000000000    0   0   1
C                0.6666660000        0.8333330000        0.8310978917    0   0   1



     Writing config-only to output data dir ../results/graphene/graphene.save/ :
     XML data file
     NEW-OLD atomic charge density approx. for the potential

     Check: negative core charge=   -0.000002

     total cpu time spent up to now is      114.1 secs

     Self-consistent Calculation

     iteration #  1     ecut=    40.00 Ry     beta= 0.05
     Davidson diagonalization with overlap
     ethr =  1.00E-06,  avg # of iterations = 13.0

     total cpu time spent up to now is      119.4 secs

     total energy              =    -285.29417209 Ry
     estimated scf accuracy    <       0.07938097 Ry

     iteration #  2     ecut=    40.00 Ry     beta= 0.05
     Davidson diagonalization with overlap
     ethr =  8.27E-05,  avg # of iterations =  1.0

     total cpu time spent up to now is      120.9 secs

     total energy              =    -285.24634757 Ry
     estimated scf accuracy    <       0.07447962 Ry

     iteration #  3     ecut=    40.00 Ry     beta= 0.05
     Davidson diagonalization with overlap
     ethr =  7.76E-05,  avg # of iterations =  2.0

     total cpu time spent up to now is      122.7 secs

     total energy              =    -285.26081257 Ry
     estimated scf accuracy    <       0.00311785 Ry

     iteration #  4     ecut=    40.00 Ry     beta= 0.05
     Davidson diagonalization with overlap
     ethr =  3.25E-06,  avg # of iterations =  4.0

     total cpu time spent up to now is      124.6 secs

     total energy              =    -285.26275161 Ry
     estimated scf accuracy    <       0.00186855 Ry

     iteration #  5     ecut=    40.00 Ry     beta= 0.05
     Davidson diagonalization with overlap
     ethr =  1.95E-06,  avg # of iterations =  2.0

     total cpu time spent up to now is      126.4 secs

     total energy              =    -285.26119536 Ry
     estimated scf accuracy    <       0.00417047 Ry

     iteration #  6     ecut=    40.00 Ry     beta= 0.05
     Davidson diagonalization with overlap
     ethr =  1.95E-06,  avg # of iterations =  2.0

     total cpu time spent up to now is      128.0 secs

     total energy              =    -285.26150241 Ry
     estimated scf accuracy    <       0.00044677 Ry

     iteration #  7     ecut=    40.00 Ry     beta= 0.05
     Davidson diagonalization with overlap
     ethr =  4.65E-07,  avg # of iterations =  2.0

     total cpu time spent up to now is      129.6 secs

     total energy              =    -285.26144428 Ry
     estimated scf accuracy    <       0.00045893 Ry

     iteration #  8     ecut=    40.00 Ry     beta= 0.05
     Davidson diagonalization with overlap
     ethr =  4.65E-07,  avg # of iterations =  2.0

     total cpu time spent up to now is      131.2 secs

     total energy              =    -285.26139789 Ry
     estimated scf accuracy    <       0.00025963 Ry

     iteration #  9     ecut=    40.00 Ry     beta= 0.05
     Davidson diagonalization with overlap
     ethr =  2.70E-07,  avg # of iterations =  2.0

     total cpu time spent up to now is      132.7 secs

     total energy              =    -285.26142763 Ry
     estimated scf accuracy    <       0.00005645 Ry

     iteration # 10     ecut=    40.00 Ry     beta= 0.05
     Davidson diagonalization with overlap
     ethr =  5.88E-08,  avg # of iterations =  4.0

     total cpu time spent up to now is      134.6 secs

     total energy              =    -285.26144402 Ry
     estimated scf accuracy    <       0.00006580 Ry

     iteration # 11     ecut=    40.00 Ry     beta= 0.05
     Davidson diagonalization with overlap
     ethr =  5.88E-08,  avg # of iterations =  1.0

     total cpu time spent up to now is      136.2 secs

     total energy              =    -285.26144637 Ry
     estimated scf accuracy    <       0.00006609 Ry

     iteration # 12     ecut=    40.00 Ry     beta= 0.05
     Davidson diagonalization with overlap
     ethr =  5.88E-08,  avg # of iterations =  1.0

     total cpu time spent up to now is      137.6 secs

     total energy              =    -285.26141141 Ry
     estimated scf accuracy    <       0.00006712 Ry

     iteration # 13     ecut=    40.00 Ry     beta= 0.05
     Davidson diagonalization with overlap
     ethr =  5.88E-08,  avg # of iterations =  2.0

     total cpu time spent up to now is      139.3 secs

     total energy              =    -285.26142094 Ry
     estimated scf accuracy    <       0.00001013 Ry

     iteration # 14     ecut=    40.00 Ry     beta= 0.05
     Davidson diagonalization with overlap
     ethr =  1.06E-08,  avg # of iterations =  5.0

     total cpu time spent up to now is      141.7 secs

     total energy              =    -285.26143401 Ry
     estimated scf accuracy    <       0.00003427 Ry

     iteration # 15     ecut=    40.00 Ry     beta= 0.05
     Davidson diagonalization with overlap
     ethr =  1.06E-08,  avg # of iterations =  2.0

     total cpu time spent up to now is      143.2 secs

     total energy              =    -285.26142900 Ry
     estimated scf accuracy    <       0.00004456 Ry

     iteration # 16     ecut=    40.00 Ry     beta= 0.05
     Davidson diagonalization with overlap
     ethr =  1.06E-08,  avg # of iterations =  1.0

     total cpu time spent up to now is      144.7 secs

     total energy              =    -285.26141296 Ry
     estimated scf accuracy    <       0.00003409 Ry

     iteration # 17     ecut=    40.00 Ry     beta= 0.05
     Davidson diagonalization with overlap
     ethr =  1.06E-08,  avg # of iterations =  5.0

     total cpu time spent up to now is      146.7 secs

     total energy              =    -285.26142130 Ry
     estimated scf accuracy    <       0.00001264 Ry

     iteration # 18     ecut=    40.00 Ry     beta= 0.05
     Davidson diagonalization with overlap
     ethr =  1.06E-08,  avg # of iterations =  2.0

     total cpu time spent up to now is      148.5 secs

     total energy              =    -285.26142327 Ry
     estimated scf accuracy    <       0.00001460 Ry

     iteration # 19     ecut=    40.00 Ry     beta= 0.05
     Davidson diagonalization with overlap
     ethr =  1.06E-08,  avg # of iterations =  1.0

     total cpu time spent up to now is      149.9 secs

     total energy              =    -285.26142048 Ry
     estimated scf accuracy    <       0.00001333 Ry

     iteration # 20     ecut=    40.00 Ry     beta= 0.05
     Davidson diagonalization with overlap
     ethr =  1.06E-08,  avg # of iterations =  1.0

     total cpu time spent up to now is      151.4 secs

     total energy              =    -285.26142071 Ry
     estimated scf accuracy    <       0.00001063 Ry

     iteration # 21     ecut=    40.00 Ry     beta= 0.05
     Davidson diagonalization with overlap
     ethr =  1.06E-08,  avg # of iterations =  1.0

     total cpu time spent up to now is      152.9 secs

     total energy              =    -285.26142045 Ry
     estimated scf accuracy    <       0.00001051 Ry

     iteration # 22     ecut=    40.00 Ry     beta= 0.05
     Davidson diagonalization with overlap
     ethr =  1.06E-08,  avg # of iterations =  1.0

     total cpu time spent up to now is      154.3 secs

     total energy              =    -285.26141998 Ry
     estimated scf accuracy    <       0.00000439 Ry

     iteration # 23     ecut=    40.00 Ry     beta= 0.05
     Davidson diagonalization with overlap
     ethr =  4.57E-09,  avg # of iterations =  3.0

     total cpu time spent up to now is      156.0 secs

     total energy              =    -285.26142145 Ry
     estimated scf accuracy    <       0.00000159 Ry

     iteration # 24     ecut=    40.00 Ry     beta= 0.05
     Davidson diagonalization with overlap
     ethr =  1.66E-09,  avg # of iterations =  4.0

     total cpu time spent up to now is      157.8 secs

     total energy              =    -285.26142157 Ry
     estimated scf accuracy    <       0.00000342 Ry

     iteration # 25     ecut=    40.00 Ry     beta= 0.05
     Davidson diagonalization with overlap
     ethr =  1.66E-09,  avg # of iterations =  1.0

     total cpu time spent up to now is      159.3 secs

     total energy              =    -285.26142083 Ry
     estimated scf accuracy    <       0.00000199 Ry

     iteration # 26     ecut=    40.00 Ry     beta= 0.05
     Davidson diagonalization with overlap
     ethr =  1.66E-09,  avg # of iterations =  4.0

     total cpu time spent up to now is      160.9 secs

     End of self-consistent calculation

          k = 0.0000 0.0000 0.0000 (  3717 PWs)   bands (ev):

   -10.8023 -10.1668  -9.6716  -5.0098  -5.0098  -5.0098  -4.5392  -4.5391
    -4.5391  -4.4383  -4.4383  -4.4382  -3.9549  -3.9549  -3.9548  -3.9488
    -3.9487  -3.9487  -3.4479  -3.4479  -3.4478   0.3123   0.6397   2.9388
     2.9389   2.9389   3.0699   3.0700   3.0700   3.6400   3.6401   3.6401
     4.1005   6.1137   6.1137   6.1137   6.6238   6.6239   6.7111   6.7112
     6.8352   6.8352   6.8352   7.2847   7.2848   8.0790   8.0790   8.0790
    10.1176  10.1176  10.1177  11.8220  11.8220  11.8220  12.8981  12.8981
    12.8981  15.4637

     the Fermi energy is     9.1246 ev

!    total energy              =    -285.26142240 Ry
     estimated scf accuracy    <       0.00000008 Ry
     smearing contrib. (-TS)   =      -0.00000000 Ry
     internal energy E=F+TS    =    -285.26142240 Ry

     The total energy is F=E-TS. E is the sum of the following terms:
     one-electron contribution =       8.32970198 Ry
     hartree contribution      =      55.49851583 Ry
     xc contribution           =    -101.35377735 Ry
     ewald contribution        =    -247.73586286 Ry

     convergence has been achieved in  26 iterations

     Forces acting on atoms (cartesian axes, Ry/au):

     atom    1 type  1   force =     0.00000000    0.00000000    0.02324296
     atom    2 type  1   force =    -0.00000000   -0.00000000   -0.00000000
     atom    3 type  1   force =    -0.00000000   -0.00000000   -0.02324296
     atom    4 type  1   force =    -0.00000000    0.00000166    0.02508542
     atom    5 type  1   force =    -0.00000032   -0.00000018   -0.00000000
     atom    6 type  1   force =    -0.00000000    0.00000166   -0.02508542
     atom    7 type  1   force =     0.00000000   -0.00000165    0.02324297
     atom    8 type  1   force =    -0.00000000   -0.00000058   -0.00000000
     atom    9 type  1   force =     0.00000000   -0.00000165   -0.02324297
     atom   10 type  1   force =    -0.00000000   -0.00000000    0.02508538
     atom   11 type  1   force =     0.00000032   -0.00000018   -0.00000000
     atom   12 type  1   force =     0.00000000    0.00000000   -0.02508538
     atom   13 type  1   force =     0.00000143    0.00000083    0.02324297
     atom   14 type  1   force =     0.00000050    0.00000029   -0.00000000
     atom   15 type  1   force =     0.00000143    0.00000083   -0.02324297
     atom   16 type  1   force =     0.00000144   -0.00000083    0.02508542
     atom   17 type  1   force =    -0.00000000   -0.00000000   -0.00000000
     atom   18 type  1   force =     0.00000144   -0.00000083   -0.02508542
     atom   19 type  1   force =    -0.00000143    0.00000083    0.02324297
     atom   20 type  1   force =    -0.00000050    0.00000029    0.00000000
     atom   21 type  1   force =    -0.00000143    0.00000083   -0.02324297
     atom   22 type  1   force =    -0.00000144   -0.00000083    0.02508542
     atom   23 type  1   force =     0.00000000    0.00000037    0.00000000
     atom   24 type  1   force =    -0.00000144   -0.00000083   -0.02508542

     Total force =     0.096727     Total SCF correction =     0.000702


     Computing stress (Cartesian axis) and pressure

          total   stress  (Ry/bohr**3)                   (kbar)     P=      319.19
   0.00334324   0.00000000  -0.00000000          491.81        0.00       -0.00
   0.00000000   0.00334324  -0.00000000            0.00      491.81       -0.00
  -0.00000000   0.00000000  -0.00017706           -0.00        0.00      -26.05

     Energy error            =      7.2E-01 Ry
     Gradient error          =      2.5E-02 Ry/Bohr
     Cell gradient error     =      4.9E+02 kbar

     number of scf cycles    =   3
     number of bfgs steps    =   2

     enthalpy           old  =    -284.5418471942 Ry
     enthalpy           new  =    -285.2614224020 Ry

     CASE: enthalpy          _new < enthalpy          _old

     new trust radius        =       0.1502116043 bohr
     new conv_thr            =       0.0000002509 Ry

     new unit-cell volume =   1180.58286 a.u.^3 (   174.94433 Ang^3 )
     density =      2.73615 g/cm^3

CELL_PARAMETERS (alat=  8.00000437)
   1.161556464   0.000000000  -0.000000000
  -0.580778232   1.005937406   0.000000000
  -0.000000000  -0.000000000   1.973397242

ATOMIC_POSITIONS (crystal)
C                0.0000000000       -0.0000000000        0.1703097137    0   0   1
C                0.0000000000        0.0000000000        0.5000000000    0   0   1
C               -0.0000000000        0.0000000000        0.8296892863    0   0   1
C                0.1666660000        0.3333330000        0.1713491906    0   0   1
C                0.3333330000        0.1666660000        0.5000000000    0   0   1
C                0.1666660000        0.3333330000        0.8286498094    0   0   1
C                0.5000000000       -0.0000000000        0.1703097589    0   0   1
C                0.5000000000        0.0000000000        0.5000000000    0   0   1
C                0.5000000000        0.0000000000        0.8296892411    0   0   1
C                0.6666660000        0.3333330000        0.1713491346    0   0   1
C                0.8333330000        0.1666660000        0.5000000000    0   0   1
C                0.6666660000        0.3333330000        0.8286498654    0   0   1
C                0.0000000000        0.5000000000        0.1703097589    0   0   1
C                0.0000000000        0.5000000000        0.5000000000    0   0   1
C                0.0000000000        0.5000000000        0.8296892411    0   0   1
C                0.1666660000        0.8333330000        0.1713491906    0   0   1
C                0.3333330000        0.6666660000        0.5000000000    0   0   1
C                0.1666660000        0.8333330000        0.8286498094    0   0   1
C                0.5000000000        0.5000000000        0.1703097589    0   0   1
C                0.5000000000        0.5000000000        0.5000000000    0   0   1
C                0.5000000000        0.5000000000        0.8296892411    0   0   1
C                0.6666660000        0.8333330000        0.1713491906    0   0   1
C                0.8333330000        0.6666660000        0.5000000000    0   0   1
C                0.6666660000        0.8333330000        0.8286498094    0   0   1



     Writing config-only to output data dir ../results/graphene/graphene.save/ :
     XML data file
     NEW-OLD atomic charge density approx. for the potential

     Check: negative core charge=   -0.000003

     total cpu time spent up to now is      164.7 secs

     Self-consistent Calculation

     iteration #  1     ecut=    40.00 Ry     beta= 0.05
     Davidson diagonalization with overlap
     ethr =  1.00E-06,  avg # of iterations = 10.0

     total cpu time spent up to now is      169.2 secs

     total energy              =    -285.38257958 Ry
     estimated scf accuracy    <       0.02200817 Ry

     iteration #  2     ecut=    40.00 Ry     beta= 0.05
     Davidson diagonalization with overlap
     ethr =  2.29E-05,  avg # of iterations =  1.0

     total cpu time spent up to now is      170.6 secs

     total energy              =    -285.37091600 Ry
     estimated scf accuracy    <       0.02046099 Ry

     iteration #  3     ecut=    40.00 Ry     beta= 0.05
     Davidson diagonalization with overlap
     ethr =  2.13E-05,  avg # of iterations =  2.0

     total cpu time spent up to now is      172.4 secs

     total energy              =    -285.37421479 Ry
     estimated scf accuracy    <       0.00069053 Ry

     iteration #  4     ecut=    40.00 Ry     beta= 0.05
     Davidson diagonalization with overlap
     ethr =  7.19E-07,  avg # of iterations =  4.0

     total cpu time spent up to now is      174.4 secs

     total energy              =    -285.37449534 Ry
     estimated scf accuracy    <       0.00044059 Ry

     iteration #  5     ecut=    40.00 Ry     beta= 0.05
     Davidson diagonalization with overlap
     ethr =  4.59E-07,  avg # of iterations =  2.0

     total cpu time spent up to now is      175.9 secs

     total energy              =    -285.37439278 Ry
     estimated scf accuracy    <       0.00047622 Ry

     iteration #  6     ecut=    40.00 Ry     beta= 0.05
     Davidson diagonalization with overlap
     ethr =  4.59E-07,  avg # of iterations =  1.0

     total cpu time spent up to now is      177.3 secs

     total energy              =    -285.37441042 Ry
     estimated scf accuracy    <       0.00013882 Ry

     iteration #  7     ecut=    40.00 Ry     beta= 0.05
     Davidson diagonalization with overlap
     ethr =  1.45E-07,  avg # of iterations =  2.0

     total cpu time spent up to now is      178.9 secs

     total energy              =    -285.37441538 Ry
     estimated scf accuracy    <       0.00010345 Ry

     iteration #  8     ecut=    40.00 Ry     beta= 0.05
     Davidson diagonalization with overlap
     ethr =  1.08E-07,  avg # of iterations =  1.0

     total cpu time spent up to now is      180.3 secs

     total energy              =    -285.37441927 Ry
     estimated scf accuracy    <       0.00008913 Ry

     iteration #  9     ecut=    40.00 Ry     beta= 0.05
     Davidson diagonalization with overlap
     ethr =  9.28E-08,  avg # of iterations =  1.0

     total cpu time spent up to now is      181.9 secs

     total energy              =    -285.37440837 Ry
     estimated scf accuracy    <       0.00008953 Ry

     iteration # 10     ecut=    40.00 Ry     beta= 0.05
     Davidson diagonalization with overlap
     ethr =  9.28E-08,  avg # of iterations =  2.0

     total cpu time spent up to now is      183.5 secs

     total energy              =    -285.37439134 Ry
     estimated scf accuracy    <       0.00006721 Ry

     iteration # 11     ecut=    40.00 Ry     beta= 0.05
     Davidson diagonalization with overlap
     ethr =  7.00E-08,  avg # of iterations =  5.0

     total cpu time spent up to now is      185.5 secs

     total energy              =    -285.37443702 Ry
     estimated scf accuracy    <       0.00008977 Ry

     iteration # 12     ecut=    40.00 Ry     beta= 0.05
     Davidson diagonalization with overlap
     ethr =  7.00E-08,  avg # of iterations =  2.0

     total cpu time spent up to now is      187.0 secs

     total energy              =    -285.37444908 Ry
     estimated scf accuracy    <       0.00012378 Ry

     iteration # 13     ecut=    40.00 Ry     beta= 0.05
     Davidson diagonalization with overlap
     ethr =  7.00E-08,  avg # of iterations =  1.0

     total cpu time spent up to now is      188.5 secs

     total energy              =    -285.37444753 Ry
     estimated scf accuracy    <       0.00015547 Ry

     iteration # 14     ecut=    40.00 Ry     beta= 0.05
     Davidson diagonalization with overlap
     ethr =  7.00E-08,  avg # of iterations =  1.0

     total cpu time spent up to now is      189.9 secs

     total energy              =    -285.37445844 Ry
     estimated scf accuracy    <       0.00015425 Ry

     iteration # 15     ecut=    40.00 Ry     beta= 0.05
     Davidson diagonalization with overlap
     ethr =  7.00E-08,  avg # of iterations =  1.0

     total cpu time spent up to now is      191.3 secs

     total energy              =    -285.37445338 Ry
     estimated scf accuracy    <       0.00019426 Ry

     iteration # 16     ecut=    40.00 Ry     beta= 0.05
     Davidson diagonalization with overlap
     ethr =  7.00E-08,  avg # of iterations =  1.0

     total cpu time spent up to now is      192.8 secs

     total energy              =    -285.37452581 Ry
     estimated scf accuracy    <       0.00018076 Ry

     iteration # 17     ecut=    40.00 Ry     beta= 0.05
     Davidson diagonalization with overlap
     ethr =  7.00E-08,  avg # of iterations =  4.0

     total cpu time spent up to now is      194.6 secs

     total energy              =    -285.37434320 Ry
     estimated scf accuracy    <       0.00045472 Ry

     iteration # 18     ecut=    40.00 Ry     beta= 0.05
     Davidson diagonalization with overlap
     ethr =  7.00E-08,  avg # of iterations =  5.0

     total cpu time spent up to now is      196.6 secs

     total energy              =    -285.37440196 Ry
     estimated scf accuracy    <       0.00001774 Ry

     iteration # 19     ecut=    40.00 Ry     beta= 0.05
     Davidson diagonalization with overlap
     ethr =  1.85E-08,  avg # of iterations =  4.0

     total cpu time spent up to now is      198.5 secs

     total energy              =    -285.37440982 Ry
     estimated scf accuracy    <       0.00001006 Ry

     iteration # 20     ecut=    40.00 Ry     beta= 0.05
     Davidson diagonalization with overlap
     ethr =  1.05E-08,  avg # of iterations =  2.0

     total cpu time spent up to now is      200.1 secs

     total energy              =    -285.37440652 Ry
     estimated scf accuracy    <       0.00002282 Ry

     iteration # 21     ecut=    40.00 Ry     beta= 0.05
     Davidson diagonalization with overlap
     ethr =  1.05E-08,  avg # of iterations =  1.0

     total cpu time spent up to now is      201.5 secs

     total energy              =    -285.37440331 Ry
     estimated scf accuracy    <       0.00001807 Ry

     iteration # 22     ecut=    40.00 Ry     beta= 0.05
     Davidson diagonalization with overlap
     ethr =  1.05E-08,  avg # of iterations =  1.0

     total cpu time spent up to now is      203.0 secs

     total energy              =    -285.37440372 Ry
     estimated scf accuracy    <       0.00000846 Ry

     iteration # 23     ecut=    40.00 Ry     beta= 0.05
     Davidson diagonalization with overlap
     ethr =  8.82E-09,  avg # of iterations =  1.0

     total cpu time spent up to now is      204.4 secs

     total energy              =    -285.37440449 Ry
     estimated scf accuracy    <       0.00000784 Ry

     iteration # 24     ecut=    40.00 Ry     beta= 0.05
     Davidson diagonalization with overlap
     ethr =  8.17E-09,  avg # of iterations =  1.0

     total cpu time spent up to now is      205.9 secs

     total energy              =    -285.37440155 Ry
     estimated scf accuracy    <       0.00000897 Ry

     iteration # 25     ecut=    40.00 Ry     beta= 0.05
     Davidson diagonalization with overlap
     ethr =  8.17E-09,  avg # of iterations =  2.0

     total cpu time spent up to now is      207.4 secs

     total energy              =    -285.37440115 Ry
     estimated scf accuracy    <       0.00000253 Ry

     iteration # 26     ecut=    40.00 Ry     beta= 0.05
     Davidson diagonalization with overlap
     ethr =  2.64E-09,  avg # of iterations =  4.0

     total cpu time spent up to now is      209.4 secs

     total energy              =    -285.37440224 Ry
     estimated scf accuracy    <       0.00000072 Ry

     iteration # 27     ecut=    40.00 Ry     beta= 0.05
     Davidson diagonalization with overlap
     ethr =  7.46E-10,  avg # of iterations =  4.0

     total cpu time spent up to now is      211.0 secs

     total energy              =    -285.37440230 Ry
     estimated scf accuracy    <       0.00000043 Ry

     iteration # 28     ecut=    40.00 Ry     beta= 0.05
     Davidson diagonalization with overlap
     ethr =  4.51E-10,  avg # of iterations =  1.0

     total cpu time spent up to now is      212.6 secs

     total energy              =    -285.37440235 Ry
     estimated scf accuracy    <       0.00000031 Ry

     iteration # 29     ecut=    40.00 Ry     beta= 0.05
     Davidson diagonalization with overlap
     ethr =  3.27E-10,  avg # of iterations =  1.0

     total cpu time spent up to now is      214.0 secs

     total energy              =    -285.37440234 Ry
     estimated scf accuracy    <       0.00000032 Ry

     iteration # 30     ecut=    40.00 Ry     beta= 0.05
     Davidson diagonalization with overlap
     ethr =  3.27E-10,  avg # of iterations =  1.0

     total cpu time spent up to now is      215.5 secs

     End of self-consistent calculation

          k = 0.0000 0.0000 0.0000 (  3717 PWs)   bands (ev):

   -10.7601 -10.1105  -9.5771  -5.2681  -5.2681  -5.2681  -4.7931  -4.7931
    -4.7931  -4.5879  -4.5879  -4.5879  -4.0747  -4.0747  -4.0747  -3.9887
    -3.9887  -3.9886  -3.4684  -3.4684  -3.4683   0.3335   0.5568   2.6471
     2.6471   2.6471   2.7875   2.7875   2.7876   3.3698   3.3698   3.3698
     4.2438   5.7967   5.7967   5.7967   6.1247   6.1248   6.2159   6.2160
     6.4279   6.4279   6.4279   6.7983   6.7984   7.7422   7.7422   7.7423
     9.6608   9.6608   9.6609  11.4273  11.4273  11.4273  12.4186  12.4186
    12.4186  15.4498

     the Fermi energy is     8.6735 ev

!    total energy              =    -285.37440252 Ry
     estimated scf accuracy    <       0.00000020 Ry
     smearing contrib. (-TS)   =      -0.00000000 Ry
     internal energy E=F+TS    =    -285.37440252 Ry

     The total energy is F=E-TS. E is the sum of the following terms:
     one-electron contribution =      11.43032365 Ry
     hartree contribution      =      52.38212193 Ry
     xc contribution           =    -100.14295772 Ry
     ewald contribution        =    -249.04389038 Ry

     convergence has been achieved in  30 iterations

     Forces acting on atoms (cartesian axes, Ry/au):

     atom    1 type  1   force =     0.00000000   -0.00000000    0.02410303
     atom    2 type  1   force =     0.00000000   -0.00000000   -0.00000000
     atom    3 type  1   force =    -0.00000000   -0.00000000   -0.02410303
     atom    4 type  1   force =    -0.00000000    0.00000075    0.02315311
     atom    5 type  1   force =    -0.00000083   -0.00000048   -0.00000000
     atom    6 type  1   force =    -0.00000000    0.00000075   -0.02315311
     atom    7 type  1   force =     0.00000000   -0.00000042    0.02410266
     atom    8 type  1   force =     0.00000000   -0.00000033   -0.00000000
     atom    9 type  1   force =     0.00000000   -0.00000042   -0.02410266
     atom   10 type  1   force =     0.00000000    0.00000000    0.02315370
     atom   11 type  1   force =     0.00000083   -0.00000048    0.00000000
     atom   12 type  1   force =    -0.00000000   -0.00000000   -0.02315370
     atom   13 type  1   force =     0.00000036    0.00000021    0.02410266
     atom   14 type  1   force =     0.00000028    0.00000016    0.00000000
     atom   15 type  1   force =     0.00000036    0.00000021   -0.02410266
     atom   16 type  1   force =     0.00000065   -0.00000037    0.02315311
     atom   17 type  1   force =     0.00000000   -0.00000000   -0.00000000
     atom   18 type  1   force =     0.00000065   -0.00000037   -0.02315311
     atom   19 type  1   force =    -0.00000036    0.00000021    0.02410266
     atom   20 type  1   force =    -0.00000028    0.00000016    0.00000000
     atom   21 type  1   force =    -0.00000036    0.00000021   -0.02410266
     atom   22 type  1   force =    -0.00000065   -0.00000037    0.02315311
     atom   23 type  1   force =    -0.00000000    0.00000096    0.00000000
     atom   24 type  1   force =    -0.00000065   -0.00000037   -0.02315311

     Total force =     0.094531     Total SCF correction =     0.000266


     Computing stress (Cartesian axis) and pressure

          total   stress  (Ry/bohr**3)                   (kbar)     P=       43.46
   0.00053277   0.00000000   0.00000000           78.37        0.00        0.00
   0.00000000   0.00053277   0.00000000            0.00       78.37        0.00
   0.00000000   0.00000000  -0.00017924            0.00        0.00      -26.37

     Energy error            =      1.1E-01 Ry
     Gradient error          =      2.4E-02 Ry/Bohr
     Cell gradient error     =      7.8E+01 kbar

     number of scf cycles    =   4
     number of bfgs steps    =   3

     enthalpy           old  =    -285.2614224020 Ry
     enthalpy           new  =    -285.3744025201 Ry

     CASE: enthalpy          _new < enthalpy          _old

     new trust radius        =       0.0623063346 bohr
     new conv_thr            =       0.0000002410 Ry

     new unit-cell volume =   1185.26140 a.u.^3 (   175.63762 Ang^3 )
     density =      2.72535 g/cm^3

CELL_PARAMETERS (alat=  8.00000437)
   1.169168132   0.000000000   0.000000000
  -0.584584066   1.012529303  -0.000000000
  -0.000000000  -0.000000000   1.955504846

ATOMIC_POSITIONS (crystal)
C               -0.0000000000       -0.0000000000        0.1725771890    0   0   1
C                0.0000000000       -0.0000000000        0.5000000000    0   0   1
C                0.0000000000        0.0000000000        0.8274218110    0   0   1
C                0.1666660000        0.3333330000        0.1735826638    0   0   1
C                0.3333330000        0.1666660000        0.5000000000    0   0   1
C                0.1666660000        0.3333330000        0.8264163362    0   0   1
C                0.5000000000       -0.0000000000        0.1725772098    0   0   1
C                0.5000000000        0.0000000000        0.5000000000    0   0   1
C                0.5000000000        0.0000000000        0.8274217902    0   0   1
C                0.6666660000        0.3333330000        0.1735826494    0   0   1
C                0.8333330000        0.1666660000        0.5000000000    0   0   1
C                0.6666660000        0.3333330000        0.8264163506    0   0   1
C                0.0000000000        0.5000000000        0.1725772098    0   0   1
C                0.0000000000        0.5000000000        0.5000000000    0   0   1
C                0.0000000000        0.5000000000        0.8274217902    0   0   1
C                0.1666660000        0.8333330000        0.1735826638    0   0   1
C                0.3333330000        0.6666660000        0.5000000000    0   0   1
C                0.1666660000        0.8333330000        0.8264163362    0   0   1
C                0.5000000000        0.5000000000        0.1725772098    0   0   1
C                0.5000000000        0.5000000000        0.5000000000    0   0   1
C                0.5000000000        0.5000000000        0.8274217902    0   0   1
C                0.6666660000        0.8333330000        0.1735826638    0   0   1
C                0.8333330000        0.6666660000        0.5000000000    0   0   1
C                0.6666660000        0.8333330000        0.8264163362    0   0   1



     Writing config-only to output data dir ../results/graphene/graphene.save/ :
     XML data file
     NEW-OLD atomic charge density approx. for the potential

     Check: negative core charge=   -0.000003

     total cpu time spent up to now is      219.1 secs

     Self-consistent Calculation

     iteration #  1     ecut=    40.00 Ry     beta= 0.05
     Davidson diagonalization with overlap
     ethr =  1.00E-06,  avg # of iterations =  8.0

     total cpu time spent up to now is      222.7 secs

     total energy              =    -285.39366767 Ry
     estimated scf accuracy    <       0.00597501 Ry

     iteration #  2     ecut=    40.00 Ry     beta= 0.05
     Davidson diagonalization with overlap
     ethr =  6.22E-06,  avg # of iterations =  1.0

     total cpu time spent up to now is      224.2 secs

     total energy              =    -285.39073538 Ry
     estimated scf accuracy    <       0.00563261 Ry

     iteration #  3     ecut=    40.00 Ry     beta= 0.05
     Davidson diagonalization with overlap
     ethr =  5.87E-06,  avg # of iterations =  2.0

     total cpu time spent up to now is      225.8 secs

     total energy              =    -285.39171604 Ry
     estimated scf accuracy    <       0.00037995 Ry

     iteration #  4     ecut=    40.00 Ry     beta= 0.05
     Davidson diagonalization with overlap
     ethr =  3.96E-07,  avg # of iterations =  2.0

     total cpu time spent up to now is      227.6 secs

     total energy              =    -285.39180642 Ry
     estimated scf accuracy    <       0.00015605 Ry

     iteration #  5     ecut=    40.00 Ry     beta= 0.05
     Davidson diagonalization with overlap
     ethr =  1.63E-07,  avg # of iterations =  1.0

     total cpu time spent up to now is      229.0 secs

     total energy              =    -285.39175219 Ry
     estimated scf accuracy    <       0.00018872 Ry

     iteration #  6     ecut=    40.00 Ry     beta= 0.05
     Davidson diagonalization with overlap
     ethr =  1.63E-07,  avg # of iterations =  2.0

     total cpu time spent up to now is      230.6 secs

     total energy              =    -285.39177868 Ry
     estimated scf accuracy    <       0.00004753 Ry

     iteration #  7     ecut=    40.00 Ry     beta= 0.05
     Davidson diagonalization with overlap
     ethr =  4.95E-08,  avg # of iterations =  2.0

     total cpu time spent up to now is      232.3 secs

     total energy              =    -285.39178117 Ry
     estimated scf accuracy    <       0.00005395 Ry

     iteration #  8     ecut=    40.00 Ry     beta= 0.05
     Davidson diagonalization with overlap
     ethr =  4.95E-08,  avg # of iterations =  1.0

     total cpu time spent up to now is      233.7 secs

     total energy              =    -285.39176497 Ry
     estimated scf accuracy    <       0.00004945 Ry

     iteration #  9     ecut=    40.00 Ry     beta= 0.05
     Davidson diagonalization with overlap
     ethr =  4.95E-08,  avg # of iterations =  2.0

     total cpu time spent up to now is      235.3 secs

     total energy              =    -285.39176746 Ry
     estimated scf accuracy    <       0.00001597 Ry

     iteration # 10     ecut=    40.00 Ry     beta= 0.05
     Davidson diagonalization with overlap
     ethr =  1.66E-08,  avg # of iterations =  2.0

     total cpu time spent up to now is      236.9 secs

     total energy              =    -285.39176840 Ry
     estimated scf accuracy    <       0.00000702 Ry

     iteration # 11     ecut=    40.00 Ry     beta= 0.05
     Davidson diagonalization with overlap
     ethr =  7.31E-09,  avg # of iterations =  1.0

     total cpu time spent up to now is      238.4 secs

     total energy              =    -285.39176570 Ry
     estimated scf accuracy    <       0.00000441 Ry

     iteration # 12     ecut=    40.00 Ry     beta= 0.05
     Davidson diagonalization with overlap
     ethr =  4.60E-09,  avg # of iterations =  4.0

     total cpu time spent up to now is      240.1 secs

     total energy              =    -285.39176698 Ry
     estimated scf accuracy    <       0.00000209 Ry

     iteration # 13     ecut=    40.00 Ry     beta= 0.05
     Davidson diagonalization with overlap
     ethr =  2.18E-09,  avg # of iterations =  4.0

     total cpu time spent up to now is      241.7 secs

     total energy              =    -285.39176785 Ry
     estimated scf accuracy    <       0.00000176 Ry

     iteration # 14     ecut=    40.00 Ry     beta= 0.05
     Davidson diagonalization with overlap
     ethr =  1.83E-09,  avg # of iterations =  4.0

     total cpu time spent up to now is      243.4 secs

     End of self-consistent calculation

          k = 0.0000 0.0000 0.0000 (  3717 PWs)   bands (ev):

   -10.6765 -10.0111  -9.4476  -5.2602  -5.2602  -5.2602  -4.7801  -4.7800
    -4.7800  -4.5708  -4.5708  -4.5707  -3.9954  -3.9954  -3.9954  -3.9139
    -3.9139  -3.9139  -3.3860  -3.3860  -3.3860   0.4497   0.5617   2.6519
     2.6519   2.6519   2.7963   2.7964   2.7964   3.3794   3.3795   3.3795
     4.4651   5.8093   5.8094   5.8094   6.0736   6.0738   6.1644   6.1645
     6.3418   6.3418   6.3418   6.7430   6.7431   7.7262   7.7262   7.7262
     9.6294   9.6294   9.6294  11.4429  11.4429  11.4429  12.3968  12.3968
    12.3968  15.6442

     the Fermi energy is     8.8368 ev

!    total energy              =    -285.39176882 Ry
     estimated scf accuracy    <       0.00000023 Ry
     smearing contrib. (-TS)   =      -0.00000000 Ry
     internal energy E=F+TS    =    -285.39176882 Ry

     The total energy is F=E-TS. E is the sum of the following terms:
     one-electron contribution =      14.01309887 Ry
     hartree contribution      =      50.95329875 Ry
     xc contribution           =     -99.81202271 Ry
     ewald contribution        =    -250.54614374 Ry

     convergence has been achieved in  14 iterations

     Forces acting on atoms (cartesian axes, Ry/au):

     atom    1 type  1   force =    -0.00000000    0.00000000    0.02316162
     atom    2 type  1   force =     0.00000000   -0.00000000   -0.00000000
     atom    3 type  1   force =     0.00000000   -0.00000000   -0.02316162
     atom    4 type  1   force =    -0.00000000    0.00000012    0.02252021
     atom    5 type  1   force =    -0.00000006   -0.00000004    0.00000000
     atom    6 type  1   force =     0.00000000    0.00000012   -0.02252021
     atom    7 type  1   force =    -0.00000000    0.00000005    0.02316145
     atom    8 type  1   force =     0.00000000   -0.00000067   -0.00000000
     atom    9 type  1   force =     0.00000000    0.00000005   -0.02316145
     atom   10 type  1   force =     0.00000000    0.00000000    0.02252027
     atom   11 type  1   force =     0.00000006   -0.00000004    0.00000000
     atom   12 type  1   force =     0.00000000   -0.00000000   -0.02252027
     atom   13 type  1   force =    -0.00000005   -0.00000003    0.02316145
     atom   14 type  1   force =     0.00000058    0.00000034    0.00000000
     atom   15 type  1   force =    -0.00000005   -0.00000003   -0.02316145
     atom   16 type  1   force =     0.00000010   -0.00000006    0.02252021
     atom   17 type  1   force =     0.00000000   -0.00000000   -0.00000000
     atom   18 type  1   force =     0.00000010   -0.00000006   -0.02252021
     atom   19 type  1   force =     0.00000005   -0.00000003    0.02316145
     atom   20 type  1   force =    -0.00000058    0.00000034    0.00000000
     atom   21 type  1   force =     0.00000005   -0.00000003   -0.02316145
     atom   22 type  1   force =    -0.00000010   -0.00000006    0.02252021
     atom   23 type  1   force =    -0.00000000    0.00000007    0.00000000
     atom   24 type  1   force =    -0.00000010   -0.00000006   -0.02252021

     Total force =     0.091372     Total SCF correction =     0.000499


     Computing stress (Cartesian axis) and pressure

          total   stress  (Ry/bohr**3)                   (kbar)     P=      -30.50
  -0.00022943  -0.00000000  -0.00000000          -33.75       -0.00       -0.00
   0.00000000  -0.00022943   0.00000000            0.00      -33.75        0.00
  -0.00000000  -0.00000000  -0.00016307           -0.00       -0.00      -23.99

     Energy error            =      1.7E-02 Ry
     Gradient error          =      2.3E-02 Ry/Bohr
     Cell gradient error     =      3.4E+01 kbar

     number of scf cycles    =   5
     number of bfgs steps    =   4

     enthalpy           old  =    -285.3744025201 Ry
     enthalpy           new  =    -285.3917688202 Ry

     CASE: enthalpy          _new < enthalpy          _old

     new trust radius        =       0.1247704899 bohr
     new conv_thr            =       0.0000002316 Ry

     new unit-cell volume =   1176.25982 a.u.^3 (   174.30372 Ang^3 )
     density =      2.74620 g/cm^3

CELL_PARAMETERS (alat=  8.00000437)
   1.175418377   0.000000000   0.000000000
  -0.587709189   1.017942175  -0.000000000
  -0.000000000  -0.000000000   1.920069742

ATOMIC_POSITIONS (crystal)
C               -0.0000000000       -0.0000000000        0.1770739428    0   0   1
C                0.0000000000       -0.0000000000        0.5000000000    0   0   1
C                0.0000000000        0.0000000000        0.8229250572    0   0   1
C                0.1666660000        0.3333330000        0.1780076130    0   0   1
C                0.3333330000        0.1666660000        0.5000000000    0   0   1
C                0.1666660000        0.3333330000        0.8219913870    0   0   1
C                0.5000000000       -0.0000000000        0.1770739263    0   0   1
C                0.5000000000       -0.0000000000        0.5000000000    0   0   1
C                0.5000000000        0.0000000000        0.8229250737    0   0   1
C                0.6666660000        0.3333330000        0.1780076346    0   0   1
C                0.8333330000        0.1666660000        0.5000000000    0   0   1
C                0.6666660000        0.3333330000        0.8219913654    0   0   1
C               -0.0000000000        0.5000000000        0.1770739263    0   0   1
C               -0.0000000000        0.5000000000        0.5000000000    0   0   1
C               -0.0000000000        0.5000000000        0.8229250737    0   0   1
C                0.1666660000        0.8333330000        0.1780076130    0   0   1
C                0.3333330000        0.6666660000        0.5000000000    0   0   1
C                0.1666660000        0.8333330000        0.8219913870    0   0   1
C                0.5000000000        0.5000000000        0.1770739263    0   0   1
C                0.5000000000        0.5000000000        0.5000000000    0   0   1
C                0.5000000000        0.5000000000        0.8229250737    0   0   1
C                0.6666660000        0.8333330000        0.1780076130    0   0   1
C                0.8333330000        0.6666660000        0.5000000000    0   0   1
C                0.6666660000        0.8333330000        0.8219913870    0   0   1



     Writing config-only to output data dir ../results/graphene/graphene.save/ :
     XML data file
     NEW-OLD atomic charge density approx. for the potential

     Check: negative core charge=   -0.000003

     total cpu time spent up to now is      247.1 secs

     Self-consistent Calculation

     iteration #  1     ecut=    40.00 Ry     beta= 0.05
     Davidson diagonalization with overlap
     ethr =  1.00E-06,  avg # of iterations =  9.0

     total cpu time spent up to now is      251.1 secs

     total energy              =    -285.41683009 Ry
     estimated scf accuracy    <       0.01712105 Ry

     iteration #  2     ecut=    40.00 Ry     beta= 0.05
     Davidson diagonalization with overlap
     ethr =  1.78E-05,  avg # of iterations =  1.0

     total cpu time spent up to now is      252.5 secs

     total energy              =    -285.40899819 Ry
     estimated scf accuracy    <       0.01597731 Ry

     iteration #  3     ecut=    40.00 Ry     beta= 0.05
     Davidson diagonalization with overlap
     ethr =  1.66E-05,  avg # of iterations =  2.0

     total cpu time spent up to now is      254.2 secs

     total energy              =    -285.41161979 Ry
     estimated scf accuracy    <       0.00072758 Ry

     iteration #  4     ecut=    40.00 Ry     beta= 0.05
     Davidson diagonalization with overlap
     ethr =  7.58E-07,  avg # of iterations =  2.0

     total cpu time spent up to now is      256.0 secs

     total energy              =    -285.41184846 Ry
     estimated scf accuracy    <       0.00045127 Ry

     iteration #  5     ecut=    40.00 Ry     beta= 0.05
     Davidson diagonalization with overlap
     ethr =  4.70E-07,  avg # of iterations =  1.0

     total cpu time spent up to now is      257.5 secs

     total energy              =    -285.41185921 Ry
     estimated scf accuracy    <       0.00047028 Ry

     iteration #  6     ecut=    40.00 Ry     beta= 0.05
     Davidson diagonalization with overlap
     ethr =  4.70E-07,  avg # of iterations =  1.0

     total cpu time spent up to now is      258.9 secs

     total energy              =    -285.41175520 Ry
     estimated scf accuracy    <       0.00048338 Ry

     iteration #  7     ecut=    40.00 Ry     beta= 0.05
     Davidson diagonalization with overlap
     ethr =  4.70E-07,  avg # of iterations =  1.0

     total cpu time spent up to now is      260.4 secs

     total energy              =    -285.41176825 Ry
     estimated scf accuracy    <       0.00023166 Ry

     iteration #  8     ecut=    40.00 Ry     beta= 0.05
     Davidson diagonalization with overlap
     ethr =  2.41E-07,  avg # of iterations =  1.0

     total cpu time spent up to now is      261.9 secs

     total energy              =    -285.41177705 Ry
     estimated scf accuracy    <       0.00018148 Ry

     iteration #  9     ecut=    40.00 Ry     beta= 0.05
[...]
         1        C      tau(   1) = (  -0.0000000   0.0000000   0.3950019  )
         2        C      tau(   2) = (  -0.0000000   0.0000000   0.9701958  )
         3        C      tau(   3) = (  -0.0000000   0.0000000   1.5453878  )
         4        C      tau(   4) = (  -0.0000006   0.3366972   0.3945478  )
         5        C      tau(   5) = (   0.2915886   0.1683481   0.9701958  )
         6        C      tau(   6) = (  -0.0000006   0.3366972   1.5458419  )
         7        C      tau(   7) = (   0.5831772   0.0000000   0.3950021  )
         8        C      tau(   8) = (   0.5831772   0.0000000   0.9701958  )
         9        C      tau(   9) = (   0.5831772   0.0000000   1.5453876  )
        10        C      tau(  10) = (   0.5831767   0.3366972   0.3945480  )
        11        C      tau(  11) = (   0.8747659   0.1683481   0.9701958  )
        12        C      tau(  12) = (   0.5831767   0.3366972   1.5458417  )
        13        C      tau(  13) = (  -0.2915886   0.5050463   0.3950021  )
        14        C      tau(  14) = (  -0.2915886   0.5050463   0.9701958  )
        15        C      tau(  15) = (  -0.2915886   0.5050463   1.5453876  )
        16        C      tau(  16) = (  -0.2915892   0.8417435   0.3945478  )
        17        C      tau(  17) = (   0.0000000   0.6733944   0.9701958  )
        18        C      tau(  18) = (  -0.2915892   0.8417435   1.5458419  )
        19        C      tau(  19) = (   0.2915886   0.5050463   0.3950021  )
        20        C      tau(  20) = (   0.2915886   0.5050463   0.9701958  )
        21        C      tau(  21) = (   0.2915886   0.5050463   1.5453876  )
        22        C      tau(  22) = (   0.2915880   0.8417435   0.3945478  )
        23        C      tau(  23) = (   0.5831772   0.6733944   0.9701958  )
        24        C      tau(  24) = (   0.2915880   0.8417435   1.5458419  )

     number of k points=     1  Gaussian smearing, width (Ry)=  0.0100
                       cart. coord. in units 2pi/alat
        k(    1) = (   0.0000000   0.0000000   0.0000000), wk =   2.0000000

     Dense  grid:   158253 G-vectors     FFT dimensions: (  60,  60, 100)

     Smooth grid:    40077 G-vectors     FFT dimensions: (  40,  40,  64)

     Estimated max dynamical RAM per process >     192.78 MB

     Estimated total dynamical RAM >     385.55 MB

     Check: negative core charge=   -0.000002

     Initial potential from superposition of free atoms

     starting charge      95.9992, renormalised to      96.0000
     Starting wfcs are   96 randomized atomic wfcs

     total cpu time spent up to now is      617.5 secs

     Self-consistent Calculation

     iteration #  1     ecut=    40.00 Ry     beta= 0.05
     Davidson diagonalization with overlap
     c_bands:  1 eigenvalues not converged
     ethr =  1.00E-06,  avg # of iterations = 20.0

     total cpu time spent up to now is      627.6 secs

     total energy              =    -286.64303279 Ry
     estimated scf accuracy    <       2.56453798 Ry

     iteration #  2     ecut=    40.00 Ry     beta= 0.05
     Davidson diagonalization with overlap
     ethr =  2.67E-03,  avg # of iterations =  1.0

     total cpu time spent up to now is      629.9 secs

     total energy              =    -285.18512144 Ry
     estimated scf accuracy    <       2.38651497 Ry

     iteration #  3     ecut=    40.00 Ry     beta= 0.05
     Davidson diagonalization with overlap
     ethr =  2.49E-03,  avg # of iterations =  2.0

     total cpu time spent up to now is      636.0 secs

     total energy              =    -285.52041521 Ry
     estimated scf accuracy    <       0.11776108 Ry

     iteration #  4     ecut=    40.00 Ry     beta= 0.05
     Davidson diagonalization with overlap
     ethr =  1.23E-04,  avg # of iterations =  4.0

     total cpu time spent up to now is      642.0 secs

     total energy              =    -285.57809924 Ry
     estimated scf accuracy    <       0.09383497 Ry

     iteration #  5     ecut=    40.00 Ry     beta= 0.05
     Davidson diagonalization with overlap
     ethr =  9.77E-05,  avg # of iterations =  1.0

     total cpu time spent up to now is      644.5 secs

     total energy              =    -285.53823985 Ry
     estimated scf accuracy    <       0.10132472 Ry

     iteration #  6     ecut=    40.00 Ry     beta= 0.05
     Davidson diagonalization with overlap
     ethr =  9.77E-05,  avg # of iterations =  2.0

     total cpu time spent up to now is      647.5 secs

     total energy              =    -285.54625216 Ry
     estimated scf accuracy    <       0.02613219 Ry

     iteration #  7     ecut=    40.00 Ry     beta= 0.05
     Davidson diagonalization with overlap
     ethr =  2.72E-05,  avg # of iterations =  1.0

     total cpu time spent up to now is      650.1 secs

     total energy              =    -285.54109572 Ry
     estimated scf accuracy    <       0.02313766 Ry

     iteration #  8     ecut=    40.00 Ry     beta= 0.05
     Davidson diagonalization with overlap
     ethr =  2.41E-05,  avg # of iterations =  2.0

     total cpu time spent up to now is      653.6 secs

     total energy              =    -285.54480715 Ry
     estimated scf accuracy    <       0.00227984 Ry

     iteration #  9     ecut=    40.00 Ry     beta= 0.05
     Davidson diagonalization with overlap
     ethr =  2.37E-06,  avg # of iterations =  7.0

     total cpu time spent up to now is      657.1 secs

     total energy              =    -285.54524507 Ry
     estimated scf accuracy    <       0.00187646 Ry

     iteration # 10     ecut=    40.00 Ry     beta= 0.05
     Davidson diagonalization with overlap
     ethr =  1.95E-06,  avg # of iterations =  2.0

     total cpu time spent up to now is      660.5 secs

     total energy              =    -285.54451731 Ry
     estimated scf accuracy    <       0.00184049 Ry

     iteration # 11     ecut=    40.00 Ry     beta= 0.05
     Davidson diagonalization with overlap
     ethr =  1.92E-06,  avg # of iterations =  2.0

     total cpu time spent up to now is      663.8 secs

     total energy              =    -285.54479930 Ry
     estimated scf accuracy    <       0.00013594 Ry

     iteration # 12     ecut=    40.00 Ry     beta= 0.05
     Davidson diagonalization with overlap
     ethr =  1.42E-07,  avg # of iterations =  5.0

     total cpu time spent up to now is      667.5 secs

     total energy              =    -285.54487090 Ry
     estimated scf accuracy    <       0.00017098 Ry

     iteration # 13     ecut=    40.00 Ry     beta= 0.05
     Davidson diagonalization with overlap
     ethr =  1.42E-07,  avg # of iterations =  2.0

     total cpu time spent up to now is      670.5 secs

     total energy              =    -285.54481905 Ry
     estimated scf accuracy    <       0.00019696 Ry

     iteration # 14     ecut=    40.00 Ry     beta= 0.05
     Davidson diagonalization with overlap
     ethr =  1.42E-07,  avg # of iterations =  1.0

     total cpu time spent up to now is      673.6 secs

     total energy              =    -285.54481013 Ry
     estimated scf accuracy    <       0.00005574 Ry

     iteration # 15     ecut=    40.00 Ry     beta= 0.05
     Davidson diagonalization with overlap
     ethr =  5.81E-08,  avg # of iterations =  4.0

     total cpu time spent up to now is      677.5 secs

     total energy              =    -285.54482479 Ry
     estimated scf accuracy    <       0.00001171 Ry

     iteration # 16     ecut=    40.00 Ry     beta= 0.05
     Davidson diagonalization with overlap
     ethr =  1.22E-08,  avg # of iterations =  2.0

     total cpu time spent up to now is      681.4 secs

     total energy              =    -285.54482862 Ry
     estimated scf accuracy    <       0.00000807 Ry

     iteration # 17     ecut=    40.00 Ry     beta= 0.05
     Davidson diagonalization with overlap
     ethr =  8.41E-09,  avg # of iterations =  4.0

     total cpu time spent up to now is      687.1 secs

     total energy              =    -285.54482775 Ry
     estimated scf accuracy    <       0.00001708 Ry

     iteration # 18     ecut=    40.00 Ry     beta= 0.05
     Davidson diagonalization with overlap
     ethr =  8.41E-09,  avg # of iterations =  4.0

     total cpu time spent up to now is      690.2 secs

     total energy              =    -285.54482836 Ry
     estimated scf accuracy    <       0.00000754 Ry

     iteration # 19     ecut=    40.00 Ry     beta= 0.05
     Davidson diagonalization with overlap
     ethr =  7.85E-09,  avg # of iterations =  1.0

     total cpu time spent up to now is      692.4 secs

     total energy              =    -285.54482857 Ry
     estimated scf accuracy    <       0.00000411 Ry

     iteration # 20     ecut=    40.00 Ry     beta= 0.05
     Davidson diagonalization with overlap
     ethr =  4.28E-09,  avg # of iterations =  2.0

     total cpu time spent up to now is      694.9 secs

     total energy              =    -285.54482748 Ry
     estimated scf accuracy    <       0.00000310 Ry

     iteration # 21     ecut=    40.00 Ry     beta= 0.05
     Davidson diagonalization with overlap
     ethr =  3.23E-09,  avg # of iterations =  4.0

     total cpu time spent up to now is      697.5 secs

     total energy              =    -285.54482874 Ry
     estimated scf accuracy    <       0.00000130 Ry

     iteration # 22     ecut=    40.00 Ry     beta= 0.05
     Davidson diagonalization with overlap
     ethr =  1.36E-09,  avg # of iterations =  2.0

     total cpu time spent up to now is      702.6 secs

     total energy              =    -285.54482882 Ry
     estimated scf accuracy    <       0.00000075 Ry

     iteration # 23     ecut=    40.00 Ry     beta= 0.05
     Davidson diagonalization with overlap
     ethr =  7.81E-10,  avg # of iterations =  1.0

     total cpu time spent up to now is      704.9 secs

     total energy              =    -285.54482887 Ry
     estimated scf accuracy    <       0.00000056 Ry

     iteration # 24     ecut=    40.00 Ry     beta= 0.05
     Davidson diagonalization with overlap
     ethr =  5.84E-10,  avg # of iterations =  1.0

     total cpu time spent up to now is      707.1 secs

     total energy              =    -285.54482915 Ry
     estimated scf accuracy    <       0.00000052 Ry

     iteration # 25     ecut=    40.00 Ry     beta= 0.05
     Davidson diagonalization with overlap
     ethr =  5.40E-10,  avg # of iterations =  2.0

     total cpu time spent up to now is      709.9 secs

     total energy              =    -285.54482879 Ry
     estimated scf accuracy    <       0.00000093 Ry

     iteration # 26     ecut=    40.00 Ry     beta= 0.05
     Davidson diagonalization with overlap
     ethr =  5.40E-10,  avg # of iterations =  4.0

     total cpu time spent up to now is      713.6 secs

     total energy              =    -285.54482898 Ry
     estimated scf accuracy    <       0.00000019 Ry

     iteration # 27     ecut=    40.00 Ry     beta= 0.05
     Davidson diagonalization with overlap
     ethr =  1.95E-10,  avg # of iterations =  4.0

     total cpu time spent up to now is      716.1 secs

     total energy              =    -285.54482903 Ry
     estimated scf accuracy    <       0.00000022 Ry

     iteration # 28     ecut=    40.00 Ry     beta= 0.05
     Davidson diagonalization with overlap
     ethr =  1.95E-10,  avg # of iterations =  4.0

     total cpu time spent up to now is      718.8 secs

     total energy              =    -285.54482915 Ry
     estimated scf accuracy    <       0.00000015 Ry

     iteration # 29     ecut=    40.00 Ry     beta= 0.05
     Davidson diagonalization with overlap
     ethr =  1.56E-10,  avg # of iterations =  4.0

     total cpu time spent up to now is      721.7 secs

     total energy              =    -285.54482924 Ry
     estimated scf accuracy    <       0.00000048 Ry

     iteration # 30     ecut=    40.00 Ry     beta= 0.05
     Davidson diagonalization with overlap
     ethr =  1.56E-10,  avg # of iterations =  1.0

     total cpu time spent up to now is      724.4 secs

     total energy              =    -285.54482913 Ry
     estimated scf accuracy    <       0.00000033 Ry

     iteration # 31     ecut=    40.00 Ry     beta= 0.05
     Davidson diagonalization with overlap
     ethr =  1.56E-10,  avg # of iterations =  4.0

     total cpu time spent up to now is      727.3 secs

     total energy              =    -285.54482924 Ry
     estimated scf accuracy    <       0.00000002 Ry

     iteration # 32     ecut=    40.00 Ry     beta= 0.05
     Davidson diagonalization with overlap
     ethr =  2.12E-11,  avg # of iterations =  4.0

     total cpu time spent up to now is      730.2 secs

     total energy              =    -285.54482927 Ry
     estimated scf accuracy    <       0.00000002 Ry

     iteration # 33     ecut=    40.00 Ry     beta= 0.05
     Davidson diagonalization with overlap
     ethr =  1.79E-11,  avg # of iterations =  2.0

     total cpu time spent up to now is      732.8 secs

     total energy              =    -285.54482930 Ry
     estimated scf accuracy    <       0.00000001 Ry

     iteration # 34     ecut=    40.00 Ry     beta= 0.05
     Davidson diagonalization with overlap
     ethr =  1.51E-11,  avg # of iterations =  4.0

     total cpu time spent up to now is      736.0 secs

     total energy              =    -285.54482933 Ry
     estimated scf accuracy    <       0.00000002 Ry

     iteration # 35     ecut=    40.00 Ry     beta= 0.05
     Davidson diagonalization with overlap
     ethr =  1.51E-11,  avg # of iterations =  1.0

     total cpu time spent up to now is      738.0 secs

     total energy              =    -285.54482935 Ry
     estimated scf accuracy    <       0.00000001 Ry

     iteration # 36     ecut=    40.00 Ry     beta= 0.05
     Davidson diagonalization with overlap
     ethr =  1.21E-11,  avg # of iterations =  2.0

     total cpu time spent up to now is      740.0 secs

     End of self-consistent calculation

          k = 0.0000 0.0000 0.0000 (  5035 PWs)   bands (ev):

   -10.8399 -10.0298  -9.1600  -5.2644  -5.2643  -5.2643  -4.7251  -4.7251
    -4.7251  -4.7151  -4.7151  -4.7151  -3.8496  -3.8496  -3.8495  -3.6569
    -3.6569  -3.6569  -3.3225  -3.3225  -3.3225  -0.1662   1.3015   2.7653
     2.7654   2.7654   2.9761   2.9762   2.9762   3.3419   3.3419   3.3420
     5.1989   5.6661   5.6661   5.6662   6.3003   6.3003   6.3700   6.3701
     6.6004   6.6005   6.6018   6.6019   6.6019   7.5076   7.5076   7.5076
    10.3937  10.3937  10.3938  11.8832  11.8832  11.8832  12.5649  12.5649
    12.5649  15.6848

     the Fermi energy is     9.7339 ev

!    total energy              =    -285.54482957 Ry
     estimated scf accuracy    <          8.7E-09 Ry
     smearing contrib. (-TS)   =      -0.00000000 Ry
     internal energy E=F+TS    =    -285.54482957 Ry

     The total energy is F=E-TS. E is the sum of the following terms:
     one-electron contribution =     -24.45212706 Ry
     hartree contribution      =      70.62098182 Ry
     xc contribution           =    -100.14140515 Ry
     ewald contribution        =    -231.57227918 Ry

     convergence has been achieved in  36 iterations

     Forces acting on atoms (cartesian axes, Ry/au):

     atom    1 type  1   force =    -0.00000000    0.00000000    0.00014847
     atom    2 type  1   force =    -0.00000000    0.00000000   -0.00000000
     atom    3 type  1   force =     0.00000000    0.00000000   -0.00014847
     atom    4 type  1   force =    -0.00000000    0.00000030    0.00013347
     atom    5 type  1   force =     0.00000114    0.00000066   -0.00000000
     atom    6 type  1   force =     0.00000000    0.00000030   -0.00013347
     atom    7 type  1   force =     0.00000000   -0.00000013    0.00014790
     atom    8 type  1   force =    -0.00000000    0.00000099   -0.00000000
     atom    9 type  1   force =     0.00000000   -0.00000013   -0.00014790
     atom   10 type  1   force =    -0.00000000   -0.00000000    0.00013297
     atom   11 type  1   force =    -0.00000114    0.00000066   -0.00000000
     atom   12 type  1   force =     0.00000000   -0.00000000   -0.00013297
     atom   13 type  1   force =     0.00000011    0.00000006    0.00014790
     atom   14 type  1   force =    -0.00000085   -0.00000049    0.00000000
     atom   15 type  1   force =     0.00000011    0.00000006   -0.00014790
     atom   16 type  1   force =     0.00000026   -0.00000015    0.00013347
     atom   17 type  1   force =    -0.00000000    0.00000000   -0.00000000
     atom   18 type  1   force =     0.00000026   -0.00000015   -0.00013347
     atom   19 type  1   force =    -0.00000011    0.00000006    0.00014790
     atom   20 type  1   force =     0.00000085   -0.00000049    0.00000000
     atom   21 type  1   force =    -0.00000011    0.00000006   -0.00014790
     atom   22 type  1   force =    -0.00000026   -0.00000015    0.00013347
     atom   23 type  1   force =     0.00000000   -0.00000132   -0.00000000
     atom   24 type  1   force =    -0.00000026   -0.00000015   -0.00013347

     Total force =     0.000564     Total SCF correction =     0.000032


     Computing stress (Cartesian axis) and pressure

          total   stress  (Ry/bohr**3)                   (kbar)     P=       64.73
   0.00060809   0.00000000   0.00000000           89.45        0.00        0.00
   0.00000000   0.00060809  -0.00000000            0.00       89.45       -0.00
   0.00000000  -0.00000000   0.00010393            0.00       -0.00       15.29


     Writing all to output data dir ../results/graphene/graphene.save/ :
     XML data file, charge density, pseudopotentials, collected wavefunctions

     init_run     :      3.43s CPU      2.96s WALL (       2 calls)
     electrons    :    821.46s CPU    685.55s WALL (      15 calls)
     update_pot   :      1.64s CPU      1.09s WALL (      13 calls)
     forces       :     19.12s CPU     16.00s WALL (      15 calls)
     stress       :     50.29s CPU     34.41s WALL (      15 calls)

     Called by init_run:
     wfcinit      :      1.97s CPU      1.60s WALL (       2 calls)
     potinit      :      0.20s CPU      0.14s WALL (       2 calls)
     hinit0       :      0.54s CPU      0.51s WALL (       2 calls)

     Called by electrons:
     c_bands      :    493.00s CPU    394.31s WALL (     343 calls)
     sum_band     :    198.73s CPU    179.33s WALL (     343 calls)
     v_of_rho     :     14.15s CPU      8.11s WALL (     357 calls)
     newd         :     98.24s CPU     93.86s WALL (     357 calls)
     mix_rho      :     13.67s CPU      9.08s WALL (     343 calls)

     Called by c_bands:
     init_us_2    :      4.41s CPU      3.12s WALL (     688 calls)
     cegterg      :    482.89s CPU    388.51s WALL (     343 calls)

     Called by *egterg:
     cdiaghg      :      8.58s CPU      8.74s WALL (    1236 calls)
     h_psi        :    318.17s CPU    226.27s WALL (    1252 calls)
     s_psi        :     50.75s CPU     48.95s WALL (    1252 calls)
     g_psi        :      1.55s CPU      0.99s WALL (     907 calls)

     Called by h_psi:
     h_psi:calbec :     48.22s CPU     46.14s WALL (    1252 calls)
     vloc_psi     :    223.30s CPU    133.19s WALL (    1252 calls)
     add_vuspsi   :     45.45s CPU     46.24s WALL (    1252 calls)

     General routines
     calbec       :     79.87s CPU     77.81s WALL (    1670 calls)
     fft          :     30.21s CPU     18.48s WALL (    2246 calls)
     ffts         :      3.09s CPU      2.40s WALL (     700 calls)
     fftw         :    187.64s CPU    114.32s WALL (  125040 calls)
     interpolate  :      6.68s CPU      4.27s WALL (     357 calls)

     Parallel routines

     PWSCF        :  15m 0.41s CPU  12m24.46s WALL


   This run was terminated on:  22:31:20   6Aug2024            

=------------------------------------------------------------------------------=
   JOB DONE.
=------------------------------------------------------------------------------=
