
     Program PWSCF v.7.2 starts on  2Sep2024 at 15:52:46 

     This program is part of the open-source Quantum ESPRESSO suite
     for quantum simulation of materials; please cite
         "P. Giannozzi et al., J. Phys.:Condens. Matter 21 395502 (2009);
         "P. Giannozzi et al., J. Phys.:Condens. Matter 29 465901 (2017);
         "P. Giannozzi et al., J. Chem. Phys. 152 154105 (2020);
          URL http://www.quantum-espresso.org", 
     in publications or presentations arising from this work. More details at
     http://www.quantum-espresso.org/quote

     Parallel version (MPI & OpenMP), running on      24 processor cores
     Number of MPI processes:                24
     Threads/MPI process:                     1

     MPI processes distributed on     1 nodes
     351804 MiB available memory on the printing compute node when the environment starts
 
     Reading input from graphene.in

     Current dimensions of program PWSCF are:
     Max number of different atomic species (ntypx) = 10
     Max number of k-points (npk) =  40000
     Max angular momentum in pseudopotentials (lmaxx) =  4

     File ../../results/server/graphene/graphene.update deleted, as requested

     File ../../results/server/graphene/graphene.bfgs deleted, as requested

     IMPORTANT: XC functional enforced from input :
     Exchange-correlation= LDA
                           (   1   1   0   0   0   0   0)
     Any further DFT definition will be discarded
     Please, verify this is what you really want

     Found identity + ( -0.5000  0.0000  0.0000) symmetry
     This is a supercell, fractional translations are disabled
 
     R & G space division:  proc/nbgrp/npool/nimage =      24
     Subspace diagonalization in iterative solution of the eigenvalue problem:
     a serial algorithm will be used

 
     Parallelization info
     --------------------
     sticks:   dense  smooth     PW     G-vecs:    dense   smooth      PW
     Min          73      29      8                 4985     1257     206
     Max          74      30      9                 4996     1263     217
     Sum        1765     703    211               119753    30239    5093
 
     Using Slab Decomposition
 


     bravais-lattice index     =            4
     lattice parameter (alat)  =       8.0000  a.u.
     unit-cell volume          =     886.8115 (a.u.)^3
     number of atoms/cell      =           24
     number of atomic types    =            1
     number of electrons       =        96.00
     number of Kohn-Sham states=           58
     kinetic-energy cutoff     =      40.0000  Ry
     charge density cutoff     =     400.0000  Ry
     scf convergence threshold =      1.0E-06
     mixing beta               =       0.0500
     number of iterations used =            8  TF        mixing
     energy convergence thresh.=      1.0E-04
     force convergence thresh. =      1.0E-03
     press convergence thresh. =      5.0E-01
     Exchange-correlation= LDA
                           (   1   1   0   0   0   0   0)
     nstep                     =           50


     celldm(1)=   8.000004  celldm(2)=   0.000000  celldm(3)=   2.000000
     celldm(4)=   0.000000  celldm(5)=   0.000000  celldm(6)=   0.000000

     crystal axes: (cart. coord. in units of alat)
               a(1) = (   1.000000   0.000000   0.000000 )  
               a(2) = (  -0.500000   0.866025   0.000000 )  
               a(3) = (   0.000000   0.000000   2.000000 )  

     reciprocal axes: (cart. coord. in units 2 pi/alat)
               b(1) = (  1.000000  0.577350  0.000000 )  
               b(2) = (  0.000000  1.154701  0.000000 )  
               b(3) = (  0.000000  0.000000  0.500000 )  


     PseudoPot. # 1 for C  read from file:
     ../../potentials/C.pz-n-rrkjus_psl.0.1.UPF
     MD5 check sum: a3cecbabebb5b3a1aff122f23eb09bb0
     Pseudo is Ultrasoft + core correction, Zval =  4.0
     Generated using "atomic" code by A. Dal Corso  v.5.0.2 svn rev. 9415
     Using radial grid of 1073 points,  4 beta functions with: 
                l(1) =   0
                l(2) =   0
                l(3) =   1
                l(4) =   1
     Q(r) pseudized with 0 coefficients 


     atomic species   valence    mass     pseudopotential
        C              4.00    12.01100     C ( 1.00)

     12 Sym. Ops. (no inversion) found



   Cartesian axes

     site n.     atom                  positions (alat units)
         1           C   tau(   1) = (   0.0000000   0.0000000   0.3333320  )
         2           C   tau(   2) = (   0.0000000   0.0000000   1.0000000  )
         3           C   tau(   3) = (   0.0000000   0.0000000   1.6666660  )
         4           C   tau(   4) = (  -0.0000005   0.2886748   0.3333320  )
         5           C   tau(   5) = (   0.2500000   0.1443370   1.0000000  )
         6           C   tau(   6) = (  -0.0000005   0.2886748   1.6666660  )
         7           C   tau(   7) = (   0.5000000   0.0000000   0.3333320  )
         8           C   tau(   8) = (   0.5000000   0.0000000   1.0000000  )
         9           C   tau(   9) = (   0.5000000   0.0000000   1.6666660  )
        10           C   tau(  10) = (   0.4999995   0.2886748   0.3333320  )
        11           C   tau(  11) = (   0.7500000   0.1443370   1.0000000  )
        12           C   tau(  12) = (   0.4999995   0.2886748   1.6666660  )
        13           C   tau(  13) = (  -0.2500000   0.4330127   0.3333320  )
        14           C   tau(  14) = (  -0.2500000   0.4330127   1.0000000  )
        15           C   tau(  15) = (  -0.2500000   0.4330127   1.6666660  )
        16           C   tau(  16) = (  -0.2500005   0.7216875   0.3333320  )
        17           C   tau(  17) = (   0.0000000   0.5773497   1.0000000  )
        18           C   tau(  18) = (  -0.2500005   0.7216875   1.6666660  )
        19           C   tau(  19) = (   0.2500000   0.4330127   0.3333320  )
        20           C   tau(  20) = (   0.2500000   0.4330127   1.0000000  )
        21           C   tau(  21) = (   0.2500000   0.4330127   1.6666660  )
        22           C   tau(  22) = (   0.2499995   0.7216875   0.3333320  )
        23           C   tau(  23) = (   0.5000000   0.5773497   1.0000000  )
        24           C   tau(  24) = (   0.2499995   0.7216875   1.6666660  )

     number of k points=    12  Gaussian smearing, width (Ry)=  0.0100
                       cart. coord. in units 2pi/alat
        k(    1) = (   0.0833333   0.1443376   0.1250000), wk =   0.1111111
        k(    2) = (   0.0833333   0.3367877   0.1250000), wk =   0.2222222
        k(    3) = (   0.0833333   0.5292377   0.1250000), wk =   0.2222222
        k(    4) = (   0.0833333  -0.4330127   0.1250000), wk =   0.2222222
        k(    5) = (   0.0833333  -0.2405626   0.1250000), wk =   0.2222222
        k(    6) = (   0.0833333  -0.0481125   0.1250000), wk =   0.1111111
        k(    7) = (   0.2500000   0.4330127   0.1250000), wk =   0.1111111
        k(    8) = (   0.2500000   0.6254628   0.1250000), wk =   0.2222222
        k(    9) = (   0.2500000  -0.3367877   0.1250000), wk =   0.2222222
        k(   10) = (   0.2500000  -0.1443376   0.1250000), wk =   0.1111111
        k(   11) = (   0.4166667   0.7216878   0.1250000), wk =   0.1111111
        k(   12) = (   0.4166667  -0.2405626   0.1250000), wk =   0.1111111

     Dense  grid:   119753 G-vectors     FFT dimensions: (  54,  54, 108)

     Smooth grid:    30239 G-vectors     FFT dimensions: (  36,  36,  72)

     Estimated max dynamical RAM per process >      14.90 MB

     Estimated total dynamical RAM >     357.64 MB

     Check: negative core charge=   -0.000002

     Initial potential from superposition of free atoms

     starting charge      95.9992, renormalised to      96.0000
     Starting wfcs are   96 randomized atomic wfcs

     total cpu time spent up to now is        0.6 secs

     Self-consistent Calculation

     iteration #  1     ecut=    40.00 Ry     beta= 0.05
     Davidson diagonalization with overlap
     ethr =  1.00E-02,  avg # of iterations =  5.7

     total cpu time spent up to now is        1.4 secs

     total energy              =    -286.82241986 Ry
     estimated scf accuracy    <       5.61261691 Ry

     iteration #  2     ecut=    40.00 Ry     beta= 0.05
     Davidson diagonalization with overlap
     ethr =  5.85E-03,  avg # of iterations =  1.1

     total cpu time spent up to now is        1.8 secs

     total energy              =    -285.36777212 Ry
     estimated scf accuracy    <       5.57123812 Ry

     iteration #  3     ecut=    40.00 Ry     beta= 0.05
     Davidson diagonalization with overlap
     ethr =  5.80E-03,  avg # of iterations =  1.0

     total cpu time spent up to now is        2.2 secs

     total energy              =    -283.30717597 Ry
     estimated scf accuracy    <       3.11522160 Ry

     iteration #  4     ecut=    40.00 Ry     beta= 0.05
     Davidson diagonalization with overlap
     ethr =  3.25E-03,  avg # of iterations =  3.2

     total cpu time spent up to now is        2.7 secs

     total energy              =    -285.01641501 Ry
     estimated scf accuracy    <       0.18392439 Ry

     iteration #  5     ecut=    40.00 Ry     beta= 0.05
     Davidson diagonalization with overlap
     ethr =  1.92E-04,  avg # of iterations =  7.2

     total cpu time spent up to now is        3.9 secs

     total energy              =    -283.52475139 Ry
     estimated scf accuracy    <       2.67719826 Ry

     iteration #  6     ecut=    40.00 Ry     beta= 0.05
     Davidson diagonalization with overlap
     ethr =  1.92E-04,  avg # of iterations =  7.2

     total cpu time spent up to now is        4.9 secs

     total energy              =    -283.94158000 Ry
     estimated scf accuracy    <       0.00628509 Ry

     iteration #  7     ecut=    40.00 Ry     beta= 0.05
     Davidson diagonalization with overlap
     c_bands:  1 eigenvalues not converged
     ethr =  6.55E-06,  avg # of iterations = 10.8

     total cpu time spent up to now is        6.1 secs

     total energy              =    -283.94894377 Ry
     estimated scf accuracy    <       0.00255109 Ry

     iteration #  8     ecut=    40.00 Ry     beta= 0.05
     Davidson diagonalization with overlap
     ethr =  2.66E-06,  avg # of iterations =  2.0

     total cpu time spent up to now is        6.5 secs

     total energy              =    -283.94777283 Ry
     estimated scf accuracy    <       0.00499723 Ry

     iteration #  9     ecut=    40.00 Ry     beta= 0.05
     Davidson diagonalization with overlap
     ethr =  2.66E-06,  avg # of iterations =  2.0

     total cpu time spent up to now is        7.0 secs

     total energy              =    -283.94823357 Ry
     estimated scf accuracy    <       0.00027005 Ry

     iteration # 10     ecut=    40.00 Ry     beta= 0.05
     Davidson diagonalization with overlap
     ethr =  2.81E-07,  avg # of iterations =  4.8

     total cpu time spent up to now is        7.8 secs

     total energy              =    -283.94816304 Ry
     estimated scf accuracy    <       0.00036393 Ry

     iteration # 11     ecut=    40.00 Ry     beta= 0.05
     Davidson diagonalization with overlap
     ethr =  2.81E-07,  avg # of iterations =  2.0

     total cpu time spent up to now is        8.2 secs

     total energy              =    -283.94819265 Ry
     estimated scf accuracy    <       0.00004494 Ry

     iteration # 12     ecut=    40.00 Ry     beta= 0.05
     Davidson diagonalization with overlap
     ethr =  4.68E-08,  avg # of iterations =  2.2

     total cpu time spent up to now is        8.7 secs

     total energy              =    -283.94819860 Ry
     estimated scf accuracy    <       0.00003025 Ry

     iteration # 13     ecut=    40.00 Ry     beta= 0.05
     Davidson diagonalization with overlap
     ethr =  3.15E-08,  avg # of iterations =  2.3

     total cpu time spent up to now is        9.2 secs

     total energy              =    -283.94820272 Ry
     estimated scf accuracy    <       0.00004147 Ry

     iteration # 14     ecut=    40.00 Ry     beta= 0.05
     Davidson diagonalization with overlap
     ethr =  3.15E-08,  avg # of iterations =  2.0

     total cpu time spent up to now is        9.7 secs

     total energy              =    -283.94819535 Ry
     estimated scf accuracy    <       0.00001822 Ry

     iteration # 15     ecut=    40.00 Ry     beta= 0.05
     Davidson diagonalization with overlap
     ethr =  1.90E-08,  avg # of iterations =  3.2

     total cpu time spent up to now is       10.3 secs

     total energy              =    -283.94820300 Ry
     estimated scf accuracy    <       0.00000469 Ry

     iteration # 16     ecut=    40.00 Ry     beta= 0.05
     Davidson diagonalization with overlap
     ethr =  4.89E-09,  avg # of iterations =  3.9

     total cpu time spent up to now is       11.0 secs

     total energy              =    -283.94820330 Ry
     estimated scf accuracy    <       0.00001235 Ry

     iteration # 17     ecut=    40.00 Ry     beta= 0.05
     Davidson diagonalization with overlap
     ethr =  4.89E-09,  avg # of iterations =  1.0

     total cpu time spent up to now is       11.3 secs

     total energy              =    -283.94819780 Ry
     estimated scf accuracy    <       0.00001048 Ry

     iteration # 18     ecut=    40.00 Ry     beta= 0.05
     Davidson diagonalization with overlap
     ethr =  4.89E-09,  avg # of iterations =  2.0

     total cpu time spent up to now is       11.8 secs

     total energy              =    -283.94819890 Ry
     estimated scf accuracy    <       0.00000124 Ry

     iteration # 19     ecut=    40.00 Ry     beta= 0.05
     Davidson diagonalization with overlap
     ethr =  1.29E-09,  avg # of iterations =  2.0

     total cpu time spent up to now is       12.3 secs

     total energy              =    -283.94819919 Ry
     estimated scf accuracy    <       0.00000115 Ry

     iteration # 20     ecut=    40.00 Ry     beta= 0.05
     Davidson diagonalization with overlap
     ethr =  1.20E-09,  avg # of iterations =  1.0

     total cpu time spent up to now is       12.6 secs

     total energy              =    -283.94819864 Ry
     estimated scf accuracy    <       0.00000117 Ry

     iteration # 21     ecut=    40.00 Ry     beta= 0.05
     Davidson diagonalization with overlap
     ethr =  1.20E-09,  avg # of iterations =  3.4

     total cpu time spent up to now is       13.2 secs

     End of self-consistent calculation

          k = 0.0833 0.1443 0.1250 (  3768 PWs)   bands (ev):

   -10.3025  -9.9402  -9.5203  -4.7653  -4.7653  -4.5128  -4.5128  -4.2378
    -4.2378  -3.3678  -3.2217  -3.0946  -2.3300  -2.1141  -1.9142  -1.0853
    -1.0853  -0.8729  -0.8729  -0.6497  -0.6497   0.5301   2.0669   3.9078
     4.8718   4.9485   5.0261   5.4597   5.4597   5.5241   5.5241   5.5892
     5.5893   7.6884   7.6884   8.8618   8.8618   8.9485   9.8143  10.0312
    10.0762  10.1027  10.1541  10.1541  10.2002  10.2411  10.2654  10.7305
    13.9093  14.8045  14.8045  14.9826  15.9208  15.9208  16.0853  17.2496
    17.2496  17.6752

          k = 0.0833 0.3368 0.1250 (  3791 PWs)   bands (ev):

    -9.7725  -9.4203  -9.0141  -6.6569  -6.3635  -6.0357  -5.4494  -5.1793
    -4.8814  -3.7080  -3.4796  -3.2358  -1.2246  -1.0143  -0.7944   0.4146
     0.5994   0.7926   1.2414   1.5489   1.7186   1.8948   2.7583   3.3608
     3.4746   3.5909   4.5299   4.5804   4.6223   4.7159   5.3750   6.0404
     6.1028   6.1666   6.7491   6.9347   8.2239   8.2901   8.3591   8.3762
     8.4216   8.9899   9.0261   9.0756   9.1202   9.7241  10.0539  11.1821
    14.4096  15.3797  16.2903  16.4155  17.3150  17.9717  18.2786  18.4863
    19.0245  20.2546

          k = 0.0833 0.5292 0.1250 (  3798 PWs)   bands (ev):

    -8.8257  -8.4913  -8.2000  -8.1094  -7.8773  -7.5111  -5.7488  -5.4722
    -5.1656  -3.9766  -3.7346  -3.4714   0.5419   0.7166   0.8981   1.4933
     1.6491   1.8107   2.1027   2.2537   2.4085   2.5090   2.9957   3.1228
     3.2534   3.3409   3.9841   4.3472   4.4594   4.6020   4.8425   5.7088
     5.8027   5.8614   5.9728   6.5482   6.5883   7.0379   7.0972   7.1569
     7.6603   7.7174   7.7737   7.9179   8.8423   9.4910  10.0350  11.4025
    15.1328  15.9546  16.8445  17.5468  18.3330  19.1874  19.3978  20.1327
    21.7957  22.6881

          k = 0.0833-0.4330 0.1250 (  3797 PWs)   bands (ev):

    -9.3505  -9.0063  -8.6110  -7.4758  -7.1668  -6.8186  -5.6487  -5.3742
    -5.0704  -3.8846  -3.6465  -3.3885  -0.3743  -0.1804   0.0223   1.2483
     1.4170   1.5922   1.8070   2.4452   2.5799   2.7187   2.9418   3.0904
     3.2422   3.3068   3.8036   3.9146   4.0276   4.3079   5.1122   5.7278
     6.4922   6.5541   6.6153   6.7051   7.0817   7.1684   7.2524   7.4255
     8.0217   8.3356   8.3893   8.4411   8.9000   9.5717  10.0519  11.3348
    14.8234  15.7212  16.6864  17.0405  17.9513  18.7748  18.9523  19.8401
    20.7239  21.1678

          k = 0.0833-0.2406 0.1250 (  3778 PWs)   bands (ev):

   -10.0902  -9.7320  -9.3175  -5.7490  -5.4737  -5.1691  -5.1534  -4.8904
    -4.6017  -3.4761  -3.2736  -3.0715  -1.9460  -1.7267  -1.5021  -0.3700
    -0.1705   0.0389   0.1964   0.3876   0.5878   0.8152   2.3441   4.1777
     4.1898   4.2837   4.3790   5.1040   5.1799   5.2567   5.6940   5.7578
     5.8222   6.5269   7.2683   7.8267   8.5118   9.0461   9.3013   9.3383
     9.3553   9.3968   9.6760   9.7205   9.7544   9.9289   9.9843  10.9578
    14.0717  15.1009  15.5033  16.1613  16.2351  16.5950  17.3440  17.8810
    17.9126  18.6637

          k = 0.0833-0.0481 0.1250 (  3763 PWs)   bands (ev):

   -10.4088 -10.0446  -9.6218  -4.2951  -4.0587  -3.8063  -3.7726  -3.7726
    -3.5678  -3.5678  -3.3639  -3.3639  -2.1855  -2.1855  -1.9607  -1.9607
    -1.7305  -1.7305  -1.7082  -1.4857  -1.2527   0.3874   1.9279   3.7724
     5.3415   5.3416   5.4062   5.4062   5.4717   5.4717   5.5452   5.6054
     5.6667   8.1619   8.6221   8.6221   9.2327   9.5641   9.5641  10.3629
    10.4205  10.4613  10.4860  10.4898  10.5253  10.5422  10.5423  10.5524
    13.9732  13.9733  14.2772  15.0672  15.0672  15.3876  16.2715  16.2715
    16.6858  17.5601

          k = 0.2500 0.4330 0.1250 (  3788 PWs)   bands (ev):

    -9.0354  -8.6970  -8.3097  -7.1681  -7.1681  -6.8648  -6.8648  -6.5241
    -6.5241  -2.1681  -2.0374  -1.9264  -1.3917  -1.1997  -1.0253   1.2836
     1.4415   1.6051   2.2295   3.0841   3.0841   3.2258   3.2258   3.3704
     3.3704   3.7161   4.7166   4.7166   5.3083   5.3084   5.3931   5.3931
     5.4846   5.4846   5.5082   6.1379   6.1379   6.7613   6.8377   6.8927
     7.3579   7.4207   7.4602   7.8098   7.8098  10.6493  11.4799  12.3550
    13.6870  14.5467  15.1878  19.1682  19.7294  19.7294  20.5772  20.5772
    21.4281  21.4281

          k = 0.2500 0.6255 0.1250 (  3794 PWs)   bands (ev):

    -8.5125  -8.1839  -7.8892  -7.8099  -7.5723  -7.2709  -7.2138  -6.9657
    -6.6223  -2.0412  -1.8569  -1.6720  -0.7480  -0.5586  -0.3688   0.2558
     0.4345   0.6199   2.9287   3.7565   3.8327   3.9561   4.0754   4.3891
     4.4226   4.5355   4.5665   4.6613   4.7221   4.8068   4.9074   5.2044
     5.6895   5.7888   5.8613   5.8729   5.9480   6.0129   6.0258   6.1587
     6.5342   6.6030   6.6717   6.9399   7.6942  11.0704  11.9964  12.9058
    13.3158  14.1212  14.9477  19.8055  20.2927  20.5541  21.0112  21.3405
    21.5305  21.8334

          k = 0.2500-0.3368 0.1250 (  3792 PWs)   bands (ev):

    -9.4559  -9.1096  -8.7116  -6.9631  -6.6637  -6.3530  -6.3281  -6.0651
    -5.7444  -2.8902  -2.6929  -2.4950  -1.4656  -1.2572  -1.0436   1.6660
     1.7366   1.8999   2.0690   2.3051   2.3369   2.4617   2.4725   2.6122
     2.6231   3.1704   4.8652   4.9562   4.9803   4.9820   5.0476   5.7853
     5.7867   5.8569   5.9327   6.3838   7.1467   7.5826   7.6555   7.7169
     8.0387   8.2626   8.3187   8.3641   8.7580   9.8832  10.8150  11.7772
    14.0333  14.9314  15.7399  17.9581  18.6575  18.8916  18.9127  19.8636
    19.9840  20.9647

          k = 0.2500-0.1443 0.1250 (  3779 PWs)   bands (ev):

    -9.9841  -9.6279  -9.2162  -6.2513  -5.9660  -5.6484  -4.4700  -4.4700
    -4.2222  -4.2222  -3.9528  -3.9528  -0.8480  -0.8480  -0.6419  -0.6419
    -0.4256  -0.4256   0.8404   0.9574   1.0216   1.2107   2.4824   4.3036
     4.3036   4.3122   4.3970   4.3971   4.4918   4.4918   5.8922   6.0155
     6.0746   6.1345   7.2339   8.0991   8.0991   8.8139   8.8917   8.9541
     9.0107   9.2664   9.2664   9.5055   9.5511   9.5930  10.5561  10.5561
    14.8924  14.8924  15.9365  15.9365  17.0684  17.1314  17.1314  18.0322
    18.1649  19.4664

          k = 0.4167 0.7217 0.1250 (  3793 PWs)   bands (ev):

    -8.4082  -8.4082  -8.0816  -8.0816  -7.7101  -7.7101  -6.5562  -6.2643
    -5.9383  -3.0255  -2.8043  -2.5667   0.2795   0.3471   0.4613   0.5416
     0.6783   0.7836   3.0666   3.0666   3.2341   3.3445   3.4328   3.6170
     3.7190   3.7761   4.5120   4.5120   5.0715   5.0715   5.1922   5.1922
     5.2981   5.2981   5.5338   6.2931   6.2931   6.8722   6.8723   6.9127
     6.9395   6.9395   7.0069   7.0069   8.5523  10.0017  11.1043  12.3318
    14.1006  14.9310  15.8288  18.9648  19.7006  19.9134  19.9134  20.5029
    22.5897  22.5902

          k = 0.4167-0.2406 0.1250 (  3799 PWs)   bands (ev):

    -9.1402  -8.7999  -8.4100  -7.8887  -7.5720  -7.2135  -4.8545  -4.8545
    -4.5952  -4.5952  -4.3106  -4.3105   0.8485   0.8485   1.0213   1.0213
     1.2011   1.2011   2.0884   2.6621   2.6621   2.7948   2.7948   2.9315
     2.9315   3.5788   3.6159   3.7539   3.7746   3.9277   5.2081   5.3745
     6.4394   6.5364   6.6328   6.9191   6.9268   6.9756   7.0328   7.7305
     7.7305   8.1579   8.2101   8.2619   8.9921   8.9921  10.4624  10.4624
    16.1117  16.1117  16.9688  16.9688  17.8975  17.8975  19.0183  20.4252
    20.9108  21.8252

     the Fermi energy is    13.1108 ev

!    total energy              =    -283.94820001 Ry
     estimated scf accuracy    <       0.00000003 Ry
     smearing contrib. (-TS)   =      -0.00012945 Ry
     internal energy E=F+TS    =    -283.94807056 Ry

     The total energy is F=E-TS. E is the sum of the following terms:
     one-electron contribution =      -4.47764558 Ry
     hartree contribution      =      72.21749930 Ry
     xc contribution           =    -108.70155270 Ry
     ewald contribution        =    -242.98637158 Ry

     convergence has been achieved in  21 iterations

     Forces acting on atoms (cartesian axes, Ry/au):

     atom    1 type  1   force =     0.00000000   -0.00000000    0.00721479
     atom    2 type  1   force =     0.00000000    0.00000000    0.00000000
     atom    3 type  1   force =     0.00000000    0.00000000   -0.00721479
     atom    4 type  1   force =     0.00000000   -0.00000234    0.00544911
     atom    5 type  1   force =    -0.00000141   -0.00000081    0.00000000
     atom    6 type  1   force =     0.00000000   -0.00000234   -0.00544911
     atom    7 type  1   force =     0.00000000   -0.00000048    0.00721464
     atom    8 type  1   force =     0.00000000   -0.00000043    0.00000000
     atom    9 type  1   force =     0.00000000   -0.00000048   -0.00721464
     atom   10 type  1   force =    -0.00000000   -0.00000000    0.00544837
     atom   11 type  1   force =     0.00000141   -0.00000081    0.00000000
     atom   12 type  1   force =     0.00000000    0.00000000   -0.00544837
     atom   13 type  1   force =     0.00000042    0.00000024    0.00721464
     atom   14 type  1   force =     0.00000037    0.00000022    0.00000000
     atom   15 type  1   force =     0.00000042    0.00000024   -0.00721464
     atom   16 type  1   force =    -0.00000203    0.00000117    0.00544911
     atom   17 type  1   force =     0.00000000   -0.00000000    0.00000000
     atom   18 type  1   force =    -0.00000203    0.00000117   -0.00544911
     atom   19 type  1   force =    -0.00000042    0.00000024    0.00721464
     atom   20 type  1   force =    -0.00000037    0.00000022    0.00000000
     atom   21 type  1   force =    -0.00000042    0.00000024   -0.00721464
     atom   22 type  1   force =     0.00000203    0.00000117    0.00544911
     atom   23 type  1   force =    -0.00000000    0.00000162    0.00000000
     atom   24 type  1   force =     0.00000203    0.00000117   -0.00544911
     The non-local contrib.  to forces
     atom    1 type  1   force =    -0.00000000   -0.00000000    0.01167080
     atom    2 type  1   force =     0.00000000    0.00000000    0.00000000
     atom    3 type  1   force =    -0.00000000   -0.00000000   -0.01167080
     atom    4 type  1   force =     0.00000000   -0.00000158    0.00798018
     atom    5 type  1   force =    -0.00000109   -0.00000063   -0.00000000
     atom    6 type  1   force =     0.00000000   -0.00000158   -0.00798018
     atom    7 type  1   force =     0.00000000   -0.00000055    0.01167075
     atom    8 type  1   force =    -0.00000000    0.00000035    0.00000000
     atom    9 type  1   force =    -0.00000000   -0.00000055   -0.01167075
     atom   10 type  1   force =     0.00000000   -0.00000000    0.00798049
     atom   11 type  1   force =     0.00000109   -0.00000063    0.00000000
     atom   12 type  1   force =     0.00000000    0.00000000   -0.00798049
     atom   13 type  1   force =     0.00000048    0.00000027    0.01167075
     atom   14 type  1   force =    -0.00000030   -0.00000018    0.00000000
     atom   15 type  1   force =     0.00000048    0.00000027   -0.01167075
     atom   16 type  1   force =    -0.00000137    0.00000079    0.00798018
     atom   17 type  1   force =     0.00000000    0.00000000    0.00000000
     atom   18 type  1   force =    -0.00000137    0.00000079   -0.00798018
     atom   19 type  1   force =    -0.00000048    0.00000027    0.01167075
     atom   20 type  1   force =     0.00000030   -0.00000018    0.00000000
     atom   21 type  1   force =    -0.00000048    0.00000027   -0.01167075
     atom   22 type  1   force =     0.00000137    0.00000079    0.00798018
     atom   23 type  1   force =     0.00000000    0.00000126    0.00000000
     atom   24 type  1   force =     0.00000137    0.00000079   -0.00798018
     The ionic contribution  to forces
     atom    1 type  1   force =    -0.00002316   -0.00001338    0.00005812
     atom    2 type  1   force =    -0.00000002   -0.00002674   -0.00005812
     atom    3 type  1   force =    -0.00002316   -0.00001338   -0.00000000
     atom    4 type  1   force =     0.00002318    0.00001337    0.00827531
     atom    5 type  1   force =    -0.00000002    0.00002677   -0.00005788
     atom    6 type  1   force =     0.00002318    0.00001337   -0.00821743
     atom    7 type  1   force =    -0.00002316   -0.00001338    0.00005812
     atom    8 type  1   force =    -0.00000002   -0.00002674   -0.00005812
     atom    9 type  1   force =    -0.00002316   -0.00001338   -0.00000000
     atom   10 type  1   force =     0.00002318    0.00001337    0.00827531
     atom   11 type  1   force =    -0.00000002    0.00002677   -0.00005788
     atom   12 type  1   force =     0.00002318    0.00001337   -0.00821743
     atom   13 type  1   force =    -0.00002316   -0.00001338    0.00005812
     atom   14 type  1   force =    -0.00000002   -0.00002674   -0.00005812
     atom   15 type  1   force =    -0.00002316   -0.00001338   -0.00000000
     atom   16 type  1   force =     0.00002318    0.00001337    0.00827531
     atom   17 type  1   force =    -0.00000002    0.00002677   -0.00005788
     atom   18 type  1   force =     0.00002318    0.00001337   -0.00821743
     atom   19 type  1   force =    -0.00002316   -0.00001338    0.00005812
     atom   20 type  1   force =    -0.00000002   -0.00002674   -0.00005812
     atom   21 type  1   force =    -0.00002316   -0.00001338   -0.00000000
     atom   22 type  1   force =     0.00002318    0.00001337    0.00827531
     atom   23 type  1   force =    -0.00000002    0.00002677   -0.00005788
     atom   24 type  1   force =     0.00002318    0.00001337   -0.00821743
     The local contribution  to forces
     atom    1 type  1   force =     0.00000000   -0.00000000   -0.00414169
     atom    2 type  1   force =    -0.00000000    0.00000000    0.00000000
     atom    3 type  1   force =    -0.00000000   -0.00000000    0.00441373
     atom    4 type  1   force =     0.00000791    0.00000624   -0.01050666
     atom    5 type  1   force =     0.00000060    0.00000950    0.00000000
     atom    6 type  1   force =     0.00000791    0.00000624    0.01077836
     atom    7 type  1   force =     0.00000000    0.00000314   -0.00414195
     atom    8 type  1   force =    -0.00000000   -0.00000492    0.00000000
     atom    9 type  1   force =    -0.00000000    0.00000314    0.00441400
     atom   10 type  1   force =     0.00000791    0.00000457   -0.01050759
     atom   11 type  1   force =    -0.00000060    0.00000950    0.00000000
     atom   12 type  1   force =     0.00000791    0.00000457    0.01077930
     atom   13 type  1   force =    -0.00000272   -0.00000157   -0.00414195
     atom   14 type  1   force =     0.00000426    0.00000246    0.00000000
     atom   15 type  1   force =    -0.00000272   -0.00000157    0.00441400
     atom   16 type  1   force =     0.00000936    0.00000373   -0.01050666
     atom   17 type  1   force =     0.00000000    0.00000915    0.00000000
     atom   18 type  1   force =     0.00000936    0.00000373    0.01077836
     atom   19 type  1   force =     0.00000272   -0.00000157   -0.00414195
     atom   20 type  1   force =    -0.00000426    0.00000246    0.00000000
     atom   21 type  1   force =     0.00000272   -0.00000157    0.00441400
     atom   22 type  1   force =     0.00000646    0.00000373   -0.01050666
     atom   23 type  1   force =    -0.00000000    0.00000845    0.00000000
     atom   24 type  1   force =     0.00000646    0.00000373    0.01077836
     The core correction contribution to forces
     atom    1 type  1   force =     0.00000000    0.00000000   -0.00028267
     atom    2 type  1   force =    -0.00000000    0.00000000    0.00000000
     atom    3 type  1   force =     0.00000000    0.00000000    0.00028503
     atom    4 type  1   force =    -0.00000056   -0.00000029   -0.00021107
     atom    5 type  1   force =     0.00000002   -0.00000064    0.00000000
     atom    6 type  1   force =    -0.00000056   -0.00000029    0.00021336
     atom    7 type  1   force =     0.00000000    0.00000002   -0.00028267
     atom    8 type  1   force =    -0.00000000   -0.00000003    0.00000000
     atom    9 type  1   force =     0.00000000    0.00000002    0.00028503
     atom   10 type  1   force =    -0.00000056   -0.00000033   -0.00021108
     atom   11 type  1   force =    -0.00000002   -0.00000064    0.00000000
     atom   12 type  1   force =    -0.00000056   -0.00000033    0.00021337
     atom   13 type  1   force =    -0.00000002   -0.00000001   -0.00028267
     atom   14 type  1   force =     0.00000003    0.00000002    0.00000000
     atom   15 type  1   force =    -0.00000002   -0.00000001    0.00028503
     atom   16 type  1   force =    -0.00000053   -0.00000035   -0.00021107
     atom   17 type  1   force =    -0.00000000   -0.00000065    0.00000000
     atom   18 type  1   force =    -0.00000053   -0.00000035    0.00021336
     atom   19 type  1   force =     0.00000002   -0.00000001   -0.00028267
     atom   20 type  1   force =    -0.00000003    0.00000002    0.00000000
     atom   21 type  1   force =     0.00000002   -0.00000001    0.00028503
     atom   22 type  1   force =    -0.00000060   -0.00000035   -0.00021107
     atom   23 type  1   force =    -0.00000000   -0.00000068    0.00000000
     atom   24 type  1   force =    -0.00000060   -0.00000035    0.00021336
     The Hubbard contrib.    to forces
     atom    1 type  1   force =     0.00000000    0.00000000    0.00000000
     atom    2 type  1   force =     0.00000000    0.00000000    0.00000000
     atom    3 type  1   force =     0.00000000    0.00000000    0.00000000
     atom    4 type  1   force =     0.00000000    0.00000000    0.00000000
     atom    5 type  1   force =     0.00000000    0.00000000    0.00000000
     atom    6 type  1   force =     0.00000000    0.00000000    0.00000000
     atom    7 type  1   force =     0.00000000    0.00000000    0.00000000
     atom    8 type  1   force =     0.00000000    0.00000000    0.00000000
     atom    9 type  1   force =     0.00000000    0.00000000    0.00000000
     atom   10 type  1   force =     0.00000000    0.00000000    0.00000000
     atom   11 type  1   force =     0.00000000    0.00000000    0.00000000
     atom   12 type  1   force =     0.00000000    0.00000000    0.00000000
     atom   13 type  1   force =     0.00000000    0.00000000    0.00000000
     atom   14 type  1   force =     0.00000000    0.00000000    0.00000000
     atom   15 type  1   force =     0.00000000    0.00000000    0.00000000
     atom   16 type  1   force =     0.00000000    0.00000000    0.00000000
     atom   17 type  1   force =     0.00000000    0.00000000    0.00000000
     atom   18 type  1   force =     0.00000000    0.00000000    0.00000000
     atom   19 type  1   force =     0.00000000    0.00000000    0.00000000
     atom   20 type  1   force =     0.00000000    0.00000000    0.00000000
     atom   21 type  1   force =     0.00000000    0.00000000    0.00000000
     atom   22 type  1   force =     0.00000000    0.00000000    0.00000000
     atom   23 type  1   force =     0.00000000    0.00000000    0.00000000
     atom   24 type  1   force =     0.00000000    0.00000000    0.00000000
     The SCF correction term to forces
     atom    1 type  1   force =     0.00000000    0.00000000    0.00006802
     atom    2 type  1   force =     0.00000000    0.00000000    0.00001698
     atom    3 type  1   force =     0.00000000    0.00000000   -0.00008495
     atom    4 type  1   force =     0.00000000    0.00000000    0.00006882
     atom    5 type  1   force =     0.00000000    0.00000000    0.00001698
     atom    6 type  1   force =     0.00000000    0.00000000   -0.00008574
     atom    7 type  1   force =     0.00000000    0.00000000    0.00006818
     atom    8 type  1   force =     0.00000000    0.00000000    0.00001698
     atom    9 type  1   force =     0.00000000    0.00000000   -0.00008511
     atom   10 type  1   force =     0.00000000    0.00000000    0.00006872
     atom   11 type  1   force =     0.00000000    0.00000000    0.00001698
     atom   12 type  1   force =     0.00000000    0.00000000   -0.00008564
     atom   13 type  1   force =     0.00000000    0.00000000    0.00006818
     atom   14 type  1   force =     0.00000000    0.00000000    0.00001698
     atom   15 type  1   force =     0.00000000    0.00000000   -0.00008511
     atom   16 type  1   force =     0.00000000    0.00000000    0.00006882
     atom   17 type  1   force =     0.00000000    0.00000000    0.00001698
     atom   18 type  1   force =     0.00000000    0.00000000   -0.00008574
     atom   19 type  1   force =     0.00000000    0.00000000    0.00006818
     atom   20 type  1   force =     0.00000000    0.00000000    0.00001698
     atom   21 type  1   force =     0.00000000    0.00000000   -0.00008511
     atom   22 type  1   force =     0.00000000    0.00000000    0.00006882
     atom   23 type  1   force =     0.00000000    0.00000000    0.00001698
     atom   24 type  1   force =     0.00000000    0.00000000   -0.00008574

     Total force =     0.025572     Total SCF correction =     0.000313


     Computing stress (Cartesian axis) and pressure

          total   stress  (Ry/bohr**3)                   (kbar)     P=     2724.20
   0.02718708   0.00000000  -0.00000000         3999.36        0.00       -0.00
   0.00000000   0.02718708   0.00000000            0.00     3999.36        0.00
  -0.00000000   0.00000000   0.00118198           -0.00        0.00      173.88


     BFGS Geometry Optimization
     Energy error            =      0.0E+00 Ry
     Gradient error          =      7.2E-03 Ry/Bohr
     Cell gradient error     =      4.0E+03 kbar

     number of scf cycles    =   1
     number of bfgs steps    =   0

     enthalpy           new  =    -283.9482000094 Ry

     new trust radius        =       0.5000000000 bohr
     new conv_thr            =       0.0000010000 Ry

     new unit-cell volume =   1045.76134 a.u.^3 (   154.96584 Ang^3 )
     density =      3.08890 g/cm^3

CELL_PARAMETERS (alat=  8.00000437)
   1.083950707   0.000000000  -0.000000000
  -0.541975354   0.938728849   0.000000000
  -0.000000000   0.000000000   2.007299668

ATOMIC_POSITIONS (crystal)
C            -0.0000000000        0.0000000000        0.1667216961    0   0   1
C            -0.0000000000        0.0000000000        0.5000000000    0   0   1
C             0.0000000000       -0.0000000000        0.8332773039    0   0   1
C             0.1666660000        0.3333330000        0.1667080656    0   0   1
C             0.3333330000        0.1666660000        0.5000000000    0   0   1
C             0.1666660000        0.3333330000        0.8332909344    0   0   1
C             0.5000000000       -0.0000000000        0.1667216950    0   0   1
C             0.5000000000       -0.0000000000        0.5000000000    0   0   1
C             0.5000000000       -0.0000000000        0.8332773050    0   0   1
C             0.6666660000        0.3333330000        0.1667080599    0   0   1
C             0.8333330000        0.1666660000        0.5000000000    0   0   1
C             0.6666660000        0.3333330000        0.8332909401    0   0   1
C             0.0000000000        0.5000000000        0.1667216950    0   0   1
C             0.0000000000        0.5000000000        0.5000000000    0   0   1
C             0.0000000000        0.5000000000        0.8332773050    0   0   1
C             0.1666660000        0.8333330000        0.1667080656    0   0   1
C             0.3333330000        0.6666660000        0.5000000000    0   0   1
C             0.1666660000        0.8333330000        0.8332909344    0   0   1
C             0.5000000000        0.5000000000        0.1667216950    0   0   1
C             0.5000000000        0.5000000000        0.5000000000    0   0   1
C             0.5000000000        0.5000000000        0.8332773050    0   0   1
C             0.6666660000        0.8333330000        0.1667080656    0   0   1
C             0.8333330000        0.6666660000        0.5000000000    0   0   1
C             0.6666660000        0.8333330000        0.8332909344    0   0   1



     Writing config-only to output data dir ../../results/server/graphene/graphene.save/
     NEW-OLD atomic charge density approx. for the potential

     Check: negative core charge=   -0.000002
     extrapolated charge  110.59134, renormalised to   96.00000

     total cpu time spent up to now is       15.0 secs

     Self-consistent Calculation

     iteration #  1     ecut=    40.00 Ry     beta= 0.05
     Davidson diagonalization with overlap
     c_bands:  1 eigenvalues not converged
     c_bands:  1 eigenvalues not converged
     c_bands:  2 eigenvalues not converged
     c_bands:  1 eigenvalues not converged
     c_bands:  3 eigenvalues not converged
     ethr =  1.00E-06,  avg # of iterations = 18.5

     total cpu time spent up to now is       17.7 secs

     total energy              =    -285.53001804 Ry
     estimated scf accuracy    <       0.93484738 Ry

     iteration #  2     ecut=    40.00 Ry     beta= 0.05
     Davidson diagonalization with overlap
     ethr =  9.74E-04,  avg # of iterations =  5.1

     total cpu time spent up to now is       18.5 secs

     total energy              =    -286.53978929 Ry
     estimated scf accuracy    <       0.02162130 Ry

     iteration #  3     ecut=    40.00 Ry     beta= 0.05
     Davidson diagonalization with overlap
     c_bands:  2 eigenvalues not converged
     ethr =  2.25E-05,  avg # of iterations =  9.2

     total cpu time spent up to now is       19.5 secs

     total energy              =    -286.55530534 Ry
     estimated scf accuracy    <       0.01458874 Ry

     iteration #  4     ecut=    40.00 Ry     beta= 0.05
     Davidson diagonalization with overlap
     ethr =  1.52E-05,  avg # of iterations =  1.5

     total cpu time spent up to now is       19.9 secs

     total energy              =    -286.54932594 Ry
     estimated scf accuracy    <       0.01320624 Ry

     iteration #  5     ecut=    40.00 Ry     beta= 0.05
     Davidson diagonalization with overlap
     ethr =  1.38E-05,  avg # of iterations =  2.0

     total cpu time spent up to now is       20.3 secs

     total energy              =    -286.55045196 Ry
     estimated scf accuracy    <       0.00055977 Ry

     iteration #  6     ecut=    40.00 Ry     beta= 0.05
     Davidson diagonalization with overlap
     ethr =  5.83E-07,  avg # of iterations =  7.8

     total cpu time spent up to now is       21.2 secs

     total energy              =    -286.55098666 Ry
     estimated scf accuracy    <       0.00043866 Ry

     iteration #  7     ecut=    40.00 Ry     beta= 0.05
     Davidson diagonalization with overlap
     ethr =  4.57E-07,  avg # of iterations =  1.2

     total cpu time spent up to now is       21.6 secs

     total energy              =    -286.55071600 Ry
     estimated scf accuracy    <       0.00063618 Ry

     iteration #  8     ecut=    40.00 Ry     beta= 0.05
     Davidson diagonalization with overlap
     ethr =  4.57E-07,  avg # of iterations =  1.2

     total cpu time spent up to now is       22.0 secs

     total energy              =    -286.55073864 Ry
     estimated scf accuracy    <       0.00006729 Ry

     iteration #  9     ecut=    40.00 Ry     beta= 0.05
     Davidson diagonalization with overlap
     ethr =  7.01E-08,  avg # of iterations =  2.3

     total cpu time spent up to now is       22.4 secs

     total energy              =    -286.55073673 Ry
     estimated scf accuracy    <       0.00005660 Ry

     iteration # 10     ecut=    40.00 Ry     beta= 0.05
     Davidson diagonalization with overlap
     ethr =  5.90E-08,  avg # of iterations =  1.1

     total cpu time spent up to now is       22.8 secs

     total energy              =    -286.55072829 Ry
     estimated scf accuracy    <       0.00003194 Ry

     iteration # 11     ecut=    40.00 Ry     beta= 0.05
     Davidson diagonalization with overlap
     ethr =  3.33E-08,  avg # of iterations =  3.9

     total cpu time spent up to now is       23.5 secs

     total energy              =    -286.55073852 Ry
     estimated scf accuracy    <       0.00000201 Ry

     iteration # 12     ecut=    40.00 Ry     beta= 0.05
     Davidson diagonalization with overlap
     ethr =  2.09E-09,  avg # of iterations =  5.0

     total cpu time spent up to now is       24.3 secs

     total energy              =    -286.55074020 Ry
     estimated scf accuracy    <       0.00000276 Ry

     iteration # 13     ecut=    40.00 Ry     beta= 0.05
     Davidson diagonalization with overlap
     ethr =  2.09E-09,  avg # of iterations =  2.0

     total cpu time spent up to now is       24.8 secs

     total energy              =    -286.55073829 Ry
     estimated scf accuracy    <       0.00000226 Ry

     iteration # 14     ecut=    40.00 Ry     beta= 0.05
     Davidson diagonalization with overlap
     ethr =  2.09E-09,  avg # of iterations =  2.0

     total cpu time spent up to now is       25.3 secs

     End of self-consistent calculation

          k = 0.0769 0.1332 0.1245 (  3768 PWs)   bands (ev):

   -10.6411 -10.2608  -9.8151  -5.6914  -5.6914  -5.3978  -5.3977  -5.0687
    -5.0687  -4.1877  -4.0586  -3.8804  -3.7952  -3.5645  -3.5294  -2.5624
    -2.5624  -2.3245  -2.3245  -2.0641  -2.0641   0.0578   1.6713   3.0938
     3.1938   3.2966   3.6337   3.6360   3.6360   3.7220   3.7220   3.8097
     3.8097   5.9831   5.9831   6.9952   7.2026   7.2026   7.3094   7.3563
     7.4063   7.5046   7.5456   7.5911   7.9090   8.5340   8.5341   8.8974
    11.5162  12.1780  12.1780  12.5828  13.2695  13.2695  13.6107  14.5524
    14.5524  16.4894

          k = 0.0769 0.3107 0.1245 (  3791 PWs)   bands (ev):

   -10.1719  -9.7999  -9.3658  -7.4012  -7.0779  -6.7103  -6.3215  -6.0168
    -5.6742  -4.7397  -4.4628  -4.1554  -2.6821  -2.4463  -2.1878  -1.1946
    -0.9828  -0.7536  -0.1894   0.0077   0.2198   0.6517   1.6786   1.8170
     1.9628   2.2441   2.7446   2.8600   2.9805   4.0833   4.1181   4.1822
     4.1993   4.2848   5.3726   5.5188   5.7707   5.8547   5.9404   6.5623
     6.6225   6.6846   6.7153   7.0513   7.2269   8.1568   8.2768   9.3210
    11.7844  12.7380  13.2533  13.7362  14.2649  14.6430  15.4165  15.6843
    16.8938  16.9859

          k = 0.0769 0.4882 0.1245 (  3798 PWs)   bands (ev):

    -9.3324  -8.9752  -8.7765  -8.5619  -8.4292  -8.0292  -6.5939  -6.2850
    -5.9363  -5.0087  -4.7275  -4.4149  -1.1146  -0.9230  -0.7216   0.0724
     0.2216   0.2442   0.3887   0.4081   0.5781   1.4550   1.5798   1.7082
     1.7160   2.2908   2.4032   2.4538   2.6184   3.2515   3.5317   3.6689
     3.7967   3.9300   4.9366   5.0150   5.0904   5.0947   5.1503   5.4481
     5.5221   5.5980   5.7758   6.4765   6.9439   8.1241   8.1861   9.6053
    12.1598  13.0190  13.9757  14.1329  14.9479  15.8610  17.6779  17.8836
    18.3804  18.6928

          k = 0.0769-0.3995 0.1245 (  3797 PWs)   bands (ev):

    -9.7980  -9.4326  -9.0077  -8.1321  -7.7960  -7.4114  -6.5029  -6.1956
    -5.8487  -4.9185  -4.6392  -4.3282  -1.8932  -1.6732  -1.4347  -0.4524
    -0.2576  -0.0486   0.8446   1.0006   1.0498   1.1235   1.1670   1.2247
     1.4120   2.0835   2.2146   2.3533   2.6979   3.2010   4.4877   4.5671
     4.6070   4.6508   4.6904   4.7122   4.8120   4.9233   5.1857   6.0002
     6.0685   6.1385   6.4772   6.5578   6.9867   8.1778   8.1849   9.5074
    12.0024  12.9018  13.7864  13.8854  14.6989  15.7148  16.1448  17.0973
    17.3887  18.1839

          k = 0.0769-0.2219 0.1245 (  3778 PWs)   bands (ev):

   -10.4532 -10.0762  -9.6352  -6.5867  -6.2772  -6.0503  -5.9282  -5.7504
    -5.4136  -4.4746  -4.2018  -3.8994  -3.4187  -3.1725  -2.8981  -1.9055
    -1.6797  -1.4335  -1.3987  -1.1806  -0.9439   0.2958   1.9010   2.4511
     2.5694   2.6928   3.2888   3.3875   3.4889   3.8297   3.8540   3.9147
     4.0015   5.0344   5.6433   6.3888   6.6636   6.7256   6.7894   6.9373
     7.0843   7.0873   7.1367   7.1893   7.9614   8.0647   8.4039   9.0949
    11.5996  12.6183  12.6836  13.2708  13.6093  13.7551  14.3640  15.0057
    15.6531  16.6858

          k = 0.0769-0.0444 0.1245 (  3763 PWs)   bands (ev):

   -10.7352 -10.3532  -9.9053  -5.2475  -4.9608  -4.7231  -4.7231  -4.6416
    -4.4452  -4.4452  -4.1364  -4.1364  -3.6646  -3.6646  -3.4112  -3.4112
    -3.1524  -3.1294  -3.1294  -2.9046  -2.6323  -0.0616   1.5560   3.5231
     3.5383   3.5383   3.6247   3.6247   3.7130   3.7130   3.7275   3.8087
     3.8918   6.3639   6.7319   6.7319   7.4772   7.6527   7.6975   7.7175
     7.7175   7.7247   7.7457   7.7676   7.8137   8.6478   8.7554   8.7555
    11.5781  11.5782  11.7998  12.6582  12.6582  12.8870  13.7931  13.7931
    14.1270  16.3933

          k = 0.2306 0.3995 0.1245 (  3788 PWs)   bands (ev):

    -9.5185  -9.1579  -8.7401  -7.8586  -7.8586  -7.5275  -7.5275  -7.1496
    -7.1496  -3.2747  -3.1060  -2.9443  -2.8039  -2.6374  -2.5372  -0.2204
    -0.0440   0.1461   1.1717   1.1717   1.3377   1.3377   1.4756   1.5144
     1.5144   3.0363   3.4188   3.4188   3.5279   3.5279   3.5482   3.5482
     3.6469   3.6469   4.3750   4.4617   4.5482   4.9357   5.0165   5.0165
     5.2228   5.2844   5.3536   6.7876   6.7876   8.4025   9.2708  10.1993
    11.0952  11.9918  12.6799  15.9725  15.9725  16.8254  16.8254  17.7142
    17.7783  17.7783

          k = 0.2306 0.5770 0.1245 (  3794 PWs)   bands (ev):

    -9.0544  -8.7022  -8.5004  -8.2955  -8.1581  -7.9505  -7.7648  -7.6180
    -7.2377  -3.2594  -3.0135  -2.7468  -2.2503  -2.0447  -1.8206  -1.0970
    -0.9293  -0.7371   1.7763   1.9119   2.0518   2.0577   2.3398   2.4794
     2.6217   2.7565   2.9634   3.0675   3.1737   3.4357   3.4397   3.5212
     3.6177   3.6584   3.9108   4.0025   4.1070   4.2756   4.5146   4.5930
     4.6757   4.9146   5.4707   6.0900   6.6974   8.7539   9.7069  10.5530
    10.8082  11.6014  12.4746  16.3666  17.1146  17.3840  17.9576  18.1273
    18.2294  18.8261

          k = 0.2306-0.3107 0.1245 (  3792 PWs)   bands (ev):

    -9.8913  -9.5242  -9.0972  -7.6753  -7.3473  -7.1313  -6.9733  -6.8130
    -6.4517  -3.9826  -3.7199  -3.4319  -2.9299  -2.6986  -2.4400  -0.0179
     0.1719   0.3754   0.4858   0.6687   0.7378   0.8650   0.8968   1.0060
     1.0659   2.5852   3.0364   3.1484   3.2656   3.7582   3.8646   3.9559
     4.0539   4.4264   4.5072   5.1319   5.2156   5.2188   5.3016   5.8450
     5.9501   6.0111   6.0764   6.9657   7.5362   7.7782   8.7493   9.7583
    11.4416  12.3480  13.1446  14.5660  15.3505  15.5132  16.3141  16.5791
    17.2965  17.4096

          k = 0.2306-0.1332 0.1245 (  3779 PWs)   bands (ev):

   -10.3593  -9.9840  -9.5453  -7.0378  -6.7207  -6.3612  -5.4327  -5.4327
    -5.1438  -5.1438  -4.8210  -4.8210  -2.3358  -2.3357  -2.1036  -2.1036
    -1.8502  -1.8502  -0.8228  -0.6145  -0.3890   0.4147   2.0156   2.5491
     2.5492   2.6666   2.6666   2.7890   2.7890   3.9638   4.1137   4.1933
     4.2746   4.5121   5.9117   6.3045   6.3238   6.3238   6.3816   6.4605
     6.9464   7.0043   7.0632   7.5370   7.5370   7.5629   8.8658   8.8658
    12.1880  12.1880  13.2090  13.2090  13.9337  14.3639  14.3639  15.0172
    16.2924  16.7839

          k = 0.3844 0.6658 0.1245 (  3793 PWs)   bands (ev):

    -8.9617  -8.9617  -8.6111  -8.6111  -8.2066  -8.2066  -7.3141  -6.9925
    -6.6275  -4.1559  -3.8911  -3.5980  -1.4746  -1.3096  -1.1409  -0.7128
    -0.5890  -0.4625   1.1427   1.2697   1.4009   2.0948   2.1719   2.1719
     2.1945   2.2936   2.9249   2.9249   3.0565   3.0565   3.2046   3.2046
     3.7123   3.7123   4.2184   4.7749   4.7749   4.8603   4.8603   4.9464
     4.9464   5.5726   5.5726   5.6567   7.3825   7.8915   9.0408  10.3104
    11.3022  12.1847  13.1579  15.2775  16.0440  16.9103  18.2249  18.2249
    18.4232  18.4232

          k = 0.3844-0.2219 0.1245 (  3799 PWs)   bands (ev):

    -9.6115  -9.2494  -8.8292  -8.4996  -8.1572  -7.7638  -5.7937  -5.7937
    -5.4986  -5.4986  -5.1679  -5.1679  -0.8143  -0.8143  -0.6170  -0.6170
    -0.4063  -0.4063   1.0692   1.0692   1.2168   1.2168   1.3580   1.3753
     1.3753   1.6608   1.8259   2.0011   2.7491   2.9223   4.1377   4.2557
     4.2610   4.3819   4.8336   4.8538   4.9295   5.0069   5.8617   5.9307
     6.0013   6.0306   6.0307   6.0787   7.3447   7.3447   8.8755   8.8755
    12.9923  12.9923  13.8672  13.8672  14.8385  14.8385  16.9341  17.5815
    17.8376  18.7604

     the Fermi energy is    10.6806 ev

!    total energy              =    -286.55074422 Ry
     estimated scf accuracy    <       0.00000014 Ry
     smearing contrib. (-TS)   =      -0.00052067 Ry
     internal energy E=F+TS    =    -286.55022355 Ry

     The total energy is F=E-TS. E is the sum of the following terms:
     one-electron contribution =       1.36924392 Ry
     hartree contribution      =      61.02964865 Ry
     xc contribution           =    -103.62561759 Ry
     ewald contribution        =    -245.32349852 Ry

     convergence has been achieved in  14 iterations

     Forces acting on atoms (cartesian axes, Ry/au):

     atom    1 type  1   force =    -0.00000000    0.00000000    0.00853849
     atom    2 type  1   force =     0.00000000   -0.00000000    0.00000000
     atom    3 type  1   force =    -0.00000000    0.00000000   -0.00853849
     atom    4 type  1   force =     0.00000000   -0.00000058    0.00540325
     atom    5 type  1   force =    -0.00000014   -0.00000008   -0.00000000
     atom    6 type  1   force =     0.00000000   -0.00000058   -0.00540325
     atom    7 type  1   force =    -0.00000000    0.00000066    0.00853835
     atom    8 type  1   force =    -0.00000000   -0.00000004   -0.00000000
     atom    9 type  1   force =    -0.00000000    0.00000066   -0.00853835
     atom   10 type  1   force =     0.00000000    0.00000000    0.00540304
     atom   11 type  1   force =     0.00000014   -0.00000008    0.00000000
     atom   12 type  1   force =    -0.00000000   -0.00000000   -0.00540304
     atom   13 type  1   force =    -0.00000057   -0.00000033    0.00853835
     atom   14 type  1   force =     0.00000004    0.00000002   -0.00000000
     atom   15 type  1   force =    -0.00000057   -0.00000033   -0.00853835
     atom   16 type  1   force =    -0.00000050    0.00000029    0.00540325
     atom   17 type  1   force =    -0.00000000    0.00000000   -0.00000000
     atom   18 type  1   force =    -0.00000050    0.00000029   -0.00540325
     atom   19 type  1   force =     0.00000057   -0.00000033    0.00853835
     atom   20 type  1   force =    -0.00000004    0.00000002   -0.00000000
     atom   21 type  1   force =     0.00000057   -0.00000033   -0.00853835
     atom   22 type  1   force =     0.00000050    0.00000029    0.00540325
     atom   23 type  1   force =    -0.00000000    0.00000016    0.00000000
     atom   24 type  1   force =     0.00000050    0.00000029   -0.00540325
     The non-local contrib.  to forces
     atom    1 type  1   force =     0.00000000    0.00000000    0.01475783
     atom    2 type  1   force =     0.00000000   -0.00000000    0.00000000
     atom    3 type  1   force =    -0.00000000    0.00000000   -0.01475783
     atom    4 type  1   force =     0.00000000   -0.00000038    0.00872183
     atom    5 type  1   force =     0.00000019    0.00000011   -0.00000000
     atom    6 type  1   force =     0.00000000   -0.00000038   -0.00872183
     atom    7 type  1   force =    -0.00000000    0.00000037    0.01475821
     atom    8 type  1   force =     0.00000000    0.00000023   -0.00000000
     atom    9 type  1   force =    -0.00000000    0.00000037   -0.01475821
     atom   10 type  1   force =     0.00000000    0.00000000    0.00872098
     atom   11 type  1   force =    -0.00000019    0.00000011   -0.00000000
     atom   12 type  1   force =    -0.00000000    0.00000000   -0.00872098
     atom   13 type  1   force =    -0.00000032   -0.00000018    0.01475821
     atom   14 type  1   force =    -0.00000020   -0.00000011   -0.00000000
     atom   15 type  1   force =    -0.00000032   -0.00000018   -0.01475821
     atom   16 type  1   force =    -0.00000033    0.00000019    0.00872183
     atom   17 type  1   force =     0.00000000    0.00000000    0.00000000
     atom   18 type  1   force =    -0.00000033    0.00000019   -0.00872183
     atom   19 type  1   force =     0.00000032   -0.00000018    0.01475821
     atom   20 type  1   force =     0.00000020   -0.00000011   -0.00000000
     atom   21 type  1   force =     0.00000032   -0.00000018   -0.01475821
     atom   22 type  1   force =     0.00000033    0.00000019    0.00872183
     atom   23 type  1   force =    -0.00000000   -0.00000022    0.00000000
     atom   24 type  1   force =     0.00000033    0.00000019   -0.00872183
     The ionic contribution  to forces
     atom    1 type  1   force =    -0.00001972   -0.00001141   -0.00623833
     atom    2 type  1   force =    -0.00000003   -0.00002277   -0.00004953
     atom    3 type  1   force =    -0.00001972   -0.00001141    0.00628785
     atom    4 type  1   force =     0.00001976    0.00001138    0.00614774
     atom    5 type  1   force =    -0.00000002    0.00002282   -0.00004914
     atom    6 type  1   force =     0.00001976    0.00001138   -0.00609859
     atom    7 type  1   force =    -0.00001972   -0.00001141   -0.00623826
     atom    8 type  1   force =    -0.00000003   -0.00002275   -0.00004953
     atom    9 type  1   force =    -0.00001972   -0.00001141    0.00628779
     atom   10 type  1   force =     0.00001976    0.00001139    0.00614734
     atom   11 type  1   force =    -0.00000005    0.00002282   -0.00004914
     atom   12 type  1   force =     0.00001976    0.00001139   -0.00609819
     atom   13 type  1   force =    -0.00001971   -0.00001140   -0.00623826
     atom   14 type  1   force =    -0.00000005   -0.00002278   -0.00004953
     atom   15 type  1   force =    -0.00001971   -0.00001140    0.00628779
     atom   16 type  1   force =     0.00001975    0.00001139    0.00614774
     atom   17 type  1   force =    -0.00000003    0.00002281   -0.00004914
     atom   18 type  1   force =     0.00001975    0.00001139   -0.00609859
     atom   19 type  1   force =    -0.00001973   -0.00001140   -0.00623826
     atom   20 type  1   force =    -0.00000002   -0.00002278   -0.00004953
     atom   21 type  1   force =    -0.00001973   -0.00001140    0.00628779
     atom   22 type  1   force =     0.00001976    0.00001139    0.00614774
     atom   23 type  1   force =    -0.00000003    0.00002279   -0.00004914
     atom   24 type  1   force =     0.00001976    0.00001139   -0.00609859
     The local contribution  to forces
     atom    1 type  1   force =    -0.00000000   -0.00000000    0.00078076
     atom    2 type  1   force =     0.00000000    0.00000000    0.00000000
     atom    3 type  1   force =     0.00000000   -0.00000000   -0.00055414
     atom    4 type  1   force =     0.00001069    0.00000564   -0.00882420
     atom    5 type  1   force =    -0.00000042    0.00001210    0.00000000
     atom    6 type  1   force =     0.00001069    0.00000564    0.00905048
     atom    7 type  1   force =    -0.00000000    0.00000073    0.00077992
     atom    8 type  1   force =     0.00000000    0.00000002    0.00000000
     atom    9 type  1   force =    -0.00000000    0.00000073   -0.00055330
     atom   10 type  1   force =     0.00001069    0.00000617   -0.00882354
     atom   11 type  1   force =     0.00000042    0.00001210    0.00000000
     atom   12 type  1   force =     0.00001069    0.00000617    0.00904981
     atom   13 type  1   force =    -0.00000064   -0.00000037    0.00077992
     atom   14 type  1   force =    -0.00000002   -0.00000001    0.00000000
     atom   15 type  1   force =    -0.00000064   -0.00000037   -0.00055330
     atom   16 type  1   force =     0.00001023    0.00000644   -0.00882420
     atom   17 type  1   force =     0.00000000    0.00001234    0.00000000
     atom   18 type  1   force =     0.00001023    0.00000644    0.00905048
     atom   19 type  1   force =     0.00000064   -0.00000037    0.00077992
     atom   20 type  1   force =     0.00000002   -0.00000001    0.00000000
     atom   21 type  1   force =     0.00000064   -0.00000037   -0.00055330
     atom   22 type  1   force =     0.00001115    0.00000644   -0.00882420
     atom   23 type  1   force =    -0.00000000    0.00001283    0.00000000
     atom   24 type  1   force =     0.00001115    0.00000644    0.00905048
     The core correction contribution to forces
     atom    1 type  1   force =     0.00000000    0.00000000   -0.00035022
     atom    2 type  1   force =     0.00000000    0.00000000    0.00000000
     atom    3 type  1   force =     0.00000000    0.00000000    0.00035199
     atom    4 type  1   force =    -0.00000047   -0.00000026   -0.00023036
     atom    5 type  1   force =    -0.00000000   -0.00000054    0.00000000
     atom    6 type  1   force =    -0.00000047   -0.00000026    0.00023205
     atom    7 type  1   force =     0.00000000   -0.00000000   -0.00035023
     atom    8 type  1   force =     0.00000000   -0.00000000    0.00000000
     atom    9 type  1   force =     0.00000000   -0.00000000    0.00035200
     atom   10 type  1   force =    -0.00000047   -0.00000027   -0.00023034
     atom   11 type  1   force =     0.00000000   -0.00000054    0.00000000
     atom   12 type  1   force =    -0.00000047   -0.00000027    0.00023203
     atom   13 type  1   force =     0.00000000    0.00000000   -0.00035023
     atom   14 type  1   force =     0.00000000    0.00000000    0.00000000
     atom   15 type  1   force =     0.00000000    0.00000000    0.00035200
     atom   16 type  1   force =    -0.00000046   -0.00000027   -0.00023036
     atom   17 type  1   force =     0.00000000   -0.00000054    0.00000000
     atom   18 type  1   force =    -0.00000046   -0.00000027    0.00023205
     atom   19 type  1   force =    -0.00000000    0.00000000   -0.00035023
     atom   20 type  1   force =    -0.00000000    0.00000000    0.00000000
     atom   21 type  1   force =    -0.00000000    0.00000000    0.00035200
     atom   22 type  1   force =    -0.00000047   -0.00000027   -0.00023036
     atom   23 type  1   force =     0.00000000   -0.00000053    0.00000000
     atom   24 type  1   force =    -0.00000047   -0.00000027    0.00023205
     The Hubbard contrib.    to forces
     atom    1 type  1   force =     0.00000000    0.00000000    0.00000000
     atom    2 type  1   force =     0.00000000    0.00000000    0.00000000
     atom    3 type  1   force =     0.00000000    0.00000000    0.00000000
     atom    4 type  1   force =     0.00000000    0.00000000    0.00000000
     atom    5 type  1   force =     0.00000000    0.00000000    0.00000000
     atom    6 type  1   force =     0.00000000    0.00000000    0.00000000
     atom    7 type  1   force =     0.00000000    0.00000000    0.00000000
     atom    8 type  1   force =     0.00000000    0.00000000    0.00000000
     atom    9 type  1   force =     0.00000000    0.00000000    0.00000000
     atom   10 type  1   force =     0.00000000    0.00000000    0.00000000
     atom   11 type  1   force =     0.00000000    0.00000000    0.00000000
     atom   12 type  1   force =     0.00000000    0.00000000    0.00000000
     atom   13 type  1   force =     0.00000000    0.00000000    0.00000000
     atom   14 type  1   force =     0.00000000    0.00000000    0.00000000
     atom   15 type  1   force =     0.00000000    0.00000000    0.00000000
     atom   16 type  1   force =     0.00000000    0.00000000    0.00000000
     atom   17 type  1   force =     0.00000000    0.00000000    0.00000000
     atom   18 type  1   force =     0.00000000    0.00000000    0.00000000
     atom   19 type  1   force =     0.00000000    0.00000000    0.00000000
     atom   20 type  1   force =     0.00000000    0.00000000    0.00000000
     atom   21 type  1   force =     0.00000000    0.00000000    0.00000000
     atom   22 type  1   force =     0.00000000    0.00000000    0.00000000
     atom   23 type  1   force =     0.00000000    0.00000000    0.00000000
     atom   24 type  1   force =     0.00000000    0.00000000    0.00000000
     The SCF correction term to forces
     atom    1 type  1   force =     0.00000000    0.00000000   -0.00027454
     atom    2 type  1   force =     0.00000000    0.00000000    0.00000368
     atom    3 type  1   force =     0.00000000    0.00000000    0.00027066
     atom    4 type  1   force =     0.00000000    0.00000000   -0.00027514
     atom    5 type  1   force =     0.00000000    0.00000000    0.00000368
     atom    6 type  1   force =     0.00000000    0.00000000    0.00027126
     atom    7 type  1   force =     0.00000000    0.00000000   -0.00027426
     atom    8 type  1   force =     0.00000000    0.00000000    0.00000368
     atom    9 type  1   force =     0.00000000    0.00000000    0.00027038
     atom   10 type  1   force =     0.00000000    0.00000000   -0.00027478
     atom   11 type  1   force =     0.00000000    0.00000000    0.00000368
     atom   12 type  1   force =     0.00000000    0.00000000    0.00027090
     atom   13 type  1   force =     0.00000000    0.00000000   -0.00027426
     atom   14 type  1   force =     0.00000000    0.00000000    0.00000368
     atom   15 type  1   force =     0.00000000    0.00000000    0.00027038
     atom   16 type  1   force =     0.00000000    0.00000000   -0.00027514
     atom   17 type  1   force =     0.00000000    0.00000000    0.00000368
     atom   18 type  1   force =     0.00000000    0.00000000    0.00027126
     atom   19 type  1   force =     0.00000000    0.00000000   -0.00027426
     atom   20 type  1   force =     0.00000000    0.00000000    0.00000368
     atom   21 type  1   force =     0.00000000    0.00000000    0.00027038
     atom   22 type  1   force =     0.00000000    0.00000000   -0.00027514
     atom   23 type  1   force =     0.00000000    0.00000000    0.00000368
     atom   24 type  1   force =     0.00000000    0.00000000    0.00027126

     Total force =     0.028580     Total SCF correction =     0.001091


     Computing stress (Cartesian axis) and pressure

          total   stress  (Ry/bohr**3)                   (kbar)     P=      881.34
   0.00843257   0.00000000  -0.00000000         1240.47        0.00       -0.00
   0.00000000   0.00843257  -0.00000000            0.00     1240.47       -0.00
   0.00000000  -0.00000000   0.00110860            0.00       -0.00      163.08

     Energy error            =      2.6E+00 Ry
     Gradient error          =      8.5E-03 Ry/Bohr
     Cell gradient error     =      1.2E+03 kbar

     number of scf cycles    =   2
     number of bfgs steps    =   1

     enthalpy           old  =    -283.9482000094 Ry
     enthalpy           new  =    -286.5507442216 Ry

     CASE: enthalpy          _new < enthalpy          _old

     new trust radius        =       0.2566487582 bohr
     new conv_thr            =       0.0000000854 Ry

     new unit-cell volume =   1170.95790 a.u.^3 (   173.51806 Ang^3 )
     density =      2.75864 g/cm^3

CELL_PARAMETERS (alat=  8.00000437)
   1.126963972   0.000000000   0.000000000
  -0.563481986   0.975979429  -0.000000000
  -0.000000000  -0.000000000   2.079313202

ATOMIC_POSITIONS (crystal)
C            -0.0000000000        0.0000000000        0.1673296061    0   0   1
C            -0.0000000000       -0.0000000000        0.5000000000    0   0   1
C             0.0000000000       -0.0000000000        0.8326693939    0   0   1
C             0.1666660000        0.3333330000        0.1670680984    0   0   1
C             0.3333330000        0.1666660000        0.5000000000    0   0   1
C             0.1666660000        0.3333330000        0.8329309016    0   0   1
C             0.5000000000        0.0000000000        0.1673295964    0   0   1
C             0.5000000000       -0.0000000000        0.5000000000    0   0   1
C             0.5000000000        0.0000000000        0.8326694036    0   0   1
C             0.6666660000        0.3333330000        0.1670680938    0   0   1
C             0.8333330000        0.1666660000        0.5000000000    0   0   1
C             0.6666660000        0.3333330000        0.8329309062    0   0   1
C             0.0000000000        0.5000000000        0.1673295964    0   0   1
C             0.0000000000        0.5000000000        0.5000000000    0   0   1
C             0.0000000000        0.5000000000        0.8326694036    0   0   1
C             0.1666660000        0.8333330000        0.1670680984    0   0   1
C             0.3333330000        0.6666660000        0.5000000000    0   0   1
C             0.1666660000        0.8333330000        0.8329309016    0   0   1
C             0.5000000000        0.5000000000        0.1673295964    0   0   1
C             0.5000000000        0.5000000000        0.5000000000    0   0   1
C             0.5000000000        0.5000000000        0.8326694036    0   0   1
C             0.6666660000        0.8333330000        0.1670680984    0   0   1
C             0.8333330000        0.6666660000        0.5000000000    0   0   1
C             0.6666660000        0.8333330000        0.8329309016    0   0   1



     Writing config-only to output data dir ../../results/server/graphene/graphene.save/
     NEW-OLD atomic charge density approx. for the potential

     Check: negative core charge=   -0.000002
     extrapolated charge  106.26404, renormalised to   96.00000

     total cpu time spent up to now is       27.1 secs

     Self-consistent Calculation

     iteration #  1     ecut=    40.00 Ry     beta= 0.05
     Davidson diagonalization with overlap
     c_bands:  1 eigenvalues not converged
     c_bands:  2 eigenvalues not converged
     c_bands:  2 eigenvalues not converged
     c_bands:  2 eigenvalues not converged
     ethr =  1.00E-06,  avg # of iterations = 15.8

     total cpu time spent up to now is       29.3 secs

     total energy              =    -286.55490067 Ry
     estimated scf accuracy    <       0.33964361 Ry

     iteration #  2     ecut=    40.00 Ry     beta= 0.05
     Davidson diagonalization with overlap
     ethr =  3.54E-04,  avg # of iterations =  5.1

     total cpu time spent up to now is       30.2 secs

     total energy              =    -287.02981510 Ry
     estimated scf accuracy    <       0.00438499 Ry

     iteration #  3     ecut=    40.00 Ry     beta= 0.05
     Davidson diagonalization with overlap
     c_bands:  2 eigenvalues not converged
     c_bands:  1 eigenvalues not converged
     ethr =  4.57E-06,  avg # of iterations = 11.2

     total cpu time spent up to now is       31.4 secs

     total energy              =    -287.03462221 Ry
     estimated scf accuracy    <       0.00548102 Ry

     iteration #  4     ecut=    40.00 Ry     beta= 0.05
     Davidson diagonalization with overlap
     ethr =  4.57E-06,  avg # of iterations =  2.5

     total cpu time spent up to now is       31.8 secs

     total energy              =    -287.03210851 Ry
     estimated scf accuracy    <       0.00654840 Ry

     iteration #  5     ecut=    40.00 Ry     beta= 0.05
     Davidson diagonalization with overlap
     ethr =  4.57E-06,  avg # of iterations =  2.0

     total cpu time spent up to now is       32.3 secs

     total energy              =    -287.03267542 Ry
     estimated scf accuracy    <       0.00034429 Ry

     iteration #  6     ecut=    40.00 Ry     beta= 0.05
     Davidson diagonalization with overlap
     ethr =  3.59E-07,  avg # of iterations =  3.6

     total cpu time spent up to now is       33.0 secs

     total energy              =    -287.03274310 Ry
     estimated scf accuracy    <       0.00038133 Ry

     iteration #  7     ecut=    40.00 Ry     beta= 0.05
     Davidson diagonalization with overlap
     ethr =  3.59E-07,  avg # of iterations =  1.2

     total cpu time spent up to now is       33.4 secs

     total energy              =    -287.03271109 Ry
     estimated scf accuracy    <       0.00018509 Ry

     iteration #  8     ecut=    40.00 Ry     beta= 0.05
     Davidson diagonalization with overlap
     ethr =  1.93E-07,  avg # of iterations =  1.9

     total cpu time spent up to now is       33.8 secs

     total energy              =    -287.03272299 Ry
     estimated scf accuracy    <       0.00004229 Ry

     iteration #  9     ecut=    40.00 Ry     beta= 0.05
     Davidson diagonalization with overlap
     ethr =  4.40E-08,  avg # of iterations =  4.2

     total cpu time spent up to now is       34.4 secs

     total energy              =    -287.03272573 Ry
     estimated scf accuracy    <       0.00004024 Ry

     iteration # 10     ecut=    40.00 Ry     beta= 0.05
     Davidson diagonalization with overlap
     ethr =  4.19E-08,  avg # of iterations =  1.0

     total cpu time spent up to now is       34.8 secs

     total energy              =    -287.03272414 Ry
     estimated scf accuracy    <       0.00001457 Ry

     iteration # 11     ecut=    40.00 Ry     beta= 0.05
     Davidson diagonalization with overlap
     ethr =  1.52E-08,  avg # of iterations =  2.3

     total cpu time spent up to now is       35.3 secs

     total energy              =    -287.03272864 Ry
     estimated scf accuracy    <       0.00000653 Ry

     iteration # 12     ecut=    40.00 Ry     beta= 0.05
     Davidson diagonalization with overlap
     ethr =  6.80E-09,  avg # of iterations =  1.7

     total cpu time spent up to now is       35.7 secs

     total energy              =    -287.03272772 Ry
     estimated scf accuracy    <       0.00000735 Ry

     iteration # 13     ecut=    40.00 Ry     beta= 0.05
     Davidson diagonalization with overlap
     ethr =  6.80E-09,  avg # of iterations =  1.0

     total cpu time spent up to now is       36.1 secs

     total energy              =    -287.03272769 Ry
     estimated scf accuracy    <       0.00000414 Ry

     iteration # 14     ecut=    40.00 Ry     beta= 0.05
     Davidson diagonalization with overlap
     ethr =  4.32E-09,  avg # of iterations =  1.8

     total cpu time spent up to now is       36.5 secs

     total energy              =    -287.03272838 Ry
     estimated scf accuracy    <       0.00000153 Ry

     iteration # 15     ecut=    40.00 Ry     beta= 0.05
     Davidson diagonalization with overlap
     ethr =  1.60E-09,  avg # of iterations =  1.4

     total cpu time spent up to now is       36.9 secs

     total energy              =    -287.03272864 Ry
     estimated scf accuracy    <       0.00000155 Ry

     iteration # 16     ecut=    40.00 Ry     beta= 0.05
     Davidson diagonalization with overlap
     ethr =  1.60E-09,  avg # of iterations =  1.0

     total cpu time spent up to now is       37.2 secs

     total energy              =    -287.03272894 Ry
     estimated scf accuracy    <       0.00000146 Ry

     iteration # 17     ecut=    40.00 Ry     beta= 0.05
     Davidson diagonalization with overlap
     ethr =  1.52E-09,  avg # of iterations =  1.0

     total cpu time spent up to now is       37.6 secs

     total energy              =    -287.03272976 Ry
     estimated scf accuracy    <       0.00000146 Ry

     iteration # 18     ecut=    40.00 Ry     beta= 0.05
     Davidson diagonalization with overlap
     ethr =  1.52E-09,  avg # of iterations =  1.0

     total cpu time spent up to now is       37.9 secs

     total energy              =    -287.03273010 Ry
     estimated scf accuracy    <       0.00000221 Ry

     iteration # 19     ecut=    40.00 Ry     beta= 0.05
     Davidson diagonalization with overlap
     ethr =  1.52E-09,  avg # of iterations =  1.0

     total cpu time spent up to now is       38.3 secs

     total energy              =    -287.03273023 Ry
     estimated scf accuracy    <       0.00000237 Ry

     iteration # 20     ecut=    40.00 Ry     beta= 0.05
     Davidson diagonalization with overlap
     ethr =  1.52E-09,  avg # of iterations =  1.0

     total cpu time spent up to now is       38.7 secs

     total energy              =    -287.03272916 Ry
     estimated scf accuracy    <       0.00000228 Ry

     iteration # 21     ecut=    40.00 Ry     beta= 0.05
     Davidson diagonalization with overlap
     ethr =  1.52E-09,  avg # of iterations =  2.0

     total cpu time spent up to now is       39.2 secs

     total energy              =    -287.03272977 Ry
     estimated scf accuracy    <       0.00000085 Ry

     iteration # 22     ecut=    40.00 Ry     beta= 0.05
     Davidson diagonalization with overlap
     ethr =  8.85E-10,  avg # of iterations =  1.9

     total cpu time spent up to now is       39.6 secs

     total energy              =    -287.03272971 Ry
     estimated scf accuracy    <       0.00000081 Ry

     iteration # 23     ecut=    40.00 Ry     beta= 0.05
     Davidson diagonalization with overlap
     ethr =  8.46E-10,  avg # of iterations =  1.0

     total cpu time spent up to now is       40.0 secs

     total energy              =    -287.03272981 Ry
     estimated scf accuracy    <       0.00000023 Ry

     iteration # 24     ecut=    40.00 Ry     beta= 0.05
     Davidson diagonalization with overlap
     ethr =  2.38E-10,  avg # of iterations =  2.0

     total cpu time spent up to now is       40.4 secs

     total energy              =    -287.03272994 Ry
     estimated scf accuracy    <       0.00000012 Ry

     iteration # 25     ecut=    40.00 Ry     beta= 0.05
     Davidson diagonalization with overlap
     ethr =  1.23E-10,  avg # of iterations =  1.0

     total cpu time spent up to now is       40.8 secs

     total energy              =    -287.03273005 Ry
     estimated scf accuracy    <       0.00000012 Ry

     iteration # 26     ecut=    40.00 Ry     beta= 0.05
     Davidson diagonalization with overlap
     ethr =  1.23E-10,  avg # of iterations =  1.0

     total cpu time spent up to now is       41.1 secs

     total energy              =    -287.03273014 Ry
     estimated scf accuracy    <       0.00000017 Ry

     iteration # 27     ecut=    40.00 Ry     beta= 0.05
     Davidson diagonalization with overlap
     ethr =  1.23E-10,  avg # of iterations =  1.0

     total cpu time spent up to now is       41.5 secs

     total energy              =    -287.03273024 Ry
     estimated scf accuracy    <       0.00000018 Ry

     iteration # 28     ecut=    40.00 Ry     beta= 0.05
     Davidson diagonalization with overlap
     ethr =  1.23E-10,  avg # of iterations =  1.0

     total cpu time spent up to now is       41.8 secs

     total energy              =    -287.03273032 Ry
     estimated scf accuracy    <       0.00000020 Ry

     iteration # 29     ecut=    40.00 Ry     beta= 0.05
     Davidson diagonalization with overlap
     ethr =  1.23E-10,  avg # of iterations =  1.0

     total cpu time spent up to now is       42.2 secs

     total energy              =    -287.03273033 Ry
     estimated scf accuracy    <       0.00000022 Ry

     iteration # 30     ecut=    40.00 Ry     beta= 0.05
     Davidson diagonalization with overlap
     ethr =  1.23E-10,  avg # of iterations =  2.1

     total cpu time spent up to now is       42.7 secs

     End of self-consistent calculation

          k = 0.0739 0.1281 0.1202 (  3768 PWs)   bands (ev):

   -11.1296 -10.8105 -10.4450  -6.5157  -6.5157  -6.2678  -6.2678  -5.9934
    -5.9934  -5.2746  -5.0992  -4.9234  -4.5916  -4.4522  -4.3167  -3.5263
    -3.5263  -3.3283  -3.3283  -3.1133  -3.1133  -0.4439   0.9859   1.9139
     2.0009   2.0896   2.4271   2.4271   2.5024   2.5024   2.5782   2.5782
     2.7312   4.9393   4.9394   5.7141   5.7557   5.7998   5.8375   5.9183
     5.9546   5.9947   6.0058   6.0058   6.6436   7.1690   7.1691   7.5125
    10.0586  10.6637  10.6637  10.9691  11.5989  11.5989  11.8428  12.6829
    12.6829  14.8955

          k = 0.0739 0.2988 0.1202 (  3791 PWs)   bands (ev):

   -10.6910 -10.3787 -10.0219  -8.1032  -7.8303  -7.5248  -7.0979  -6.8399
    -6.5545  -5.6420  -5.4094  -5.1554  -3.6259  -3.4337  -3.2240  -2.2624
    -2.0843  -1.8931  -1.3210  -1.1537  -0.9750   0.0995   0.5779   0.6950
     0.8185   1.5094   1.5775   1.6759   1.7790   2.8642   2.9368   3.0104
     3.2289   3.2302   4.2624   4.3356   4.3950   4.4090   4.4894   5.0783
     5.1304   5.1831   5.5728   5.9043   5.9897   6.8703   6.9378   7.8900
    10.2568  11.0727  11.5933  11.9194  12.4571  12.8616  13.4296  13.7482
    14.7638  15.3689

          k = 0.0739 0.4696 0.1202 (  3798 PWs)   bands (ev):

    -9.9063  -9.6061  -9.3869  -9.2652  -9.0946  -8.7641  -7.3506  -7.0896
    -6.7992  -5.8808  -5.6429  -5.3822  -2.2678  -2.1144  -1.9550  -0.9872
    -0.8533  -0.8328  -0.7176  -0.7156  -0.5909   0.4328   0.5329   0.6401
     1.0065   1.0647   1.1360   1.2731   1.7011   2.1597   2.2616   2.3869
     2.4484   3.0452   3.6096   3.6774   3.7461   4.0716   4.1106   4.1374
     4.1417   4.2028   4.6770   5.3597   5.8184   6.8030   6.9050   8.1414
    10.5421  11.2879  12.1135  12.3277  13.0324  13.8159  15.5597  16.2023
    16.2506  16.8046

          k = 0.0739-0.3842 0.1202 (  3797 PWs)   bands (ev):

   -10.3415 -10.0345  -9.6848  -8.7851  -8.5018  -8.1833  -7.2661  -7.0064
    -6.7173  -5.7997  -5.5641  -5.3049  -2.9211  -2.7397  -2.5453  -1.5845
    -1.4213  -1.2482  -0.1869  -0.1623  -0.0585  -0.0135   0.0784   0.1454
     0.5308   0.9679   1.0767   1.1925   1.9240   2.4245   3.2027   3.2601
     3.2728   3.3444   3.3522   3.4445   3.6278   3.7347   4.2275   4.5721
     4.6312   4.6908   5.3124   5.4322   5.8532   6.8504   6.9005   8.0543
[...]
     1.7999   1.8487   1.8940   2.0593   2.0593   2.7620   2.7920   2.8234
     2.8601   3.1140   3.1140   4.3703   4.3703   6.2302   6.8219   7.3839
     8.5772   9.0659   9.4657  12.7622  12.7622  13.2933  13.2933  13.8728
    13.8728  14.2872

          k = 0.2175 0.5442 0.1140 (  5479 PWs)   bands (ev):

   -10.3158 -10.0904  -9.8450  -9.8180  -9.5990  -9.3611  -9.3242  -9.1115
    -8.8812  -5.2220  -5.0806  -4.9378  -4.2369  -4.1404  -4.0378  -2.6204
    -2.5479  -2.4632  -0.5842  -0.5082  -0.4323  -0.0309   0.0513   0.1359
     0.7707   0.8434   0.8966   0.9465   0.9556   1.0078   1.0698   1.3721
     1.6467   1.7009   1.7600   1.8837   1.9649   2.1804   2.2229   2.2685
     2.4601   3.0257   3.2254   3.7647   4.2922   6.5331   7.1986   7.7925
     8.2081   8.7074   9.2902  13.0659  13.5215  13.9296  14.0218  14.3861
    14.7615  14.8842

          k = 0.2175-0.2930 0.1140 (  5495 PWs)   bands (ev):

   -11.0685 -10.8336 -10.5765  -9.0774  -8.8678  -8.6411  -8.5900  -8.3868
    -8.1675  -5.8550  -5.7047  -5.5526  -4.6430  -4.5266  -4.3934  -2.1347
    -2.0175  -1.8945  -1.6726  -1.5582  -1.4381  -1.1986  -1.1033  -1.0021
    -0.1439   0.8559   0.9245   0.9967   1.0008   1.5912   1.6496   1.7111
     2.2472   2.3877   2.5080   2.5560   2.6034   2.8206   3.2892   3.4072
     3.4403   3.4762   3.8316   4.5245   5.0190   5.6919   6.3503   6.9825
     8.9180   9.4179   9.8837  11.5939  12.1917  12.2719  12.8535  12.8845
    13.5684  13.8978

          k = 0.2175-0.1256 0.1140 (  5484 PWs)   bands (ev):

   -11.4896 -11.2493 -10.9857  -8.5068  -8.3046  -8.0865  -7.0840  -7.0840
    -6.9020  -6.9020  -6.7075  -6.7075  -4.1866  -4.1866  -4.0452  -4.0452
    -3.8946  -3.8946  -2.8412  -2.7105  -2.5725  -0.6595   0.4177   0.4177
     0.4912   0.4913   0.5023   0.5683   0.5683   1.8336   1.8835   1.9144
     1.9360   2.8927   3.5911   3.6371   3.6849   3.8870   4.2469   4.2809
     4.3167   4.4458   4.4458   5.0414   5.2862   5.2862   6.1791   6.1791
     9.6149   9.6150  10.2361  10.2361  10.9681  10.9681  11.1147  11.8134
    12.6324  13.4122

          k = 0.3625 0.6279 0.1140 (  5480 PWs)   bands (ev):

   -10.2324 -10.2324 -10.0081 -10.0081  -9.7639  -9.7639  -8.7534  -8.5481
    -8.3264  -5.9608  -5.7966  -5.6226  -3.6551  -3.5631  -3.4724  -2.2955
    -2.2352  -2.1653  -1.2075  -1.1367  -1.0673   0.1032   0.1532   0.2092
     0.5181   0.5181   0.6005   0.6005   0.6868   0.6868   0.8738   0.8738
     1.9797   1.9797   2.3900   2.3900   2.4406   2.4406   2.4935   2.4935
     2.6424   3.3145   3.3145   3.6698   4.8865   5.7971   6.5888   7.4331
     8.7387   9.2835   9.8908  12.1412  12.6109  13.1264  14.6767  14.6767
    14.9143  14.9146

          k = 0.3625-0.2093 0.1140 (  5499 PWs)   bands (ev):

   -10.8167 -10.5850 -10.3318  -9.8173  -9.5983  -9.3603  -7.3966  -7.3966
    -7.2095  -7.2095  -7.0089  -7.0089  -2.8981  -2.8981  -2.7838  -2.7838
    -2.6655  -2.6655  -0.8600  -0.8600  -0.7776  -0.7776  -0.6881  -0.6881
    -0.6063  -0.5028  -0.3942   0.1628   1.2952   1.3687   1.6292   1.7049
     1.7812   2.4540   2.4694   2.5166   2.5663   2.6705   3.3302   3.3724
     3.4170   3.7549   4.2024   4.2024   5.1264   5.1264   6.1801   6.1801
    10.2141  10.2141  10.7560  10.7561  11.3506  11.3507  13.6038  14.1744
    14.1839  14.8280

     the Fermi energy is     8.0003 ev

!    total energy              =    -287.17900645 Ry
     estimated scf accuracy    <          8.7E-09 Ry
     smearing contrib. (-TS)   =      -0.00012165 Ry
     internal energy E=F+TS    =    -287.17888480 Ry

     The total energy is F=E-TS. E is the sum of the following terms:
     one-electron contribution =     -33.44426331 Ry
     hartree contribution      =      68.97616364 Ry
     xc contribution           =    -100.02259442 Ry
     ewald contribution        =    -222.68819071 Ry

     convergence has been achieved in  26 iterations

     Forces acting on atoms (cartesian axes, Ry/au):

     atom    1 type  1   force =    -0.00000000   -0.00000000   -0.00004842
     atom    2 type  1   force =     0.00000000   -0.00000000   -0.00000000
     atom    3 type  1   force =    -0.00000000    0.00000000    0.00004842
     atom    4 type  1   force =    -0.00000000   -0.00000049   -0.00010627
     atom    5 type  1   force =    -0.00000006   -0.00000004   -0.00000000
     atom    6 type  1   force =    -0.00000000   -0.00000049    0.00010627
     atom    7 type  1   force =    -0.00000000    0.00000045   -0.00004863
     atom    8 type  1   force =    -0.00000000    0.00000011    0.00000000
     atom    9 type  1   force =    -0.00000000    0.00000045    0.00004863
     atom   10 type  1   force =    -0.00000000    0.00000000   -0.00010640
     atom   11 type  1   force =     0.00000006   -0.00000004   -0.00000000
     atom   12 type  1   force =    -0.00000000   -0.00000000    0.00010640
     atom   13 type  1   force =    -0.00000039   -0.00000023   -0.00004863
     atom   14 type  1   force =    -0.00000009   -0.00000005    0.00000000
     atom   15 type  1   force =    -0.00000039   -0.00000023    0.00004863
     atom   16 type  1   force =    -0.00000042    0.00000024   -0.00010627
     atom   17 type  1   force =    -0.00000000    0.00000000    0.00000000
     atom   18 type  1   force =    -0.00000042    0.00000024    0.00010627
     atom   19 type  1   force =     0.00000039   -0.00000023   -0.00004863
     atom   20 type  1   force =     0.00000009   -0.00000005   -0.00000000
     atom   21 type  1   force =     0.00000039   -0.00000023    0.00004863
     atom   22 type  1   force =     0.00000042    0.00000024   -0.00010627
     atom   23 type  1   force =    -0.00000000    0.00000007    0.00000000
     atom   24 type  1   force =     0.00000042    0.00000024    0.00010627
     The non-local contrib.  to forces
     atom    1 type  1   force =    -0.00000000   -0.00000000    0.00186404
     atom    2 type  1   force =     0.00000000    0.00000000    0.00000000
     atom    3 type  1   force =     0.00000000    0.00000000   -0.00186404
     atom    4 type  1   force =    -0.00000000   -0.00000017    0.00129764
     atom    5 type  1   force =    -0.00000024   -0.00000014   -0.00000000
     atom    6 type  1   force =    -0.00000000   -0.00000017   -0.00129764
     atom    7 type  1   force =    -0.00000000    0.00000012    0.00186431
     atom    8 type  1   force =    -0.00000000   -0.00000002   -0.00000000
     atom    9 type  1   force =    -0.00000000    0.00000012   -0.00186431
     atom   10 type  1   force =    -0.00000000   -0.00000000    0.00129750
     atom   11 type  1   force =     0.00000024   -0.00000014   -0.00000000
     atom   12 type  1   force =     0.00000000    0.00000000   -0.00129750
     atom   13 type  1   force =    -0.00000011   -0.00000006    0.00186431
     atom   14 type  1   force =     0.00000002    0.00000001    0.00000000
     atom   15 type  1   force =    -0.00000011   -0.00000006   -0.00186431
     atom   16 type  1   force =    -0.00000015    0.00000009    0.00129764
     atom   17 type  1   force =     0.00000000    0.00000000    0.00000000
     atom   18 type  1   force =    -0.00000015    0.00000009   -0.00129764
     atom   19 type  1   force =     0.00000011   -0.00000006    0.00186431
     atom   20 type  1   force =    -0.00000002    0.00000001    0.00000000
     atom   21 type  1   force =     0.00000011   -0.00000006   -0.00186431
     atom   22 type  1   force =     0.00000015    0.00000009    0.00129764
     atom   23 type  1   force =    -0.00000000    0.00000027    0.00000000
     atom   24 type  1   force =     0.00000015    0.00000009   -0.00129764
     The ionic contribution  to forces
     atom    1 type  1   force =    -0.00001753   -0.00001014   -1.01795301
     atom    2 type  1   force =    -0.00000003   -0.00002025   -0.00004404
     atom    3 type  1   force =    -0.00001753   -0.00001014    1.01799706
     atom    4 type  1   force =     0.00001756    0.00001012   -1.02774738
     atom    5 type  1   force =    -0.00000003    0.00002028   -0.00004371
     atom    6 type  1   force =     0.00001756    0.00001012    1.02779109
     atom    7 type  1   force =    -0.00001753   -0.00001014   -1.01795306
     atom    8 type  1   force =    -0.00000003   -0.00002025   -0.00004404
     atom    9 type  1   force =    -0.00001753   -0.00001014    1.01799710
     atom   10 type  1   force =     0.00001756    0.00001012   -1.02774725
     atom   11 type  1   force =    -0.00000003    0.00002028   -0.00004371
     atom   12 type  1   force =     0.00001756    0.00001012    1.02779096
     atom   13 type  1   force =    -0.00001753   -0.00001014   -1.01795306
     atom   14 type  1   force =    -0.00000002   -0.00002025   -0.00004404
     atom   15 type  1   force =    -0.00001753   -0.00001014    1.01799710
     atom   16 type  1   force =     0.00001756    0.00001012   -1.02774738
     atom   17 type  1   force =    -0.00000003    0.00002028   -0.00004371
     atom   18 type  1   force =     0.00001756    0.00001012    1.02779109
     atom   19 type  1   force =    -0.00001753   -0.00001014   -1.01795306
     atom   20 type  1   force =    -0.00000003   -0.00002025   -0.00004404
     atom   21 type  1   force =    -0.00001753   -0.00001014    1.01799710
     atom   22 type  1   force =     0.00001756    0.00001012   -1.02774738
     atom   23 type  1   force =    -0.00000003    0.00002029   -0.00004371
     atom   24 type  1   force =     0.00001756    0.00001012    1.02779109
     The local contribution  to forces
     atom    1 type  1   force =     0.00000000   -0.00000000    1.01627835
     atom    2 type  1   force =    -0.00000000    0.00000000   -0.00000000
     atom    3 type  1   force =    -0.00000000   -0.00000000   -1.01604909
     atom    4 type  1   force =     0.00001307    0.00000736    1.02648020
     atom    5 type  1   force =     0.00000016    0.00001525   -0.00000000
     atom    6 type  1   force =     0.00001307    0.00000736   -1.02625126
     atom    7 type  1   force =     0.00000000    0.00000058    1.01627773
     atom    8 type  1   force =     0.00000000    0.00000005   -0.00000000
     atom    9 type  1   force =     0.00000000    0.00000058   -1.01604847
     atom   10 type  1   force =     0.00001307    0.00000755    1.02647987
     atom   11 type  1   force =    -0.00000016    0.00001525   -0.00000000
     atom   12 type  1   force =     0.00001307    0.00000755   -1.02625093
     atom   13 type  1   force =    -0.00000050   -0.00000029    1.01627773
     atom   14 type  1   force =    -0.00000004   -0.00000003   -0.00000000
     atom   15 type  1   force =    -0.00000050   -0.00000029   -1.01604847
     atom   16 type  1   force =     0.00001291    0.00000764    1.02648020
     atom   17 type  1   force =     0.00000000    0.00001515   -0.00000000
     atom   18 type  1   force =     0.00001291    0.00000764   -1.02625126
     atom   19 type  1   force =     0.00000050   -0.00000029    1.01627773
     atom   20 type  1   force =     0.00000004   -0.00000003   -0.00000000
     atom   21 type  1   force =     0.00000050   -0.00000029   -1.01604847
     atom   22 type  1   force =     0.00001322    0.00000764    1.02648020
     atom   23 type  1   force =    -0.00000000    0.00001496   -0.00000000
     atom   24 type  1   force =     0.00001322    0.00000764   -1.02625126
     The core correction contribution to forces
     atom    1 type  1   force =     0.00000000    0.00000000   -0.00008480
     atom    2 type  1   force =    -0.00000000    0.00000000   -0.00000000
     atom    3 type  1   force =     0.00000000    0.00000000    0.00008637
     atom    4 type  1   force =    -0.00000038   -0.00000021    0.00001507
     atom    5 type  1   force =     0.00000001   -0.00000043   -0.00000000
     atom    6 type  1   force =    -0.00000038   -0.00000021   -0.00001357
     atom    7 type  1   force =     0.00000000   -0.00000000   -0.00008481
     atom    8 type  1   force =    -0.00000000    0.00000000   -0.00000000
     atom    9 type  1   force =     0.00000000   -0.00000000    0.00008638
     atom   10 type  1   force =    -0.00000038   -0.00000022    0.00001507
     atom   11 type  1   force =    -0.00000001   -0.00000043   -0.00000000
     atom   12 type  1   force =    -0.00000038   -0.00000022   -0.00001357
     atom   13 type  1   force =     0.00000000    0.00000000   -0.00008481
     atom   14 type  1   force =    -0.00000000   -0.00000000   -0.00000000
     atom   15 type  1   force =     0.00000000    0.00000000    0.00008638
     atom   16 type  1   force =    -0.00000037   -0.00000022    0.00001507
     atom   17 type  1   force =    -0.00000000   -0.00000043   -0.00000000
     atom   18 type  1   force =    -0.00000037   -0.00000022   -0.00001357
     atom   19 type  1   force =    -0.00000000    0.00000000   -0.00008481
     atom   20 type  1   force =     0.00000000   -0.00000000   -0.00000000
     atom   21 type  1   force =    -0.00000000    0.00000000    0.00008638
     atom   22 type  1   force =    -0.00000038   -0.00000022    0.00001507
     atom   23 type  1   force =    -0.00000000   -0.00000044   -0.00000000
     atom   24 type  1   force =    -0.00000038   -0.00000022   -0.00001357
     The Hubbard contrib.    to forces
     atom    1 type  1   force =     0.00000000    0.00000000    0.00000000
     atom    2 type  1   force =     0.00000000    0.00000000    0.00000000
     atom    3 type  1   force =     0.00000000    0.00000000    0.00000000
     atom    4 type  1   force =     0.00000000    0.00000000    0.00000000
     atom    5 type  1   force =     0.00000000    0.00000000    0.00000000
     atom    6 type  1   force =     0.00000000    0.00000000    0.00000000
     atom    7 type  1   force =     0.00000000    0.00000000    0.00000000
     atom    8 type  1   force =     0.00000000    0.00000000    0.00000000
     atom    9 type  1   force =     0.00000000    0.00000000    0.00000000
     atom   10 type  1   force =     0.00000000    0.00000000    0.00000000
     atom   11 type  1   force =     0.00000000    0.00000000    0.00000000
     atom   12 type  1   force =     0.00000000    0.00000000    0.00000000
     atom   13 type  1   force =     0.00000000    0.00000000    0.00000000
     atom   14 type  1   force =     0.00000000    0.00000000    0.00000000
     atom   15 type  1   force =     0.00000000    0.00000000    0.00000000
     atom   16 type  1   force =     0.00000000    0.00000000    0.00000000
     atom   17 type  1   force =     0.00000000    0.00000000    0.00000000
     atom   18 type  1   force =     0.00000000    0.00000000    0.00000000
     atom   19 type  1   force =     0.00000000    0.00000000    0.00000000
     atom   20 type  1   force =     0.00000000    0.00000000    0.00000000
     atom   21 type  1   force =     0.00000000    0.00000000    0.00000000
     atom   22 type  1   force =     0.00000000    0.00000000    0.00000000
     atom   23 type  1   force =     0.00000000    0.00000000    0.00000000
     atom   24 type  1   force =     0.00000000    0.00000000    0.00000000
     The SCF correction term to forces
     atom    1 type  1   force =     0.00000000    0.00000000   -0.00002076
     atom    2 type  1   force =     0.00000000    0.00000000    0.00001134
     atom    3 type  1   force =     0.00000000    0.00000000    0.00001037
     atom    4 type  1   force =     0.00000000    0.00000000   -0.00001994
     atom    5 type  1   force =     0.00000000    0.00000000    0.00001134
     atom    6 type  1   force =     0.00000000    0.00000000    0.00000953
     atom    7 type  1   force =     0.00000000    0.00000000   -0.00002055
     atom    8 type  1   force =     0.00000000    0.00000000    0.00001134
     atom    9 type  1   force =     0.00000000    0.00000000    0.00001017
     atom   10 type  1   force =     0.00000000    0.00000000   -0.00001972
     atom   11 type  1   force =     0.00000000    0.00000000    0.00001134
     atom   12 type  1   force =     0.00000000    0.00000000    0.00000931
     atom   13 type  1   force =     0.00000000    0.00000000   -0.00002055
     atom   14 type  1   force =     0.00000000    0.00000000    0.00001134
     atom   15 type  1   force =     0.00000000    0.00000000    0.00001017
     atom   16 type  1   force =     0.00000000    0.00000000   -0.00001994
     atom   17 type  1   force =     0.00000000    0.00000000    0.00001134
     atom   18 type  1   force =     0.00000000    0.00000000    0.00000953
     atom   19 type  1   force =     0.00000000    0.00000000   -0.00002055
     atom   20 type  1   force =     0.00000000    0.00000000    0.00001134
     atom   21 type  1   force =     0.00000000    0.00000000    0.00001017
     atom   22 type  1   force =     0.00000000    0.00000000   -0.00001994
     atom   23 type  1   force =     0.00000000    0.00000000    0.00001134
     atom   24 type  1   force =     0.00000000    0.00000000    0.00000953

     Total force =     0.000331     Total SCF correction =     0.000071
     SCF correction compared to forces is large: reduce conv_thr to get better values


     Computing stress (Cartesian axis) and pressure

          total   stress  (Ry/bohr**3)                   (kbar)     P=       61.58
   0.00046190  -0.00000000  -0.00000000           67.95       -0.00       -0.00
  -0.00000000   0.00046190   0.00000000           -0.00       67.95        0.00
   0.00000000   0.00000000   0.00033198            0.00        0.00       48.84


     Writing all to output data dir ../../results/server/graphene/graphene.save/
 
     init_run     :      0.87s CPU      1.06s WALL (       2 calls)
     electrons    :    144.54s CPU    154.89s WALL (      15 calls)
     update_pot   :      1.67s CPU      1.76s WALL (      13 calls)
     forces       :      2.17s CPU      2.41s WALL (      15 calls)
     stress       :     21.70s CPU     22.41s WALL (      15 calls)

     Called by init_run:
     wfcinit      :      0.49s CPU      0.55s WALL (       2 calls)
     potinit      :      0.08s CPU      0.09s WALL (       2 calls)
     hinit0       :      0.20s CPU      0.24s WALL (       2 calls)

     Called by electrons:
     c_bands      :    125.94s CPU    133.55s WALL (     287 calls)
     sum_band     :     16.03s CPU     17.40s WALL (     287 calls)
     v_of_rho     :      0.36s CPU      0.53s WALL (     300 calls)
     newd         :      1.51s CPU      1.71s WALL (     300 calls)
     mix_rho      :      0.46s CPU      0.79s WALL (     287 calls)

     Called by c_bands:
     init_us_2    :      1.02s CPU      1.18s WALL (    7272 calls)
     init_us_2:cp :      1.00s CPU      1.16s WALL (    7272 calls)
     cegterg      :    121.60s CPU    128.43s WALL (    3445 calls)

     Called by *egterg:
     cdiaghg      :     42.32s CPU     44.46s WALL (   12324 calls)
     h_psi        :     62.92s CPU     66.85s WALL (   12529 calls)
     s_psi        :      3.44s CPU      3.54s WALL (   12529 calls)
     g_psi        :      0.27s CPU      0.29s WALL (    9060 calls)

     Called by h_psi:
     h_psi:calbec :      4.84s CPU      5.37s WALL (   12529 calls)
     vloc_psi     :     54.00s CPU     57.10s WALL (   12529 calls)
     add_vuspsi   :      3.65s CPU      3.84s WALL (   12529 calls)

     General routines
     calbec       :      7.75s CPU      8.53s WALL (   16873 calls)
     fft          :      0.61s CPU      0.87s WALL (    1905 calls)
     ffts         :      0.05s CPU      0.08s WALL (     587 calls)
     fftw         :     52.34s CPU     55.32s WALL ( 1255160 calls)
     interpolate  :      0.11s CPU      0.16s WALL (     300 calls)
 
     Parallel routines
 
     PWSCF        :   2m51.28s CPU   3m 3.71s WALL

 
   This run was terminated on:  15:55:49   2Sep2024            

=------------------------------------------------------------------------------=
   JOB DONE.
=------------------------------------------------------------------------------=
