
     Program PWSCF v.7.2 starts on  3Sep2024 at 14:30:49 

     This program is part of the open-source Quantum ESPRESSO suite
     for quantum simulation of materials; please cite
         "P. Giannozzi et al., J. Phys.:Condens. Matter 21 395502 (2009);
         "P. Giannozzi et al., J. Phys.:Condens. Matter 29 465901 (2017);
         "P. Giannozzi et al., J. Chem. Phys. 152 154105 (2020);
          URL http://www.quantum-espresso.org", 
     in publications or presentations arising from this work. More details at
     http://www.quantum-espresso.org/quote

     Parallel version (MPI & OpenMP), running on      24 processor cores
     Number of MPI processes:                24
     Threads/MPI process:                     1

     MPI processes distributed on     1 nodes
     363804 MiB available memory on the printing compute node when the environment starts
 
     Reading input from graphene.in

     Current dimensions of program PWSCF are:
     Max number of different atomic species (ntypx) = 10
     Max number of k-points (npk) =  40000
     Max angular momentum in pseudopotentials (lmaxx) =  4

     IMPORTANT: XC functional enforced from input :
     Exchange-correlation= LDA
                           (   1   1   0   0   0   0   0)
     Any further DFT definition will be discarded
     Please, verify this is what you really want

     Found identity + ( -0.5000  0.0000  0.0000) symmetry
     This is a supercell, fractional translations are disabled
 
     R & G space division:  proc/nbgrp/npool/nimage =      24
     Subspace diagonalization in iterative solution of the eigenvalue problem:
     a serial algorithm will be used

 
     Parallelization info
     --------------------
     sticks:   dense  smooth     PW     G-vecs:    dense   smooth      PW
     Min          73      29      8                 4985     1257     206
     Max          74      30      9                 4996     1263     217
     Sum        1765     703    211               119753    30239    5093
 
     Using Slab Decomposition
 


     bravais-lattice index     =            4
     lattice parameter (alat)  =       8.0000  a.u.
     unit-cell volume          =     886.8115 (a.u.)^3
     number of atoms/cell      =           24
     number of atomic types    =            1
     number of electrons       =        96.00
     number of Kohn-Sham states=           58
     kinetic-energy cutoff     =      40.0000  Ry
     charge density cutoff     =     400.0000  Ry
     scf convergence threshold =      1.0E-06
     mixing beta               =       0.0500
     number of iterations used =            8  TF        mixing
     energy convergence thresh.=      1.0E-04
     force convergence thresh. =      1.0E-03
     press convergence thresh. =      5.0E-01
     Exchange-correlation= LDA
                           (   1   1   0   0   0   0   0)
     nstep                     =           50


     celldm(1)=   8.000004  celldm(2)=   0.000000  celldm(3)=   2.000000
     celldm(4)=   0.000000  celldm(5)=   0.000000  celldm(6)=   0.000000

     crystal axes: (cart. coord. in units of alat)
               a(1) = (   1.000000   0.000000   0.000000 )  
               a(2) = (  -0.500000   0.866025   0.000000 )  
               a(3) = (   0.000000   0.000000   2.000000 )  

     reciprocal axes: (cart. coord. in units 2 pi/alat)
               b(1) = (  1.000000  0.577350  0.000000 )  
               b(2) = (  0.000000  1.154701  0.000000 )  
               b(3) = (  0.000000  0.000000  0.500000 )  


     PseudoPot. # 1 for C  read from file:
     ../../potentials/C.pz-n-rrkjus_psl.0.1.UPF
     MD5 check sum: a3cecbabebb5b3a1aff122f23eb09bb0
     Pseudo is Ultrasoft + core correction, Zval =  4.0
     Generated using "atomic" code by A. Dal Corso  v.5.0.2 svn rev. 9415
     Using radial grid of 1073 points,  4 beta functions with: 
                l(1) =   0
                l(2) =   0
                l(3) =   1
                l(4) =   1
     Q(r) pseudized with 0 coefficients 


     atomic species   valence    mass     pseudopotential
        C              4.00    12.01100     C ( 1.00)

     12 Sym. Ops. (no inversion) found



   Cartesian axes

     site n.     atom                  positions (alat units)
         1           C   tau(   1) = (   0.0000000   0.0000000   0.3333320  )
         2           C   tau(   2) = (   0.0000000   0.0000000   1.0000000  )
         3           C   tau(   3) = (   0.0000000   0.0000000   1.6666660  )
         4           C   tau(   4) = (  -0.0000005   0.2886748   0.3333320  )
         5           C   tau(   5) = (   0.2500000   0.1443370   1.0000000  )
         6           C   tau(   6) = (  -0.0000005   0.2886748   1.6666660  )
         7           C   tau(   7) = (   0.5000000   0.0000000   0.3333320  )
         8           C   tau(   8) = (   0.5000000   0.0000000   1.0000000  )
         9           C   tau(   9) = (   0.5000000   0.0000000   1.6666660  )
        10           C   tau(  10) = (   0.4999995   0.2886748   0.3333320  )
        11           C   tau(  11) = (   0.7500000   0.1443370   1.0000000  )
        12           C   tau(  12) = (   0.4999995   0.2886748   1.6666660  )
        13           C   tau(  13) = (  -0.2500000   0.4330127   0.3333320  )
        14           C   tau(  14) = (  -0.2500000   0.4330127   1.0000000  )
        15           C   tau(  15) = (  -0.2500000   0.4330127   1.6666660  )
        16           C   tau(  16) = (  -0.2500005   0.7216875   0.3333320  )
        17           C   tau(  17) = (   0.0000000   0.5773497   1.0000000  )
        18           C   tau(  18) = (  -0.2500005   0.7216875   1.6666660  )
        19           C   tau(  19) = (   0.2500000   0.4330127   0.3333320  )
        20           C   tau(  20) = (   0.2500000   0.4330127   1.0000000  )
        21           C   tau(  21) = (   0.2500000   0.4330127   1.6666660  )
        22           C   tau(  22) = (   0.2499995   0.7216875   0.3333320  )
        23           C   tau(  23) = (   0.5000000   0.5773497   1.0000000  )
        24           C   tau(  24) = (   0.2499995   0.7216875   1.6666660  )

     number of k points=    12  Gaussian smearing, width (Ry)=  0.0100
                       cart. coord. in units 2pi/alat
        k(    1) = (   0.0833333   0.1443376   0.1250000), wk =   0.1111111
        k(    2) = (   0.0833333   0.3367877   0.1250000), wk =   0.2222222
        k(    3) = (   0.0833333   0.5292377   0.1250000), wk =   0.2222222
        k(    4) = (   0.0833333  -0.4330127   0.1250000), wk =   0.2222222
        k(    5) = (   0.0833333  -0.2405626   0.1250000), wk =   0.2222222
        k(    6) = (   0.0833333  -0.0481125   0.1250000), wk =   0.1111111
        k(    7) = (   0.2500000   0.4330127   0.1250000), wk =   0.1111111
        k(    8) = (   0.2500000   0.6254628   0.1250000), wk =   0.2222222
        k(    9) = (   0.2500000  -0.3367877   0.1250000), wk =   0.2222222
        k(   10) = (   0.2500000  -0.1443376   0.1250000), wk =   0.1111111
        k(   11) = (   0.4166667   0.7216878   0.1250000), wk =   0.1111111
        k(   12) = (   0.4166667  -0.2405626   0.1250000), wk =   0.1111111

     Dense  grid:   119753 G-vectors     FFT dimensions: (  54,  54, 108)

     Smooth grid:    30239 G-vectors     FFT dimensions: (  36,  36,  72)

     Estimated max dynamical RAM per process >      14.90 MB

     Estimated total dynamical RAM >     357.64 MB

     Check: negative core charge=   -0.000002

     Initial potential from superposition of free atoms

     starting charge      95.9992, renormalised to      96.0000
     Starting wfcs are   96 randomized atomic wfcs

     total cpu time spent up to now is        0.8 secs

     Self-consistent Calculation

     iteration #  1     ecut=    40.00 Ry     beta= 0.05
     Davidson diagonalization with overlap
     ethr =  1.00E-02,  avg # of iterations =  5.7

     total cpu time spent up to now is        1.6 secs

     total energy              =    -286.82241986 Ry
     estimated scf accuracy    <       5.61261691 Ry

     iteration #  2     ecut=    40.00 Ry     beta= 0.05
     Davidson diagonalization with overlap
     ethr =  5.85E-03,  avg # of iterations =  1.1

     total cpu time spent up to now is        2.0 secs

     total energy              =    -285.36777212 Ry
     estimated scf accuracy    <       5.57123812 Ry

     iteration #  3     ecut=    40.00 Ry     beta= 0.05
     Davidson diagonalization with overlap
     ethr =  5.80E-03,  avg # of iterations =  1.0

     total cpu time spent up to now is        2.3 secs

     total energy              =    -283.30717597 Ry
     estimated scf accuracy    <       3.11522160 Ry

     iteration #  4     ecut=    40.00 Ry     beta= 0.05
     Davidson diagonalization with overlap
     ethr =  3.25E-03,  avg # of iterations =  3.2

     total cpu time spent up to now is        2.9 secs

     total energy              =    -285.01641501 Ry
     estimated scf accuracy    <       0.18392439 Ry

     iteration #  5     ecut=    40.00 Ry     beta= 0.05
     Davidson diagonalization with overlap
     ethr =  1.92E-04,  avg # of iterations =  7.2

     total cpu time spent up to now is        3.8 secs

     total energy              =    -283.52475139 Ry
     estimated scf accuracy    <       2.67719826 Ry

     iteration #  6     ecut=    40.00 Ry     beta= 0.05
     Davidson diagonalization with overlap
     ethr =  1.92E-04,  avg # of iterations =  7.2

     total cpu time spent up to now is        4.8 secs

     total energy              =    -283.94158000 Ry
     estimated scf accuracy    <       0.00628509 Ry

     iteration #  7     ecut=    40.00 Ry     beta= 0.05
     Davidson diagonalization with overlap
     c_bands:  1 eigenvalues not converged
     ethr =  6.55E-06,  avg # of iterations = 10.8

     total cpu time spent up to now is        5.9 secs

     total energy              =    -283.94894377 Ry
     estimated scf accuracy    <       0.00255109 Ry

     iteration #  8     ecut=    40.00 Ry     beta= 0.05
     Davidson diagonalization with overlap
     ethr =  2.66E-06,  avg # of iterations =  2.0

     total cpu time spent up to now is        6.4 secs

     total energy              =    -283.94777283 Ry
     estimated scf accuracy    <       0.00499723 Ry

     iteration #  9     ecut=    40.00 Ry     beta= 0.05
     Davidson diagonalization with overlap
     ethr =  2.66E-06,  avg # of iterations =  2.0

     total cpu time spent up to now is        6.8 secs

     total energy              =    -283.94823357 Ry
     estimated scf accuracy    <       0.00027005 Ry

     iteration # 10     ecut=    40.00 Ry     beta= 0.05
     Davidson diagonalization with overlap
     ethr =  2.81E-07,  avg # of iterations =  4.8

     total cpu time spent up to now is        7.5 secs

     total energy              =    -283.94816304 Ry
     estimated scf accuracy    <       0.00036393 Ry

     iteration # 11     ecut=    40.00 Ry     beta= 0.05
     Davidson diagonalization with overlap
     ethr =  2.81E-07,  avg # of iterations =  2.0

     total cpu time spent up to now is        7.9 secs

     total energy              =    -283.94819265 Ry
     estimated scf accuracy    <       0.00004494 Ry

     iteration # 12     ecut=    40.00 Ry     beta= 0.05
     Davidson diagonalization with overlap
     ethr =  4.68E-08,  avg # of iterations =  2.2

     total cpu time spent up to now is        8.3 secs

     total energy              =    -283.94819860 Ry
     estimated scf accuracy    <       0.00003025 Ry

     iteration # 13     ecut=    40.00 Ry     beta= 0.05
     Davidson diagonalization with overlap
     ethr =  3.15E-08,  avg # of iterations =  2.3

     total cpu time spent up to now is        8.8 secs

     total energy              =    -283.94820272 Ry
     estimated scf accuracy    <       0.00004147 Ry

     iteration # 14     ecut=    40.00 Ry     beta= 0.05
     Davidson diagonalization with overlap
     ethr =  3.15E-08,  avg # of iterations =  2.0

     total cpu time spent up to now is        9.2 secs

     total energy              =    -283.94819535 Ry
     estimated scf accuracy    <       0.00001822 Ry

     iteration # 15     ecut=    40.00 Ry     beta= 0.05
     Davidson diagonalization with overlap
     ethr =  1.90E-08,  avg # of iterations =  3.2

     total cpu time spent up to now is        9.8 secs

     total energy              =    -283.94820300 Ry
     estimated scf accuracy    <       0.00000469 Ry

     iteration # 16     ecut=    40.00 Ry     beta= 0.05
     Davidson diagonalization with overlap
     ethr =  4.89E-09,  avg # of iterations =  3.9

     total cpu time spent up to now is       10.4 secs

     total energy              =    -283.94820330 Ry
     estimated scf accuracy    <       0.00001235 Ry

     iteration # 17     ecut=    40.00 Ry     beta= 0.05
     Davidson diagonalization with overlap
     ethr =  4.89E-09,  avg # of iterations =  1.0

     total cpu time spent up to now is       10.7 secs

     total energy              =    -283.94819780 Ry
     estimated scf accuracy    <       0.00001048 Ry

     iteration # 18     ecut=    40.00 Ry     beta= 0.05
     Davidson diagonalization with overlap
     ethr =  4.89E-09,  avg # of iterations =  2.0

     total cpu time spent up to now is       11.1 secs

     total energy              =    -283.94819890 Ry
     estimated scf accuracy    <       0.00000124 Ry

     iteration # 19     ecut=    40.00 Ry     beta= 0.05
     Davidson diagonalization with overlap
     ethr =  1.29E-09,  avg # of iterations =  2.0

     total cpu time spent up to now is       11.5 secs

     total energy              =    -283.94819919 Ry
     estimated scf accuracy    <       0.00000115 Ry

     iteration # 20     ecut=    40.00 Ry     beta= 0.05
     Davidson diagonalization with overlap
     ethr =  1.20E-09,  avg # of iterations =  1.0

     total cpu time spent up to now is       11.9 secs

     total energy              =    -283.94819864 Ry
     estimated scf accuracy    <       0.00000117 Ry

     iteration # 21     ecut=    40.00 Ry     beta= 0.05
     Davidson diagonalization with overlap
     ethr =  1.20E-09,  avg # of iterations =  3.4

     total cpu time spent up to now is       12.4 secs

     End of self-consistent calculation

          k = 0.0833 0.1443 0.1250 (  3768 PWs)   bands (ev):

   -10.3025  -9.9402  -9.5203  -4.7653  -4.7653  -4.5128  -4.5128  -4.2378
    -4.2378  -3.3678  -3.2217  -3.0946  -2.3300  -2.1141  -1.9142  -1.0853
    -1.0853  -0.8729  -0.8729  -0.6497  -0.6497   0.5301   2.0669   3.9078
     4.8718   4.9485   5.0261   5.4597   5.4597   5.5241   5.5241   5.5892
     5.5893   7.6884   7.6884   8.8618   8.8618   8.9485   9.8143  10.0312
    10.0762  10.1027  10.1541  10.1541  10.2002  10.2411  10.2654  10.7305
    13.9093  14.8045  14.8045  14.9826  15.9208  15.9208  16.0853  17.2496
    17.2496  17.6752

          k = 0.0833 0.3368 0.1250 (  3791 PWs)   bands (ev):

    -9.7725  -9.4203  -9.0141  -6.6569  -6.3635  -6.0357  -5.4494  -5.1793
    -4.8814  -3.7080  -3.4796  -3.2358  -1.2246  -1.0143  -0.7944   0.4146
     0.5994   0.7926   1.2414   1.5489   1.7186   1.8948   2.7583   3.3608
     3.4746   3.5909   4.5299   4.5804   4.6223   4.7159   5.3750   6.0404
     6.1028   6.1666   6.7491   6.9347   8.2239   8.2901   8.3591   8.3762
     8.4216   8.9899   9.0261   9.0756   9.1202   9.7241  10.0539  11.1821
    14.4096  15.3797  16.2903  16.4155  17.3150  17.9717  18.2786  18.4863
    19.0245  20.2546

          k = 0.0833 0.5292 0.1250 (  3798 PWs)   bands (ev):

    -8.8257  -8.4913  -8.2000  -8.1094  -7.8773  -7.5111  -5.7488  -5.4722
    -5.1656  -3.9766  -3.7346  -3.4714   0.5419   0.7166   0.8981   1.4933
     1.6491   1.8107   2.1027   2.2537   2.4085   2.5090   2.9957   3.1228
     3.2534   3.3409   3.9841   4.3472   4.4594   4.6020   4.8425   5.7088
     5.8027   5.8614   5.9728   6.5482   6.5883   7.0379   7.0972   7.1569
     7.6603   7.7174   7.7737   7.9179   8.8423   9.4910  10.0350  11.4025
    15.1328  15.9546  16.8445  17.5468  18.3330  19.1874  19.3978  20.1327
    21.7957  22.6881

          k = 0.0833-0.4330 0.1250 (  3797 PWs)   bands (ev):

    -9.3505  -9.0063  -8.6110  -7.4758  -7.1668  -6.8186  -5.6487  -5.3742
    -5.0704  -3.8846  -3.6465  -3.3885  -0.3743  -0.1804   0.0223   1.2483
     1.4170   1.5922   1.8070   2.4452   2.5799   2.7187   2.9418   3.0904
     3.2422   3.3068   3.8036   3.9146   4.0276   4.3079   5.1122   5.7278
     6.4922   6.5541   6.6153   6.7051   7.0817   7.1684   7.2524   7.4255
     8.0217   8.3356   8.3893   8.4411   8.9000   9.5717  10.0519  11.3348
    14.8234  15.7212  16.6864  17.0405  17.9513  18.7748  18.9523  19.8401
    20.7239  21.1678

          k = 0.0833-0.2406 0.1250 (  3778 PWs)   bands (ev):

   -10.0902  -9.7320  -9.3175  -5.7490  -5.4737  -5.1691  -5.1534  -4.8904
    -4.6017  -3.4761  -3.2736  -3.0715  -1.9460  -1.7267  -1.5021  -0.3700
    -0.1705   0.0389   0.1964   0.3876   0.5878   0.8152   2.3441   4.1777
     4.1898   4.2837   4.3790   5.1040   5.1799   5.2567   5.6940   5.7578
     5.8222   6.5269   7.2683   7.8267   8.5118   9.0461   9.3013   9.3383
     9.3553   9.3968   9.6760   9.7205   9.7544   9.9289   9.9843  10.9578
    14.0717  15.1009  15.5033  16.1613  16.2351  16.5950  17.3440  17.8810
    17.9126  18.6637

          k = 0.0833-0.0481 0.1250 (  3763 PWs)   bands (ev):

   -10.4088 -10.0446  -9.6218  -4.2951  -4.0587  -3.8063  -3.7726  -3.7726
    -3.5678  -3.5678  -3.3639  -3.3639  -2.1855  -2.1855  -1.9607  -1.9607
    -1.7305  -1.7305  -1.7082  -1.4857  -1.2527   0.3874   1.9279   3.7724
     5.3415   5.3416   5.4062   5.4062   5.4717   5.4717   5.5452   5.6054
     5.6667   8.1619   8.6221   8.6221   9.2327   9.5641   9.5641  10.3629
    10.4205  10.4613  10.4860  10.4898  10.5253  10.5422  10.5423  10.5524
    13.9732  13.9733  14.2772  15.0672  15.0672  15.3876  16.2715  16.2715
    16.6858  17.5601

          k = 0.2500 0.4330 0.1250 (  3788 PWs)   bands (ev):

    -9.0354  -8.6970  -8.3097  -7.1681  -7.1681  -6.8648  -6.8648  -6.5241
    -6.5241  -2.1681  -2.0374  -1.9264  -1.3917  -1.1997  -1.0253   1.2836
     1.4415   1.6051   2.2295   3.0841   3.0841   3.2258   3.2258   3.3704
     3.3704   3.7161   4.7166   4.7166   5.3083   5.3084   5.3931   5.3931
     5.4846   5.4846   5.5082   6.1379   6.1379   6.7613   6.8377   6.8927
     7.3579   7.4207   7.4602   7.8098   7.8098  10.6493  11.4799  12.3550
    13.6870  14.5467  15.1878  19.1682  19.7294  19.7294  20.5772  20.5772
    21.4281  21.4281

          k = 0.2500 0.6255 0.1250 (  3794 PWs)   bands (ev):

    -8.5125  -8.1839  -7.8892  -7.8099  -7.5723  -7.2709  -7.2138  -6.9657
    -6.6223  -2.0412  -1.8569  -1.6720  -0.7480  -0.5586  -0.3688   0.2558
     0.4345   0.6199   2.9287   3.7565   3.8327   3.9561   4.0754   4.3891
     4.4226   4.5355   4.5665   4.6613   4.7221   4.8068   4.9074   5.2044
     5.6895   5.7888   5.8613   5.8729   5.9480   6.0129   6.0258   6.1587
     6.5342   6.6030   6.6717   6.9399   7.6942  11.0704  11.9964  12.9058
    13.3158  14.1212  14.9477  19.8055  20.2927  20.5541  21.0112  21.3405
    21.5305  21.8334

          k = 0.2500-0.3368 0.1250 (  3792 PWs)   bands (ev):

    -9.4559  -9.1096  -8.7116  -6.9631  -6.6637  -6.3530  -6.3281  -6.0651
    -5.7444  -2.8902  -2.6929  -2.4950  -1.4656  -1.2572  -1.0436   1.6660
     1.7366   1.8999   2.0690   2.3051   2.3369   2.4617   2.4725   2.6122
     2.6231   3.1704   4.8652   4.9562   4.9803   4.9820   5.0476   5.7853
     5.7867   5.8569   5.9327   6.3838   7.1467   7.5826   7.6555   7.7169
     8.0387   8.2626   8.3187   8.3641   8.7580   9.8832  10.8150  11.7772
    14.0333  14.9314  15.7399  17.9581  18.6575  18.8916  18.9127  19.8636
    19.9840  20.9647

          k = 0.2500-0.1443 0.1250 (  3779 PWs)   bands (ev):

    -9.9841  -9.6279  -9.2162  -6.2513  -5.9660  -5.6484  -4.4700  -4.4700
    -4.2222  -4.2222  -3.9528  -3.9528  -0.8480  -0.8480  -0.6419  -0.6419
    -0.4256  -0.4256   0.8404   0.9574   1.0216   1.2107   2.4824   4.3036
     4.3036   4.3122   4.3970   4.3971   4.4918   4.4918   5.8922   6.0155
     6.0746   6.1345   7.2339   8.0991   8.0991   8.8139   8.8917   8.9541
     9.0107   9.2664   9.2664   9.5055   9.5511   9.5930  10.5561  10.5561
    14.8924  14.8924  15.9365  15.9365  17.0684  17.1314  17.1314  18.0322
    18.1649  19.4664

          k = 0.4167 0.7217 0.1250 (  3793 PWs)   bands (ev):

    -8.4082  -8.4082  -8.0816  -8.0816  -7.7101  -7.7101  -6.5562  -6.2643
    -5.9383  -3.0255  -2.8043  -2.5667   0.2795   0.3471   0.4613   0.5416
     0.6783   0.7836   3.0666   3.0666   3.2341   3.3445   3.4328   3.6170
     3.7190   3.7761   4.5120   4.5120   5.0715   5.0715   5.1922   5.1922
     5.2981   5.2981   5.5338   6.2931   6.2931   6.8722   6.8723   6.9127
     6.9395   6.9395   7.0069   7.0069   8.5523  10.0017  11.1043  12.3318
    14.1006  14.9310  15.8288  18.9648  19.7006  19.9134  19.9134  20.5029
    22.5897  22.5902

          k = 0.4167-0.2406 0.1250 (  3799 PWs)   bands (ev):

    -9.1402  -8.7999  -8.4100  -7.8887  -7.5720  -7.2135  -4.8545  -4.8545
    -4.5952  -4.5952  -4.3106  -4.3105   0.8485   0.8485   1.0213   1.0213
     1.2011   1.2011   2.0884   2.6621   2.6621   2.7948   2.7948   2.9315
     2.9315   3.5788   3.6159   3.7539   3.7746   3.9277   5.2081   5.3745
     6.4394   6.5364   6.6328   6.9191   6.9268   6.9756   7.0328   7.7305
     7.7305   8.1579   8.2101   8.2619   8.9921   8.9921  10.4624  10.4624
    16.1117  16.1117  16.9688  16.9688  17.8975  17.8975  19.0183  20.4252
    20.9108  21.8252

     the Fermi energy is    13.1108 ev

!    total energy              =    -283.94820001 Ry
     estimated scf accuracy    <       0.00000003 Ry
     smearing contrib. (-TS)   =      -0.00012945 Ry
     internal energy E=F+TS    =    -283.94807056 Ry

     The total energy is F=E-TS. E is the sum of the following terms:
     one-electron contribution =      -4.47764558 Ry
     hartree contribution      =      72.21749930 Ry
     xc contribution           =    -108.70155270 Ry
     ewald contribution        =    -242.98637158 Ry

     convergence has been achieved in  21 iterations

     Forces acting on atoms (cartesian axes, Ry/au):

     atom    1 type  1   force =     0.00000000   -0.00000000    0.00721479
     atom    2 type  1   force =     0.00000000    0.00000000    0.00000000
     atom    3 type  1   force =     0.00000000    0.00000000   -0.00721479
     atom    4 type  1   force =     0.00000000   -0.00000234    0.00544911
     atom    5 type  1   force =    -0.00000141   -0.00000081    0.00000000
     atom    6 type  1   force =     0.00000000   -0.00000234   -0.00544911
     atom    7 type  1   force =     0.00000000   -0.00000048    0.00721464
     atom    8 type  1   force =     0.00000000   -0.00000043    0.00000000
     atom    9 type  1   force =     0.00000000   -0.00000048   -0.00721464
     atom   10 type  1   force =    -0.00000000   -0.00000000    0.00544837
     atom   11 type  1   force =     0.00000141   -0.00000081    0.00000000
     atom   12 type  1   force =     0.00000000    0.00000000   -0.00544837
     atom   13 type  1   force =     0.00000042    0.00000024    0.00721464
     atom   14 type  1   force =     0.00000037    0.00000022    0.00000000
     atom   15 type  1   force =     0.00000042    0.00000024   -0.00721464
     atom   16 type  1   force =    -0.00000203    0.00000117    0.00544911
     atom   17 type  1   force =     0.00000000   -0.00000000    0.00000000
     atom   18 type  1   force =    -0.00000203    0.00000117   -0.00544911
     atom   19 type  1   force =    -0.00000042    0.00000024    0.00721464
     atom   20 type  1   force =    -0.00000037    0.00000022    0.00000000
     atom   21 type  1   force =    -0.00000042    0.00000024   -0.00721464
     atom   22 type  1   force =     0.00000203    0.00000117    0.00544911
     atom   23 type  1   force =    -0.00000000    0.00000162    0.00000000
     atom   24 type  1   force =     0.00000203    0.00000117   -0.00544911
     The non-local contrib.  to forces
     atom    1 type  1   force =    -0.00000000   -0.00000000    0.01167080
     atom    2 type  1   force =     0.00000000    0.00000000    0.00000000
     atom    3 type  1   force =    -0.00000000   -0.00000000   -0.01167080
     atom    4 type  1   force =     0.00000000   -0.00000158    0.00798018
     atom    5 type  1   force =    -0.00000109   -0.00000063   -0.00000000
     atom    6 type  1   force =     0.00000000   -0.00000158   -0.00798018
     atom    7 type  1   force =     0.00000000   -0.00000055    0.01167075
     atom    8 type  1   force =    -0.00000000    0.00000035    0.00000000
     atom    9 type  1   force =    -0.00000000   -0.00000055   -0.01167075
     atom   10 type  1   force =     0.00000000   -0.00000000    0.00798049
     atom   11 type  1   force =     0.00000109   -0.00000063    0.00000000
     atom   12 type  1   force =     0.00000000    0.00000000   -0.00798049
     atom   13 type  1   force =     0.00000048    0.00000027    0.01167075
     atom   14 type  1   force =    -0.00000030   -0.00000018    0.00000000
     atom   15 type  1   force =     0.00000048    0.00000027   -0.01167075
     atom   16 type  1   force =    -0.00000137    0.00000079    0.00798018
     atom   17 type  1   force =     0.00000000    0.00000000    0.00000000
     atom   18 type  1   force =    -0.00000137    0.00000079   -0.00798018
     atom   19 type  1   force =    -0.00000048    0.00000027    0.01167075
     atom   20 type  1   force =     0.00000030   -0.00000018    0.00000000
     atom   21 type  1   force =    -0.00000048    0.00000027   -0.01167075
     atom   22 type  1   force =     0.00000137    0.00000079    0.00798018
     atom   23 type  1   force =     0.00000000    0.00000126    0.00000000
     atom   24 type  1   force =     0.00000137    0.00000079   -0.00798018
     The ionic contribution  to forces
     atom    1 type  1   force =    -0.00002316   -0.00001338    0.00005812
     atom    2 type  1   force =    -0.00000002   -0.00002674   -0.00005812
     atom    3 type  1   force =    -0.00002316   -0.00001338   -0.00000000
     atom    4 type  1   force =     0.00002318    0.00001337    0.00827531
     atom    5 type  1   force =    -0.00000002    0.00002677   -0.00005788
     atom    6 type  1   force =     0.00002318    0.00001337   -0.00821743
     atom    7 type  1   force =    -0.00002316   -0.00001338    0.00005812
     atom    8 type  1   force =    -0.00000002   -0.00002674   -0.00005812
     atom    9 type  1   force =    -0.00002316   -0.00001338   -0.00000000
     atom   10 type  1   force =     0.00002318    0.00001337    0.00827531
     atom   11 type  1   force =    -0.00000002    0.00002677   -0.00005788
     atom   12 type  1   force =     0.00002318    0.00001337   -0.00821743
     atom   13 type  1   force =    -0.00002316   -0.00001338    0.00005812
     atom   14 type  1   force =    -0.00000002   -0.00002674   -0.00005812
     atom   15 type  1   force =    -0.00002316   -0.00001338   -0.00000000
     atom   16 type  1   force =     0.00002318    0.00001337    0.00827531
     atom   17 type  1   force =    -0.00000002    0.00002677   -0.00005788
     atom   18 type  1   force =     0.00002318    0.00001337   -0.00821743
     atom   19 type  1   force =    -0.00002316   -0.00001338    0.00005812
     atom   20 type  1   force =    -0.00000002   -0.00002674   -0.00005812
     atom   21 type  1   force =    -0.00002316   -0.00001338   -0.00000000
     atom   22 type  1   force =     0.00002318    0.00001337    0.00827531
     atom   23 type  1   force =    -0.00000002    0.00002677   -0.00005788
     atom   24 type  1   force =     0.00002318    0.00001337   -0.00821743
     The local contribution  to forces
     atom    1 type  1   force =     0.00000000   -0.00000000   -0.00414169
     atom    2 type  1   force =    -0.00000000    0.00000000    0.00000000
     atom    3 type  1   force =    -0.00000000   -0.00000000    0.00441373
     atom    4 type  1   force =     0.00000791    0.00000624   -0.01050666
     atom    5 type  1   force =     0.00000060    0.00000950    0.00000000
     atom    6 type  1   force =     0.00000791    0.00000624    0.01077836
     atom    7 type  1   force =     0.00000000    0.00000314   -0.00414195
     atom    8 type  1   force =    -0.00000000   -0.00000492    0.00000000
     atom    9 type  1   force =    -0.00000000    0.00000314    0.00441400
     atom   10 type  1   force =     0.00000791    0.00000457   -0.01050759
     atom   11 type  1   force =    -0.00000060    0.00000950    0.00000000
     atom   12 type  1   force =     0.00000791    0.00000457    0.01077930
     atom   13 type  1   force =    -0.00000272   -0.00000157   -0.00414195
     atom   14 type  1   force =     0.00000426    0.00000246    0.00000000
     atom   15 type  1   force =    -0.00000272   -0.00000157    0.00441400
     atom   16 type  1   force =     0.00000936    0.00000373   -0.01050666
     atom   17 type  1   force =     0.00000000    0.00000915    0.00000000
     atom   18 type  1   force =     0.00000936    0.00000373    0.01077836
     atom   19 type  1   force =     0.00000272   -0.00000157   -0.00414195
     atom   20 type  1   force =    -0.00000426    0.00000246    0.00000000
     atom   21 type  1   force =     0.00000272   -0.00000157    0.00441400
     atom   22 type  1   force =     0.00000646    0.00000373   -0.01050666
     atom   23 type  1   force =    -0.00000000    0.00000845    0.00000000
     atom   24 type  1   force =     0.00000646    0.00000373    0.01077836
     The core correction contribution to forces
     atom    1 type  1   force =     0.00000000    0.00000000   -0.00028267
     atom    2 type  1   force =    -0.00000000    0.00000000    0.00000000
     atom    3 type  1   force =     0.00000000    0.00000000    0.00028503
     atom    4 type  1   force =    -0.00000056   -0.00000029   -0.00021107
     atom    5 type  1   force =     0.00000002   -0.00000064    0.00000000
     atom    6 type  1   force =    -0.00000056   -0.00000029    0.00021336
     atom    7 type  1   force =     0.00000000    0.00000002   -0.00028267
     atom    8 type  1   force =    -0.00000000   -0.00000003    0.00000000
     atom    9 type  1   force =     0.00000000    0.00000002    0.00028503
     atom   10 type  1   force =    -0.00000056   -0.00000033   -0.00021108
     atom   11 type  1   force =    -0.00000002   -0.00000064    0.00000000
     atom   12 type  1   force =    -0.00000056   -0.00000033    0.00021337
     atom   13 type  1   force =    -0.00000002   -0.00000001   -0.00028267
     atom   14 type  1   force =     0.00000003    0.00000002    0.00000000
     atom   15 type  1   force =    -0.00000002   -0.00000001    0.00028503
     atom   16 type  1   force =    -0.00000053   -0.00000035   -0.00021107
     atom   17 type  1   force =    -0.00000000   -0.00000065    0.00000000
     atom   18 type  1   force =    -0.00000053   -0.00000035    0.00021336
     atom   19 type  1   force =     0.00000002   -0.00000001   -0.00028267
     atom   20 type  1   force =    -0.00000003    0.00000002    0.00000000
     atom   21 type  1   force =     0.00000002   -0.00000001    0.00028503
     atom   22 type  1   force =    -0.00000060   -0.00000035   -0.00021107
     atom   23 type  1   force =    -0.00000000   -0.00000068    0.00000000
     atom   24 type  1   force =    -0.00000060   -0.00000035    0.00021336
     The Hubbard contrib.    to forces
     atom    1 type  1   force =     0.00000000    0.00000000    0.00000000
     atom    2 type  1   force =     0.00000000    0.00000000    0.00000000
     atom    3 type  1   force =     0.00000000    0.00000000    0.00000000
     atom    4 type  1   force =     0.00000000    0.00000000    0.00000000
     atom    5 type  1   force =     0.00000000    0.00000000    0.00000000
     atom    6 type  1   force =     0.00000000    0.00000000    0.00000000
     atom    7 type  1   force =     0.00000000    0.00000000    0.00000000
     atom    8 type  1   force =     0.00000000    0.00000000    0.00000000
     atom    9 type  1   force =     0.00000000    0.00000000    0.00000000
     atom   10 type  1   force =     0.00000000    0.00000000    0.00000000
     atom   11 type  1   force =     0.00000000    0.00000000    0.00000000
     atom   12 type  1   force =     0.00000000    0.00000000    0.00000000
     atom   13 type  1   force =     0.00000000    0.00000000    0.00000000
     atom   14 type  1   force =     0.00000000    0.00000000    0.00000000
     atom   15 type  1   force =     0.00000000    0.00000000    0.00000000
     atom   16 type  1   force =     0.00000000    0.00000000    0.00000000
     atom   17 type  1   force =     0.00000000    0.00000000    0.00000000
     atom   18 type  1   force =     0.00000000    0.00000000    0.00000000
     atom   19 type  1   force =     0.00000000    0.00000000    0.00000000
     atom   20 type  1   force =     0.00000000    0.00000000    0.00000000
     atom   21 type  1   force =     0.00000000    0.00000000    0.00000000
     atom   22 type  1   force =     0.00000000    0.00000000    0.00000000
     atom   23 type  1   force =     0.00000000    0.00000000    0.00000000
     atom   24 type  1   force =     0.00000000    0.00000000    0.00000000
     The SCF correction term to forces
     atom    1 type  1   force =     0.00000000    0.00000000    0.00006802
     atom    2 type  1   force =     0.00000000    0.00000000    0.00001698
     atom    3 type  1   force =     0.00000000    0.00000000   -0.00008495
     atom    4 type  1   force =    -0.00000000   -0.00000247    0.00006882
     atom    5 type  1   force =    -0.00000095   -0.00000055    0.00001698
     atom    6 type  1   force =    -0.00000000   -0.00000247   -0.00008574
     atom    7 type  1   force =     0.00000000   -0.00000310    0.00006818
     atom    8 type  1   force =     0.00000000    0.00000417    0.00001698
     atom    9 type  1   force =     0.00000000   -0.00000310   -0.00008511
     atom   10 type  1   force =    -0.00000000   -0.00000000    0.00006872
     atom   11 type  1   force =     0.00000095   -0.00000055    0.00001698
     atom   12 type  1   force =    -0.00000000   -0.00000000   -0.00008564
     atom   13 type  1   force =     0.00000268    0.00000155    0.00006818
     atom   14 type  1   force =    -0.00000361   -0.00000208    0.00001698
     atom   15 type  1   force =     0.00000268    0.00000155   -0.00008511
     atom   16 type  1   force =    -0.00000214    0.00000124    0.00006882
     atom   17 type  1   force =     0.00000000   -0.00000000    0.00001698
     atom   18 type  1   force =    -0.00000214    0.00000124   -0.00008574
     atom   19 type  1   force =    -0.00000268    0.00000155    0.00006818
     atom   20 type  1   force =     0.00000361   -0.00000208    0.00001698
     atom   21 type  1   force =    -0.00000268    0.00000155   -0.00008511
     atom   22 type  1   force =     0.00000214    0.00000124    0.00006882
     atom   23 type  1   force =     0.00000000    0.00000109    0.00001698
     atom   24 type  1   force =     0.00000214    0.00000124   -0.00008574

     Total force =     0.025572     Total SCF correction =     0.000314


     Computing stress (Cartesian axis) and pressure

          total   stress  (Ry/bohr**3)                   (kbar)     P=     2724.20
   0.02718708   0.00000000  -0.00000000         3999.36        0.00       -0.00
   0.00000000   0.02718708   0.00000000            0.00     3999.36        0.00
  -0.00000000   0.00000000   0.00118198           -0.00        0.00      173.88


     BFGS Geometry Optimization
     Energy error            =      0.0E+00 Ry
     Gradient error          =      7.2E-03 Ry/Bohr
     Cell gradient error     =      4.0E+03 kbar

     number of scf cycles    =   1
     number of bfgs steps    =   0

     enthalpy           new  =    -283.9482000094 Ry

     new trust radius        =       0.5000000000 bohr
     new conv_thr            =       0.0000010000 Ry

     new unit-cell volume =   1045.76134 a.u.^3 (   154.96584 Ang^3 )
     density =      3.08890 g/cm^3

CELL_PARAMETERS (alat=  8.00000437)
   1.083950707   0.000000000  -0.000000000
  -0.541975354   0.938728849   0.000000000
  -0.000000000   0.000000000   2.007299668

ATOMIC_POSITIONS (crystal)
C             0.0000000000       -0.0000000000        0.1667216961
C             0.0000000000        0.0000000000        0.5000000000
C             0.0000000000        0.0000000000        0.8332773039
C             0.1666659792        0.3333329583        0.1667080656
C             0.3333329710        0.1666659855        0.5000000000
C             0.1666659792        0.3333329583        0.8332909344
C             0.4999999957       -0.0000000086        0.1667216950
C             0.4999999962       -0.0000000077        0.5000000000
C             0.4999999957       -0.0000000086        0.8332773050
C             0.6666660000        0.3333330000        0.1667080599
C             0.8333330145        0.1666659855        0.5000000000
C             0.6666660000        0.3333330000        0.8332909401
C             0.0000000086        0.5000000043        0.1667216950
C             0.0000000077        0.5000000038        0.5000000000
C             0.0000000086        0.5000000043        0.8332773050
C             0.1666659792        0.8333330208        0.1667080656
C             0.3333330000        0.6666660000        0.5000000000
C             0.1666659792        0.8333330208        0.8332909344
C             0.4999999957        0.5000000043        0.1667216950
C             0.4999999962        0.5000000038        0.5000000000
C             0.4999999957        0.5000000043        0.8332773050
C             0.6666660417        0.8333330208        0.1667080656
C             0.8333330145        0.6666660290        0.5000000000
C             0.6666660417        0.8333330208        0.8332909344



     Writing config-only to output data dir ../../results/server/graphene/graphene.save/
     NEW-OLD atomic charge density approx. for the potential

     Check: negative core charge=   -0.000002
     extrapolated charge  110.59134, renormalised to   96.00000

     total cpu time spent up to now is       14.2 secs

     Self-consistent Calculation

     iteration #  1     ecut=    40.00 Ry     beta= 0.05
     Davidson diagonalization with overlap
     c_bands:  1 eigenvalues not converged
     c_bands:  1 eigenvalues not converged
     c_bands:  2 eigenvalues not converged
     c_bands:  1 eigenvalues not converged
     c_bands:  3 eigenvalues not converged
     ethr =  1.00E-06,  avg # of iterations = 18.5

     total cpu time spent up to now is       16.8 secs

     total energy              =    -285.53001804 Ry
     estimated scf accuracy    <       0.93484738 Ry

     iteration #  2     ecut=    40.00 Ry     beta= 0.05
     Davidson diagonalization with overlap
     ethr =  9.74E-04,  avg # of iterations =  5.1

     total cpu time spent up to now is       17.6 secs

     total energy              =    -286.53978929 Ry
     estimated scf accuracy    <       0.02162127 Ry

     iteration #  3     ecut=    40.00 Ry     beta= 0.05
     Davidson diagonalization with overlap
     c_bands:  2 eigenvalues not converged
     ethr =  2.25E-05,  avg # of iterations =  9.2

     total cpu time spent up to now is       18.5 secs

     total energy              =    -286.55530534 Ry
     estimated scf accuracy    <       0.01458873 Ry

     iteration #  4     ecut=    40.00 Ry     beta= 0.05
     Davidson diagonalization with overlap
     ethr =  1.52E-05,  avg # of iterations =  1.5

     total cpu time spent up to now is       18.9 secs

     total energy              =    -286.54932590 Ry
     estimated scf accuracy    <       0.01320623 Ry

     iteration #  5     ecut=    40.00 Ry     beta= 0.05
     Davidson diagonalization with overlap
     ethr =  1.38E-05,  avg # of iterations =  2.0

     total cpu time spent up to now is       19.3 secs

     total energy              =    -286.55045196 Ry
     estimated scf accuracy    <       0.00055975 Ry

     iteration #  6     ecut=    40.00 Ry     beta= 0.05
     Davidson diagonalization with overlap
     ethr =  5.83E-07,  avg # of iterations =  7.8

     total cpu time spent up to now is       20.1 secs

     total energy              =    -286.55098665 Ry
     estimated scf accuracy    <       0.00043866 Ry

     iteration #  7     ecut=    40.00 Ry     beta= 0.05
     Davidson diagonalization with overlap
     ethr =  4.57E-07,  avg # of iterations =  1.2

     total cpu time spent up to now is       20.5 secs

     total energy              =    -286.55071591 Ry
     estimated scf accuracy    <       0.00063624 Ry

     iteration #  8     ecut=    40.00 Ry     beta= 0.05
     Davidson diagonalization with overlap
     ethr =  4.57E-07,  avg # of iterations =  1.2

     total cpu time spent up to now is       20.8 secs

     total energy              =    -286.55073852 Ry
     estimated scf accuracy    <       0.00006721 Ry

     iteration #  9     ecut=    40.00 Ry     beta= 0.05
     Davidson diagonalization with overlap
     ethr =  7.00E-08,  avg # of iterations =  2.3

     total cpu time spent up to now is       21.2 secs

     total energy              =    -286.55073659 Ry
     estimated scf accuracy    <       0.00005641 Ry

     iteration # 10     ecut=    40.00 Ry     beta= 0.05
     Davidson diagonalization with overlap
     ethr =  5.88E-08,  avg # of iterations =  1.2

     total cpu time spent up to now is       21.6 secs

     total energy              =    -286.55072834 Ry
     estimated scf accuracy    <       0.00003166 Ry

     iteration # 11     ecut=    40.00 Ry     beta= 0.05
     Davidson diagonalization with overlap
     ethr =  3.30E-08,  avg # of iterations =  3.9

     total cpu time spent up to now is       22.2 secs

     total energy              =    -286.55073854 Ry
     estimated scf accuracy    <       0.00000204 Ry

     iteration # 12     ecut=    40.00 Ry     beta= 0.05
     Davidson diagonalization with overlap
     ethr =  2.13E-09,  avg # of iterations =  5.0

     total cpu time spent up to now is       23.0 secs

     total energy              =    -286.55074020 Ry
     estimated scf accuracy    <       0.00000271 Ry

     iteration # 13     ecut=    40.00 Ry     beta= 0.05
     Davidson diagonalization with overlap
     ethr =  2.13E-09,  avg # of iterations =  2.0

     total cpu time spent up to now is       23.4 secs

     total energy              =    -286.55073829 Ry
     estimated scf accuracy    <       0.00000224 Ry

     iteration # 14     ecut=    40.00 Ry     beta= 0.05
     Davidson diagonalization with overlap
     ethr =  2.13E-09,  avg # of iterations =  2.0

     total cpu time spent up to now is       23.8 secs

     End of self-consistent calculation

          k = 0.0769 0.1332 0.1245 (  3768 PWs)   bands (ev):

   -10.6411 -10.2608  -9.8152  -5.6914  -5.6914  -5.3978  -5.3978  -5.0687
    -5.0687  -4.1877  -4.0586  -3.8805  -3.7952  -3.5645  -3.5295  -2.5624
    -2.5624  -2.3245  -2.3245  -2.0641  -2.0641   0.0578   1.6713   3.0938
     3.1938   3.2966   3.6337   3.6360   3.6360   3.7220   3.7220   3.8097
     3.8097   5.9831   5.9831   6.9952   7.2026   7.2026   7.3094   7.3562
     7.4063   7.5045   7.5456   7.5911   7.9090   8.5340   8.5341   8.8974
    11.5162  12.1780  12.1780  12.5828  13.2695  13.2695  13.6107  14.5524
    14.5524  16.4894

          k = 0.0769 0.3107 0.1245 (  3791 PWs)   bands (ev):

   -10.1719  -9.7999  -9.3658  -7.4012  -7.0780  -6.7103  -6.3215  -6.0168
    -5.6742  -4.7397  -4.4628  -4.1554  -2.6821  -2.4464  -2.1878  -1.1946
    -0.9828  -0.7536  -0.1894   0.0076   0.2198   0.6517   1.6786   1.8170
     1.9628   2.2441   2.7446   2.8600   2.9805   4.0833   4.1181   4.1822
     4.1993   4.2848   5.3726   5.5188   5.7706   5.8547   5.9404   6.5622
     6.6224   6.6846   6.7153   7.0513   7.2269   8.1568   8.2768   9.3210
    11.7844  12.7380  13.2533  13.7362  14.2649  14.6430  15.4165  15.6843
    16.8938  16.9859

          k = 0.0769 0.4882 0.1245 (  3798 PWs)   bands (ev):

    -9.3324  -8.9753  -8.7765  -8.5619  -8.4292  -8.0292  -6.5939  -6.2850
    -5.9363  -5.0087  -4.7275  -4.4149  -1.1146  -0.9230  -0.7216   0.0723
     0.2215   0.2442   0.3887   0.4081   0.5781   1.4549   1.5797   1.7082
     1.7160   2.2908   2.4032   2.4538   2.6184   3.2515   3.5317   3.6689
     3.7967   3.9300   4.9365   5.0150   5.0904   5.0947   5.1503   5.4480
     5.5221   5.5980   5.7758   6.4765   6.9439   8.1241   8.1861   9.6052
    12.1598  13.0190  13.9757  14.1329  14.9479  15.8610  17.6779  17.8836
    18.3804  18.6928

          k = 0.0769-0.3995 0.1245 (  3797 PWs)   bands (ev):

    -9.7980  -9.4326  -9.0078  -8.1321  -7.7960  -7.4114  -6.5030  -6.1956
    -5.8487  -4.9185  -4.6392  -4.3282  -1.8932  -1.6733  -1.4347  -0.4524
    -0.2576  -0.0487   0.8446   1.0006   1.0498   1.1235   1.1670   1.2247
     1.4120   2.0835   2.2146   2.3533   2.6979   3.2010   4.4877   4.5670
     4.6070   4.6508   4.6904   4.7122   4.8120   4.9232   5.1857   6.0001
     6.0685   6.1384   6.4772   6.5578   6.9867   8.1778   8.1848   9.5074
    12.0024  12.9017  13.7864  13.8854  14.6989  15.7148  16.1448  17.0973
    17.3887  18.1839

          k = 0.0769-0.2219 0.1245 (  3778 PWs)   bands (ev):

   -10.4532 -10.0763  -9.6352  -6.5867  -6.2773  -6.0503  -5.9283  -5.7505
    -5.4136  -4.4746  -4.2018  -3.8995  -3.4187  -3.1725  -2.8981  -1.9055
    -1.6797  -1.4336  -1.3987  -1.1807  -0.9439   0.2958   1.9010   2.4511
     2.5694   2.6928   3.2888   3.3874   3.4889   3.8297   3.8540   3.9147
     4.0014   5.0344   5.6433   6.3888   6.6636   6.7256   6.7894   6.9373
     7.0843   7.0873   7.1367   7.1893   7.9614   8.0647   8.4039   9.0949
    11.5996  12.6183  12.6836  13.2708  13.6093  13.7551  14.3640  15.0057
    15.6531  16.6858

          k = 0.0769-0.0444 0.1245 (  3763 PWs)   bands (ev):

   -10.7352 -10.3533  -9.9053  -5.2475  -4.9608  -4.7231  -4.7231  -4.6417
    -4.4452  -4.4452  -4.1364  -4.1364  -3.6646  -3.6646  -3.4112  -3.4112
    -3.1525  -3.1294  -3.1294  -2.9046  -2.6323  -0.0616   1.5560   3.5231
     3.5383   3.5383   3.6247   3.6247   3.7129   3.7130   3.7274   3.8086
     3.8917   6.3639   6.7319   6.7319   7.4772   7.6527   7.6975   7.7175
     7.7175   7.7247   7.7457   7.7676   7.8137   8.6478   8.7554   8.7555
    11.5781  11.5782  11.7998  12.6582  12.6582  12.8870  13.7931  13.7931
    14.1270  16.3933

          k = 0.2306 0.3995 0.1245 (  3788 PWs)   bands (ev):

    -9.5185  -9.1579  -8.7401  -7.8586  -7.8586  -7.5275  -7.5275  -7.1496
    -7.1496  -3.2747  -3.1060  -2.9443  -2.8039  -2.6374  -2.5372  -0.2204
    -0.0440   0.1461   1.1717   1.1717   1.3376   1.3376   1.4756   1.5143
     1.5144   3.0363   3.4188   3.4188   3.5279   3.5279   3.5482   3.5482
     3.6469   3.6469   4.3749   4.4617   4.5482   4.9357   5.0165   5.0165
     5.2228   5.2844   5.3535   6.7876   6.7876   8.4025   9.2708  10.1993
    11.0952  11.9918  12.6799  15.9725  15.9725  16.8254  16.8254  17.7142
    17.7783  17.7783

          k = 0.2306 0.5770 0.1245 (  3794 PWs)   bands (ev):

    -9.0544  -8.7022  -8.5004  -8.2955  -8.1581  -7.9505  -7.7648  -7.6180
    -7.2378  -3.2594  -3.0135  -2.7468  -2.2503  -2.0447  -1.8206  -1.0970
    -0.9294  -0.7371   1.7762   1.9119   2.0518   2.0577   2.3398   2.4794
     2.6217   2.7565   2.9634   3.0675   3.1737   3.4357   3.4397   3.5212
     3.6177   3.6584   3.9108   4.0025   4.1070   4.2756   4.5146   4.5930
     4.6757   4.9146   5.4707   6.0900   6.6974   8.7539   9.7069  10.5530
    10.8082  11.6014  12.4746  16.3666  17.1146  17.3840  17.9576  18.1273
    18.2294  18.8261

          k = 0.2306-0.3107 0.1245 (  3792 PWs)   bands (ev):

    -9.8913  -9.5243  -9.0972  -7.6753  -7.3473  -7.1313  -6.9733  -6.8130
    -6.4517  -3.9827  -3.7199  -3.4319  -2.9300  -2.6986  -2.4401  -0.0179
     0.1719   0.3754   0.4857   0.6687   0.7378   0.8650   0.8968   1.0060
     1.0659   2.5852   3.0364   3.1484   3.2656   3.7582   3.8646   3.9559
     4.0539   4.4264   4.5072   5.1319   5.2156   5.2188   5.3016   5.8450
     5.9501   6.0111   6.0764   6.9657   7.5362   7.7782   8.7493   9.7583
    11.4416  12.3480  13.1446  14.5660  15.3505  15.5132  16.3141  16.5791
    17.2965  17.4096

          k = 0.2306-0.1332 0.1245 (  3779 PWs)   bands (ev):

   -10.3594  -9.9840  -9.5453  -7.0378  -6.7207  -6.3612  -5.4327  -5.4327
    -5.1439  -5.1439  -4.8210  -4.8210  -2.3358  -2.3358  -2.1036  -2.1036
    -1.8502  -1.8502  -0.8228  -0.6146  -0.3891   0.4147   2.0156   2.5491
     2.5491   2.6665   2.6665   2.7890   2.7890   3.9638   4.1136   4.1933
     4.2746   4.5121   5.9117   6.3044   6.3238   6.3238   6.3816   6.4605
     6.9464   7.0043   7.0632   7.5369   7.5370   7.5629   8.8658   8.8658
    12.1880  12.1880  13.2090  13.2090  13.9337  14.3639  14.3639  15.0172
    16.2924  16.7839

          k = 0.3844 0.6658 0.1245 (  3793 PWs)   bands (ev):

    -8.9617  -8.9617  -8.6111  -8.6111  -8.2066  -8.2066  -7.3141  -6.9925
    -6.6275  -4.1559  -3.8911  -3.5980  -1.4746  -1.3096  -1.1409  -0.7128
    -0.5890  -0.4625   1.1427   1.2697   1.4009   2.0948   2.1719   2.1719
     2.1945   2.2936   2.9249   2.9249   3.0565   3.0565   3.2046   3.2046
     3.7123   3.7123   4.2184   4.7748   4.7748   4.8603   4.8603   4.9464
     4.9464   5.5726   5.5726   5.6567   7.3825   7.8915   9.0408  10.3104
    11.3022  12.1847  13.1579  15.2775  16.0440  16.9103  18.2249  18.2249
    18.4232  18.4232

          k = 0.3844-0.2219 0.1245 (  3799 PWs)   bands (ev):

    -9.6115  -9.2494  -8.8292  -8.4996  -8.1573  -7.7638  -5.7937  -5.7937
    -5.4986  -5.4986  -5.1679  -5.1679  -0.8143  -0.8143  -0.6170  -0.6170
    -0.4063  -0.4063   1.0692   1.0692   1.2168   1.2168   1.3580   1.3753
     1.3753   1.6607   1.8258   2.0011   2.7491   2.9223   4.1376   4.2557
     4.2609   4.3819   4.8336   4.8538   4.9295   5.0068   5.8617   5.9307
     6.0013   6.0306   6.0306   6.0787   7.3447   7.3447   8.8755   8.8755
    12.9923  12.9923  13.8672  13.8672  14.8385  14.8385  16.9341  17.5815
    17.8376  18.7604

     the Fermi energy is    10.6806 ev

!    total energy              =    -286.55074422 Ry
     estimated scf accuracy    <       0.00000014 Ry
     smearing contrib. (-TS)   =      -0.00052067 Ry
     internal energy E=F+TS    =    -286.55022355 Ry

     The total energy is F=E-TS. E is the sum of the following terms:
     one-electron contribution =       1.36922098 Ry
     hartree contribution      =      61.02967840 Ry
     xc contribution           =    -103.62562440 Ry
     ewald contribution        =    -245.32349852 Ry

     convergence has been achieved in  14 iterations

     Forces acting on atoms (cartesian axes, Ry/au):

     atom    1 type  1   force =     0.00000000   -0.00000000    0.00853927
     atom    2 type  1   force =    -0.00000000   -0.00000000    0.00000000
     atom    3 type  1   force =    -0.00000000    0.00000000   -0.00853927
     atom    4 type  1   force =    -0.00000000    0.00000056    0.00540415
     atom    5 type  1   force =     0.00000046    0.00000026    0.00000000
     atom    6 type  1   force =     0.00000000    0.00000056   -0.00540415
     atom    7 type  1   force =    -0.00000000    0.00000019    0.00853932
     atom    8 type  1   force =    -0.00000000    0.00000091   -0.00000000
     atom    9 type  1   force =    -0.00000000    0.00000019   -0.00853932
     atom   10 type  1   force =    -0.00000000   -0.00000000    0.00540402
     atom   11 type  1   force =    -0.00000046    0.00000026    0.00000000
     atom   12 type  1   force =     0.00000000    0.00000000   -0.00540402
     atom   13 type  1   force =    -0.00000017   -0.00000010    0.00853932
     atom   14 type  1   force =    -0.00000079   -0.00000046   -0.00000000
     atom   15 type  1   force =    -0.00000017   -0.00000010   -0.00853932
     atom   16 type  1   force =     0.00000049   -0.00000028    0.00540415
     atom   17 type  1   force =     0.00000000   -0.00000000    0.00000000
     atom   18 type  1   force =     0.00000049   -0.00000028   -0.00540415
     atom   19 type  1   force =     0.00000017   -0.00000010    0.00853932
     atom   20 type  1   force =     0.00000079   -0.00000046    0.00000000
     atom   21 type  1   force =     0.00000017   -0.00000010   -0.00853932
     atom   22 type  1   force =    -0.00000049   -0.00000028    0.00540415
     atom   23 type  1   force =     0.00000000   -0.00000053    0.00000000
     atom   24 type  1   force =    -0.00000049   -0.00000028   -0.00540415
     The non-local contrib.  to forces
     atom    1 type  1   force =    -0.00000000   -0.00000000    0.01475747
     atom    2 type  1   force =     0.00000000   -0.00000000    0.00000000
     atom    3 type  1   force =    -0.00000000   -0.00000000   -0.01475747
     atom    4 type  1   force =    -0.00000000    0.00000040    0.00872181
     atom    5 type  1   force =     0.00000017    0.00000010    0.00000000
     atom    6 type  1   force =    -0.00000000    0.00000040   -0.00872181
     atom    7 type  1   force =    -0.00000000    0.00000015    0.01475800
     atom    8 type  1   force =    -0.00000000    0.00000091    0.00000000
     atom    9 type  1   force =     0.00000000    0.00000015   -0.01475800
     atom   10 type  1   force =     0.00000000    0.00000000    0.00872086
     atom   11 type  1   force =    -0.00000017    0.00000010   -0.00000000
     atom   12 type  1   force =     0.00000000    0.00000000   -0.00872086
     atom   13 type  1   force =    -0.00000013   -0.00000008    0.01475800
     atom   14 type  1   force =    -0.00000079   -0.00000045    0.00000000
     atom   15 type  1   force =    -0.00000013   -0.00000008   -0.01475800
     atom   16 type  1   force =     0.00000034   -0.00000020    0.00872181
     atom   17 type  1   force =     0.00000000   -0.00000000    0.00000000
     atom   18 type  1   force =     0.00000034   -0.00000020   -0.00872181
     atom   19 type  1   force =     0.00000013   -0.00000008    0.01475800
     atom   20 type  1   force =     0.00000079   -0.00000045    0.00000000
     atom   21 type  1   force =     0.00000013   -0.00000008   -0.01475800
     atom   22 type  1   force =    -0.00000034   -0.00000020    0.00872181
     atom   23 type  1   force =     0.00000000   -0.00000020    0.00000000
     atom   24 type  1   force =    -0.00000034   -0.00000020   -0.00872181
     The ionic contribution  to forces
     atom    1 type  1   force =    -0.00001972   -0.00001141   -0.00623830
     atom    2 type  1   force =    -0.00000003   -0.00002277   -0.00004953
     atom    3 type  1   force =    -0.00001972   -0.00001141    0.00628783
     atom    4 type  1   force =     0.00001976    0.00001396    0.00614771
     atom    5 type  1   force =     0.00000204    0.00002401   -0.00004914
     atom    6 type  1   force =     0.00001976    0.00001396   -0.00609857
     atom    7 type  1   force =    -0.00001972   -0.00001249   -0.00623827
     atom    8 type  1   force =    -0.00000003   -0.00002111   -0.00004953
     atom    9 type  1   force =    -0.00001972   -0.00001249    0.00628780
     atom   10 type  1   force =     0.00001976    0.00001139    0.00614740
     atom   11 type  1   force =    -0.00000210    0.00002401   -0.00004914
     atom   12 type  1   force =     0.00001976    0.00001139   -0.00609826
     atom   13 type  1   force =    -0.00001878   -0.00001087   -0.00623827
     atom   14 type  1   force =    -0.00000147   -0.00002360   -0.00004953
     atom   15 type  1   force =    -0.00001878   -0.00001087    0.00628780
     atom   16 type  1   force =     0.00002198    0.00001010    0.00614771
     atom   17 type  1   force =    -0.00000003    0.00002281   -0.00004914
     atom   18 type  1   force =     0.00002198    0.00001010   -0.00609857
     atom   19 type  1   force =    -0.00002066   -0.00001087   -0.00623827
     atom   20 type  1   force =     0.00000140   -0.00002360   -0.00004953
     atom   21 type  1   force =    -0.00002066   -0.00001087    0.00628780
     atom   22 type  1   force =     0.00001753    0.00001010    0.00614771
     atom   23 type  1   force =    -0.00000003    0.00002042   -0.00004914
     atom   24 type  1   force =     0.00001753    0.00001010   -0.00609857
     The local contribution  to forces
     atom    1 type  1   force =     0.00000000   -0.00000000    0.00078215
     atom    2 type  1   force =     0.00000000    0.00000000    0.00000000
     atom    3 type  1   force =     0.00000000   -0.00000000   -0.00055553
     atom    4 type  1   force =     0.00001069    0.00000380   -0.00882294
     atom    5 type  1   force =    -0.00000135    0.00001156    0.00000000
     atom    6 type  1   force =     0.00001069    0.00000380    0.00904922
     atom    7 type  1   force =     0.00000000    0.00000144    0.00078142
     atom    8 type  1   force =    -0.00000000   -0.00000140    0.00000000
     atom    9 type  1   force =     0.00000000    0.00000144   -0.00055479
     atom   10 type  1   force =     0.00001069    0.00000617   -0.00882210
     atom   11 type  1   force =     0.00000135    0.00001156    0.00000000
     atom   12 type  1   force =     0.00001069    0.00000617    0.00904837
     atom   13 type  1   force =    -0.00000125   -0.00000072    0.00078142
     atom   14 type  1   force =     0.00000121    0.00000070    0.00000000
     atom   15 type  1   force =    -0.00000125   -0.00000072   -0.00055479
     atom   16 type  1   force =     0.00000864    0.00000736   -0.00882294
     atom   17 type  1   force =     0.00000000    0.00001234    0.00000000
     atom   18 type  1   force =     0.00000864    0.00000736    0.00904922
     atom   19 type  1   force =     0.00000125   -0.00000072    0.00078142
     atom   20 type  1   force =    -0.00000121    0.00000070    0.00000000
     atom   21 type  1   force =     0.00000125   -0.00000072   -0.00055479
     atom   22 type  1   force =     0.00001274    0.00000736   -0.00882294
     atom   23 type  1   force =    -0.00000000    0.00001390    0.00000000
     atom   24 type  1   force =     0.00001274    0.00000736    0.00904922
     The core correction contribution to forces
     atom    1 type  1   force =     0.00000000    0.00000000   -0.00035020
     atom    2 type  1   force =     0.00000000    0.00000000    0.00000000
     atom    3 type  1   force =     0.00000000    0.00000000    0.00035197
     atom    4 type  1   force =    -0.00000047   -0.00000028   -0.00023035
     atom    5 type  1   force =    -0.00000000   -0.00000054    0.00000000
     atom    6 type  1   force =    -0.00000047   -0.00000028    0.00023205
     atom    7 type  1   force =     0.00000000    0.00000001   -0.00035021
     atom    8 type  1   force =     0.00000000   -0.00000002    0.00000000
     atom    9 type  1   force =     0.00000000    0.00000001    0.00035198
     atom   10 type  1   force =    -0.00000047   -0.00000027   -0.00023033
     atom   11 type  1   force =     0.00000000   -0.00000054    0.00000000
     atom   12 type  1   force =    -0.00000047   -0.00000027    0.00023203
     atom   13 type  1   force =    -0.00000000   -0.00000000   -0.00035021
     atom   14 type  1   force =     0.00000002    0.00000001    0.00000000
     atom   15 type  1   force =    -0.00000000   -0.00000000    0.00035198
     atom   16 type  1   force =    -0.00000048   -0.00000026   -0.00023035
     atom   17 type  1   force =     0.00000000   -0.00000054    0.00000000
     atom   18 type  1   force =    -0.00000048   -0.00000026    0.00023205
     atom   19 type  1   force =     0.00000000   -0.00000000   -0.00035021
     atom   20 type  1   force =    -0.00000002    0.00000001    0.00000000
     atom   21 type  1   force =     0.00000000   -0.00000000    0.00035198
     atom   22 type  1   force =    -0.00000046   -0.00000026   -0.00023035
     atom   23 type  1   force =     0.00000000   -0.00000053    0.00000000
     atom   24 type  1   force =    -0.00000046   -0.00000026    0.00023205
     The Hubbard contrib.    to forces
     atom    1 type  1   force =     0.00000000    0.00000000    0.00000000
     atom    2 type  1   force =     0.00000000    0.00000000    0.00000000
     atom    3 type  1   force =     0.00000000    0.00000000    0.00000000
     atom    4 type  1   force =     0.00000000    0.00000000    0.00000000
     atom    5 type  1   force =     0.00000000    0.00000000    0.00000000
     atom    6 type  1   force =     0.00000000    0.00000000    0.00000000
     atom    7 type  1   force =     0.00000000    0.00000000    0.00000000
     atom    8 type  1   force =     0.00000000    0.00000000    0.00000000
     atom    9 type  1   force =     0.00000000    0.00000000    0.00000000
     atom   10 type  1   force =     0.00000000    0.00000000    0.00000000
     atom   11 type  1   force =     0.00000000    0.00000000    0.00000000
     atom   12 type  1   force =     0.00000000    0.00000000    0.00000000
     atom   13 type  1   force =     0.00000000    0.00000000    0.00000000
     atom   14 type  1   force =     0.00000000    0.00000000    0.00000000
     atom   15 type  1   force =     0.00000000    0.00000000    0.00000000
     atom   16 type  1   force =     0.00000000    0.00000000    0.00000000
     atom   17 type  1   force =     0.00000000    0.00000000    0.00000000
     atom   18 type  1   force =     0.00000000    0.00000000    0.00000000
     atom   19 type  1   force =     0.00000000    0.00000000    0.00000000
     atom   20 type  1   force =     0.00000000    0.00000000    0.00000000
     atom   21 type  1   force =     0.00000000    0.00000000    0.00000000
     atom   22 type  1   force =     0.00000000    0.00000000    0.00000000
     atom   23 type  1   force =     0.00000000    0.00000000    0.00000000
     atom   24 type  1   force =     0.00000000    0.00000000    0.00000000
     The SCF correction term to forces
     atom    1 type  1   force =     0.00000000    0.00000000   -0.00027483
     atom    2 type  1   force =     0.00000000    0.00000000    0.00000368
     atom    3 type  1   force =     0.00000000    0.00000000    0.00027095
     atom    4 type  1   force =    -0.00000000   -0.00000003   -0.00027546
     atom    5 type  1   force =    -0.00000043   -0.00000025    0.00000368
     atom    6 type  1   force =    -0.00000000   -0.00000003    0.00027159
     atom    7 type  1   force =     0.00000000   -0.00000033   -0.00027459
     atom    8 type  1   force =     0.00000000   -0.00000024    0.00000368
     atom    9 type  1   force =     0.00000000   -0.00000033    0.00027071
     atom   10 type  1   force =    -0.00000000   -0.00000000   -0.00027520
     atom   11 type  1   force =     0.00000043   -0.00000025    0.00000368
     atom   12 type  1   force =    -0.00000000   -0.00000000    0.00027132
     atom   13 type  1   force =     0.00000029    0.00000017   -0.00027459
     atom   14 type  1   force =     0.00000021    0.00000012    0.00000368
     atom   15 type  1   force =     0.00000029    0.00000017    0.00027071
     atom   16 type  1   force =    -0.00000002    0.00000001   -0.00027546
     atom   17 type  1   force =     0.00000000   -0.00000000    0.00000368
     atom   18 type  1   force =    -0.00000002    0.00000001    0.00027159
     atom   19 type  1   force =    -0.00000028    0.00000017   -0.00027459
     atom   20 type  1   force =    -0.00000021    0.00000012    0.00000368
     atom   21 type  1   force =    -0.00000028    0.00000017    0.00027071
     atom   22 type  1   force =     0.00000002    0.00000001   -0.00027546
     atom   23 type  1   force =     0.00000000    0.00000049    0.00000368
     atom   24 type  1   force =     0.00000002    0.00000001    0.00027159

     Total force =     0.028583     Total SCF correction =     0.001092


     Computing stress (Cartesian axis) and pressure

          total   stress  (Ry/bohr**3)                   (kbar)     P=      881.35
   0.00843259  -0.00000000   0.00000000         1240.48       -0.00        0.00
  -0.00000000   0.00843259  -0.00000000           -0.00     1240.48       -0.00
   0.00000000  -0.00000000   0.00110871            0.00       -0.00      163.10

     Energy error            =      2.6E+00 Ry
     Gradient error          =      8.5E-03 Ry/Bohr
     Cell gradient error     =      1.2E+03 kbar

     number of scf cycles    =   2
     number of bfgs steps    =   1

     enthalpy           old  =    -283.9482000094 Ry
     enthalpy           new  =    -286.5507442191 Ry

     CASE: enthalpy          _new < enthalpy          _old

     new trust radius        =       0.2566507752 bohr
     new conv_thr            =       0.0000000854 Ry

     new unit-cell volume =   1170.96395 a.u.^3 (   173.51895 Ang^3 )
     density =      2.75862 g/cm^3

CELL_PARAMETERS (alat=  8.00000437)
   1.126964310   0.000000000   0.000000000
  -0.563482155   0.975979722  -0.000000000
   0.000000000  -0.000000000   2.079322693

ATOMIC_POSITIONS (crystal)
C            -0.0000000000       -0.0000000000        0.1673296810
C            -0.0000000000       -0.0000000000        0.5000000000
C             0.0000000000        0.0000000000        0.8326693190
C             0.1666661211        0.3333332421        0.1670681842
C             0.3333332001        0.1666661001        0.5000000000
C             0.1666661211        0.3333332421        0.8329308158
C             0.5000000340        0.0000000681        0.1673296888
C             0.5000001178        0.0000002356        0.5000000000
C             0.5000000340        0.0000000681        0.8326693112
C             0.6666660000        0.3333330000        0.1670681869
C             0.8333328999        0.1666661001        0.5000000000
C             0.6666660000        0.3333330000        0.8329308131
C            -0.0000000681        0.4999999660        0.1673296888
C            -0.0000002356        0.4999998822        0.5000000000
C            -0.0000000681        0.4999999660        0.8326693112
C             0.1666661211        0.8333328789        0.1670681842
C             0.3333330000        0.6666660000        0.5000000000
C             0.1666661211        0.8333328789        0.8329308158
C             0.5000000340        0.4999999660        0.1673296888
C             0.5000001178        0.4999998822        0.5000000000
C             0.5000000340        0.4999999660        0.8326693112
C             0.6666657579        0.8333328789        0.1670681842
C             0.8333328999        0.6666657999        0.5000000000
C             0.6666657579        0.8333328789        0.8329308158



     Writing config-only to output data dir ../../results/server/graphene/graphene.save/
     NEW-OLD atomic charge density approx. for the potential

     Check: negative core charge=   -0.000002
     extrapolated charge  106.26449, renormalised to   96.00000

     total cpu time spent up to now is       25.6 secs

     Self-consistent Calculation

     iteration #  1     ecut=    40.00 Ry     beta= 0.05
     Davidson diagonalization with overlap
     c_bands:  1 eigenvalues not converged
     c_bands:  2 eigenvalues not converged
     c_bands:  2 eigenvalues not converged
     c_bands:  2 eigenvalues not converged
     ethr =  1.00E-06,  avg # of iterations = 15.8

     total cpu time spent up to now is       27.7 secs

     total energy              =    -286.55485645 Ry
     estimated scf accuracy    <       0.33967172 Ry

     iteration #  2     ecut=    40.00 Ry     beta= 0.05
     Davidson diagonalization with overlap
     ethr =  3.54E-04,  avg # of iterations =  5.1

     total cpu time spent up to now is       28.5 secs

     total energy              =    -287.02982025 Ry
     estimated scf accuracy    <       0.00438613 Ry

     iteration #  3     ecut=    40.00 Ry     beta= 0.05
     Davidson diagonalization with overlap
     c_bands:  2 eigenvalues not converged
     c_bands:  1 eigenvalues not converged
     ethr =  4.57E-06,  avg # of iterations = 11.2

     total cpu time spent up to now is       29.7 secs

     total energy              =    -287.03462789 Ry
     estimated scf accuracy    <       0.00548259 Ry

     iteration #  4     ecut=    40.00 Ry     beta= 0.05
     Davidson diagonalization with overlap
     ethr =  4.57E-06,  avg # of iterations =  2.5

     total cpu time spent up to now is       30.0 secs

     total energy              =    -287.03211325 Ry
     estimated scf accuracy    <       0.00655032 Ry

     iteration #  5     ecut=    40.00 Ry     beta= 0.05
     Davidson diagonalization with overlap
     ethr =  4.57E-06,  avg # of iterations =  2.0

     total cpu time spent up to now is       30.5 secs

     total energy              =    -287.03268044 Ry
     estimated scf accuracy    <       0.00034449 Ry

     iteration #  6     ecut=    40.00 Ry     beta= 0.05
     Davidson diagonalization with overlap
     ethr =  3.59E-07,  avg # of iterations =  3.6

     total cpu time spent up to now is       31.0 secs

     total energy              =    -287.03274803 Ry
     estimated scf accuracy    <       0.00038169 Ry

     iteration #  7     ecut=    40.00 Ry     beta= 0.05
     Davidson diagonalization with overlap
     ethr =  3.59E-07,  avg # of iterations =  1.2

     total cpu time spent up to now is       31.4 secs

     total energy              =    -287.03271608 Ry
     estimated scf accuracy    <       0.00018476 Ry

     iteration #  8     ecut=    40.00 Ry     beta= 0.05
     Davidson diagonalization with overlap
     ethr =  1.92E-07,  avg # of iterations =  1.9

     total cpu time spent up to now is       31.8 secs

     total energy              =    -287.03272804 Ry
     estimated scf accuracy    <       0.00004224 Ry

     iteration #  9     ecut=    40.00 Ry     beta= 0.05
     Davidson diagonalization with overlap
     ethr =  4.40E-08,  avg # of iterations =  4.2

     total cpu time spent up to now is       32.3 secs

     total energy              =    -287.03273084 Ry
     estimated scf accuracy    <       0.00004030 Ry

     iteration # 10     ecut=    40.00 Ry     beta= 0.05
     Davidson diagonalization with overlap
     ethr =  4.20E-08,  avg # of iterations =  1.0

     total cpu time spent up to now is       32.7 secs

     total energy              =    -287.03272915 Ry
     estimated scf accuracy    <       0.00001472 Ry

     iteration # 11     ecut=    40.00 Ry     beta= 0.05
     Davidson diagonalization with overlap
     ethr =  1.53E-08,  avg # of iterations =  2.5

     total cpu time spent up to now is       33.2 secs

     total energy              =    -287.03273368 Ry
     estimated scf accuracy    <       0.00000654 Ry

     iteration # 12     ecut=    40.00 Ry     beta= 0.05
     Davidson diagonalization with overlap
     ethr =  6.81E-09,  avg # of iterations =  1.7

     total cpu time spent up to now is       33.6 secs

     total energy              =    -287.03273271 Ry
     estimated scf accuracy    <       0.00000737 Ry

     iteration # 13     ecut=    40.00 Ry     beta= 0.05
     Davidson diagonalization with overlap
     ethr =  6.81E-09,  avg # of iterations =  1.0

     total cpu time spent up to now is       33.9 secs

     total energy              =    -287.03273269 Ry
     estimated scf accuracy    <       0.00000403 Ry

     iteration # 14     ecut=    40.00 Ry     beta= 0.05
     Davidson diagonalization with overlap
     ethr =  4.20E-09,  avg # of iterations =  1.8

     total cpu time spent up to now is       34.3 secs

     total energy              =    -287.03273334 Ry
     estimated scf accuracy    <       0.00000147 Ry

     iteration # 15     ecut=    40.00 Ry     beta= 0.05
     Davidson diagonalization with overlap
     ethr =  1.53E-09,  avg # of iterations =  1.5

     total cpu time spent up to now is       34.6 secs

     total energy              =    -287.03273360 Ry
     estimated scf accuracy    <       0.00000145 Ry

     iteration # 16     ecut=    40.00 Ry     beta= 0.05
     Davidson diagonalization with overlap
     ethr =  1.51E-09,  avg # of iterations =  1.0

     total cpu time spent up to now is       35.0 secs

     total energy              =    -287.03273477 Ry
     estimated scf accuracy    <       0.00000142 Ry

     iteration # 17     ecut=    40.00 Ry     beta= 0.05
     Davidson diagonalization with overlap
     ethr =  1.48E-09,  avg # of iterations =  1.7

     total cpu time spent up to now is       35.3 secs

     total energy              =    -287.03273542 Ry
     estimated scf accuracy    <       0.00000311 Ry

     iteration # 18     ecut=    40.00 Ry     beta= 0.05
     Davidson diagonalization with overlap
     ethr =  1.48E-09,  avg # of iterations =  1.0

     total cpu time spent up to now is       35.7 secs

     total energy              =    -287.03273570 Ry
     estimated scf accuracy    <       0.00000342 Ry

     iteration # 19     ecut=    40.00 Ry     beta= 0.05
     Davidson diagonalization with overlap
     ethr =  1.48E-09,  avg # of iterations =  1.0

     total cpu time spent up to now is       36.0 secs

     total energy              =    -287.03273590 Ry
     estimated scf accuracy    <       0.00000368 Ry

     iteration # 20     ecut=    40.00 Ry     beta= 0.05
     Davidson diagonalization with overlap
     ethr =  1.48E-09,  avg # of iterations =  1.0

     total cpu time spent up to now is       36.3 secs

     total energy              =    -287.03273485 Ry
     estimated scf accuracy    <       0.00000365 Ry

     iteration # 21     ecut=    40.00 Ry     beta= 0.05
     Davidson diagonalization with overlap
     ethr =  1.48E-09,  avg # of iterations =  2.0

     total cpu time spent up to now is       36.7 secs

     total energy              =    -287.03273473 Ry
     estimated scf accuracy    <       0.00000175 Ry

     iteration # 22     ecut=    40.00 Ry     beta= 0.05
     Davidson diagonalization with overlap
     ethr =  1.48E-09,  avg # of iterations =  1.0

     total cpu time spent up to now is       37.1 secs

     total energy              =    -287.03273485 Ry
     estimated scf accuracy    <       0.00000095 Ry

     iteration # 23     ecut=    40.00 Ry     beta= 0.05
     Davidson diagonalization with overlap
     ethr =  9.85E-10,  avg # of iterations =  1.0

     total cpu time spent up to now is       37.4 secs

     total energy              =    -287.03273515 Ry
     estimated scf accuracy    <       0.00000070 Ry

     iteration # 24     ecut=    40.00 Ry     beta= 0.05
     Davidson diagonalization with overlap
     ethr =  7.25E-10,  avg # of iterations =  1.0

     total cpu time spent up to now is       37.7 secs

     total energy              =    -287.03273503 Ry
     estimated scf accuracy    <       0.00000076 Ry

     iteration # 25     ecut=    40.00 Ry     beta= 0.05
     Davidson diagonalization with overlap
     ethr =  7.25E-10,  avg # of iterations =  1.0

     total cpu time spent up to now is       38.1 secs

     total energy              =    -287.03273501 Ry
     estimated scf accuracy    <       0.00000031 Ry

     iteration # 26     ecut=    40.00 Ry     beta= 0.05
     Davidson diagonalization with overlap
     ethr =  3.18E-10,  avg # of iterations =  2.2

     total cpu time spent up to now is       38.6 secs

     total energy              =    -287.03273515 Ry
     estimated scf accuracy    <       0.00000009 Ry

     iteration # 27     ecut=    40.00 Ry     beta= 0.05
     Davidson diagonalization with overlap
     ethr =  9.79E-11,  avg # of iterations =  4.0

     total cpu time spent up to now is       39.2 secs

     total energy              =    -287.03273529 Ry
     estimated scf accuracy    <       0.00000013 Ry

     iteration # 28     ecut=    40.00 Ry     beta= 0.05
     Davidson diagonalization with overlap
     ethr =  9.79E-11,  avg # of iterations =  1.0

     total cpu time spent up to now is       39.5 secs

     total energy              =    -287.03273530 Ry
     estimated scf accuracy    <       0.00000017 Ry

     iteration # 29     ecut=    40.00 Ry     beta= 0.05
     Davidson diagonalization with overlap
     ethr =  9.79E-11,  avg # of iterations =  1.0

     total cpu time spent up to now is       39.8 secs

     End of self-consistent calculation

          k = 0.0739 0.1281 0.1202 (  3768 PWs)   bands (ev):

   -11.1296 -10.8106 -10.4450  -6.5157  -6.5157  -6.2678  -6.2678  -5.9934
    -5.9934  -5.2746  -5.0993  -4.9234  -4.5915  -4.4523  -4.3167  -3.5263
    -3.5263  -3.3283  -3.3283  -3.1133  -3.1133  -0.4439   0.9858   1.9139
     2.0009   2.0896   2.4271   2.4271   2.5023   2.5024   2.5782   2.5782
     2.7312   4.9393   4.9393   5.7141   5.7556   5.7998   5.8375   5.9183
     5.9546   5.9947   6.0057   6.0057   6.6435   7.1690   7.1690   7.5125
    10.0586  10.6637  10.6637  10.9690  11.5988  11.5988  11.8428  12.6828
    12.6829  14.8954

          k = 0.0739 0.2988 0.1202 (  3791 PWs)   bands (ev):

   -10.6910 -10.3787 -10.0219  -8.1032  -7.8303  -7.5248  -7.0979  -6.8399
    -6.5545  -5.6420  -5.4094  -5.1554  -3.6259  -3.4337  -3.2240  -2.2624
    -2.0843  -1.8931  -1.3210  -1.1537  -0.9751   0.0995   0.5779   0.6950
     0.8185   1.5093   1.5775   1.6759   1.7790   2.8642   2.9368   3.0104
     3.2289   3.2301   4.2624   4.3355   4.3950   4.4090   4.4894   5.0783
     5.1304   5.1831   5.5727   5.9043   5.9896   6.8703   6.9377   7.8900
    10.2568  11.0726  11.5933  11.9194  12.4571  12.8616  13.4296  13.7482
    14.7638  15.3688

          k = 0.0739 0.4696 0.1202 (  3798 PWs)   bands (ev):

    -9.9063  -9.6061  -9.3869  -9.2652  -9.0946  -8.7641  -7.3506  -7.0896
    -6.7992  -5.8808  -5.6429  -5.3822  -2.2678  -2.1144  -1.9550  -0.9871
    -0.8534  -0.8328  -0.7177  -0.7155  -0.5909   0.4328   0.5328   0.6401
     1.0065   1.0647   1.1360   1.2731   1.7011   2.1597   2.2615   2.3869
     2.4484   3.0452   3.6096   3.6774   3.7461   4.0716   4.1105   4.1374
     4.1417   4.2028   4.6770   5.3597   5.8184   6.8030   6.9050   8.1414
    10.5421  11.2878  12.1134  12.3277  13.0323  13.8158  15.5597  16.2022
    16.2506  16.8045

          k = 0.0739-0.3842 0.1202 (  3797 PWs)   bands (ev):

   -10.3415 -10.0345  -9.6848  -8.7851  -8.5018  -8.1833  -7.2661  -7.0064
    -6.7173  -5.7997  -5.5641  -5.3049  -2.9211  -2.7398  -2.5453  -1.5845
    -1.4214  -1.2482  -0.1869  -0.1623  -0.0585  -0.0135   0.0784   0.1453
     0.5308   0.9679   1.0766   1.1925   1.9240   2.4245   3.2027   3.2601
     3.2728   3.3444   3.3522   3.4445   3.6277   3.7346   4.2275   4.5721
     4.6312   4.6908   5.3124   5.4321   5.8532   6.8504   6.9004   8.0543
    10.4239  11.1974  12.0391  12.0423  12.8234  13.6871  14.1966  15.0034
    15.7476  15.9132

          k = 0.0739-0.2135 0.1202 (  3778 PWs)   bands (ev):

   -10.9539 -10.6376 -10.2755  -7.3448  -7.0830  -6.8466  -6.7922  -6.5930
    -6.3121  -5.4220  -5.1993  -4.9608  -4.2579  -4.0727  -3.8618  -2.9197
    -2.7304  -2.5254  -2.4486  -2.2650  -2.0668  -0.2260   1.1956   1.3037
     1.4053   1.5115   2.0932   2.1787   2.2659   2.6037   2.6779   2.7528
     2.9314   4.0870   4.6369   5.1045   5.1585   5.2136   5.2754   5.5480
     5.5910   5.6359   5.7701   5.9244   6.6512   6.7846   7.0511   7.6904
    10.1156  10.9853  11.1045  11.6391  11.8251  12.0207  12.5735  13.0762
    13.6601  15.0838

          k = 0.0739-0.0427 0.1202 (  3763 PWs)   bands (ev):

   -11.2176 -10.8972 -10.5299  -6.1112  -5.8697  -5.6501  -5.6501  -5.6055
    -5.4226  -5.4226  -5.1782  -5.1782  -4.4887  -4.4886  -4.2984  -4.2983
    -4.0821  -4.0821  -4.0623  -3.8597  -3.6388  -0.5533   0.8802   2.3382
     2.3382   2.4137   2.4137   2.4902   2.4902   2.5185   2.5894   2.6304
[...]
     0.2651   1.2050   1.2059   1.2678   1.2691   1.3352   1.3361   1.3936
     1.7991   1.8479   1.8931   2.0589   2.0595   2.7601   2.7911   2.8226
     2.8593   3.1126   3.1135   4.3681   4.3689   6.2297   6.8211   7.3838
     8.5753   9.0650   9.4652  12.7616  12.7617  13.2926  13.2928  13.8720
    13.8723  14.2861

          k = 0.2175 0.5442 0.1140 (  5480 PWs)   bands (ev):

   -10.3163 -10.0913  -9.8462  -9.8185  -9.5999  -9.3623  -9.3247  -9.1125
    -8.8823  -5.2227  -5.0815  -4.9388  -4.2377  -4.1412  -4.0387  -2.6213
    -2.5488  -2.4642  -0.5849  -0.5090  -0.4332  -0.0316   0.0504   0.1349
     0.7706   0.8426   0.8957   0.9458   0.9547   1.0069   1.0689   1.3720
     1.6460   1.7000   1.7591   1.8828   1.9647   2.1796   2.2220   2.2676
     2.4591   3.0248   3.2236   3.7628   4.2904   6.5328   7.1977   7.7922
     8.2067   8.7067   9.2892  13.0652  13.5208  13.9290  14.0213  14.3854
    14.7603  14.8829

          k = 0.2175-0.2930 0.1140 (  5495 PWs)   bands (ev):

   -11.0691 -10.8345 -10.5778  -9.0779  -8.8687  -8.6423  -8.5906  -8.3877
    -8.1687  -5.8556  -5.7056  -5.5536  -4.6438  -4.5274  -4.3944  -2.1354
    -2.0184  -1.8956  -1.6732  -1.5591  -1.4391  -1.1993  -1.1042  -1.0031
    -0.1440   0.8552   0.9236   0.9957   0.9998   1.5905   1.6487   1.7102
     2.2470   2.3858   2.5072   2.5551   2.6026   2.8204   3.2883   3.4064
     3.4395   3.4754   3.8306   4.5227   5.0174   5.6914   6.3494   6.9822
     8.9161   9.4171   9.8834  11.5933  12.1910  12.2714  12.8527  12.8838
    13.5676  13.8965

          k = 0.2175-0.1256 0.1140 (  5484 PWs)   bands (ev):

   -11.4901 -11.2502 -10.9869  -8.5073  -8.3055  -8.0876  -7.0847  -7.0845
    -6.9030  -6.9029  -6.7087  -6.7086  -4.1872  -4.1872  -4.0461  -4.0461
    -3.8957  -3.8956  -2.8419  -2.7114  -2.5735  -0.6596   0.4169   0.4171
     0.4903   0.4905   0.5014   0.5672   0.5675   1.8329   1.8827   1.9125
     1.9351   2.8925   3.5904   3.6363   3.6840   3.8861   4.2461   4.2801
     4.3158   4.4453   4.4456   5.0398   5.2852   5.2854   6.1781   6.1782
     9.6137   9.6138  10.2354  10.2355  10.9672  10.9674  11.1140  11.8127
    12.6314  13.4109

          k = 0.3625 0.6279 0.1140 (  5480 PWs)   bands (ev):

   -10.2333 -10.2326 -10.0095 -10.0086  -9.7655  -9.7648  -8.7539  -8.5490
    -8.3276  -5.9614  -5.7975  -5.6237  -3.6559  -3.5640  -3.4733  -2.2965
    -2.2360  -2.1663  -1.2083  -1.1375  -1.0682   0.1023   0.1524   0.2083
     0.5170   0.5179   0.5991   0.6002   0.6854   0.6863   0.8733   0.8740
     1.9783   1.9792   2.3883   2.3901   2.4384   2.4410   2.4917   2.4935
     2.6422   3.3122   3.3131   3.6689   4.8848   5.7968   6.5880   7.4321
     8.7378   9.2828   9.8901  12.1405  12.6103  13.1259  14.6760  14.6769
    14.9129  14.9135

          k = 0.3625-0.2093 0.1140 (  5499 PWs)   bands (ev):

   -10.8173 -10.5859 -10.3331  -9.8178  -9.5992  -9.3615  -7.3972  -7.3971
    -7.2104  -7.2103  -7.0101  -7.0100  -2.8988  -2.8987  -2.7847  -2.7847
    -2.6665  -2.6665  -0.8608  -0.8607  -0.7786  -0.7784  -0.6892  -0.6890
    -0.6070  -0.5037  -0.3952   0.1626   1.2942   1.3686   1.6285   1.7041
     1.7802   2.4530   2.4686   2.5157   2.5653   2.6686   3.3294   3.3715
     3.4161   3.7531   4.2021   4.2023   5.1254   5.1256   6.1786   6.1788
    10.2131  10.2134  10.7553  10.7555  11.3500  11.3501  13.6034  14.1732
    14.1833  14.8275

     the Fermi energy is     7.9995 ev

!    total energy              =    -287.17903802 Ry
     estimated scf accuracy    <          5.9E-09 Ry
     smearing contrib. (-TS)   =      -0.00012314 Ry
     internal energy E=F+TS    =    -287.17891487 Ry

     The total energy is F=E-TS. E is the sum of the following terms:
     one-electron contribution =     -33.43032743 Ry
     hartree contribution      =      68.96614781 Ry
     xc contribution           =    -100.02256830 Ry
     ewald contribution        =    -222.69216696 Ry

     convergence has been achieved in  28 iterations

     Forces acting on atoms (cartesian axes, Ry/au):

     atom    1 type  1   force =    -0.00000000   -0.00000000    0.00000770
     atom    2 type  1   force =     0.00000000    0.00000000    0.00000000
     atom    3 type  1   force =    -0.00000000   -0.00000000   -0.00000770
     atom    4 type  1   force =    -0.00000000    0.00046849   -0.00004711
     atom    5 type  1   force =     0.00006537    0.00003774    0.00000000
     atom    6 type  1   force =    -0.00000000    0.00046849    0.00004711
     atom    7 type  1   force =    -0.00000000    0.00033664    0.00001112
     atom    8 type  1   force =    -0.00000000    0.00008543   -0.00000000
     atom    9 type  1   force =    -0.00000000    0.00033664   -0.00001112
     atom   10 type  1   force =     0.00000000    0.00000000   -0.00004771
     atom   11 type  1   force =    -0.00006537    0.00003774   -0.00000000
     atom   12 type  1   force =    -0.00000000   -0.00000000    0.00004771
     atom   13 type  1   force =    -0.00029154   -0.00016832    0.00001112
     atom   14 type  1   force =    -0.00007399   -0.00004272    0.00000000
     atom   15 type  1   force =    -0.00029154   -0.00016832   -0.00001112
     atom   16 type  1   force =     0.00040572   -0.00023424   -0.00004711
     atom   17 type  1   force =     0.00000000   -0.00000000    0.00000000
     atom   18 type  1   force =     0.00040572   -0.00023424    0.00004711
     atom   19 type  1   force =     0.00029154   -0.00016832    0.00001112
     atom   20 type  1   force =     0.00007399   -0.00004272    0.00000000
     atom   21 type  1   force =     0.00029154   -0.00016832   -0.00001112
     atom   22 type  1   force =    -0.00040572   -0.00023424   -0.00004711
     atom   23 type  1   force =     0.00000000   -0.00007549    0.00000000
     atom   24 type  1   force =    -0.00040572   -0.00023424    0.00004711
     The non-local contrib.  to forces
     atom    1 type  1   force =    -0.00000000    0.00000000    0.00190240
     atom    2 type  1   force =     0.00000000   -0.00000000    0.00000000
     atom    3 type  1   force =    -0.00000000   -0.00000000   -0.00190240
     atom    4 type  1   force =    -0.00000000    0.00050185    0.00134553
     atom    5 type  1   force =     0.00008010    0.00004624    0.00000000
     atom    6 type  1   force =    -0.00000000    0.00050185   -0.00134553
     atom    7 type  1   force =     0.00000000    0.00033650    0.00191158
     atom    8 type  1   force =    -0.00000000    0.00010411    0.00000000
     atom    9 type  1   force =    -0.00000000    0.00033650   -0.00191158
     atom   10 type  1   force =     0.00000000    0.00000000    0.00134479
     atom   11 type  1   force =    -0.00008010    0.00004624   -0.00000000
     atom   12 type  1   force =     0.00000000   -0.00000000   -0.00134479
     atom   13 type  1   force =    -0.00029142   -0.00016825    0.00191158
     atom   14 type  1   force =    -0.00009016   -0.00005205   -0.00000000
     atom   15 type  1   force =    -0.00029142   -0.00016825   -0.00191158
     atom   16 type  1   force =     0.00043461   -0.00025092    0.00134553
     atom   17 type  1   force =    -0.00000000    0.00000000   -0.00000000
     atom   18 type  1   force =     0.00043461   -0.00025092   -0.00134553
     atom   19 type  1   force =     0.00029142   -0.00016825    0.00191158
     atom   20 type  1   force =     0.00009016   -0.00005205    0.00000000
     atom   21 type  1   force =     0.00029142   -0.00016825   -0.00191158
     atom   22 type  1   force =    -0.00043461   -0.00025092    0.00134553
     atom   23 type  1   force =    -0.00000000   -0.00009249   -0.00000000
     atom   24 type  1   force =    -0.00043461   -0.00025092   -0.00134553
     The ionic contribution  to forces
     atom    1 type  1   force =    -0.00001753   -0.00001014   -1.00685566
     atom    2 type  1   force =    -0.00000003   -0.00002025   -0.00004405
     atom    3 type  1   force =    -0.00001753   -0.00001014    1.00689970
     atom    4 type  1   force =     0.00001755    0.00122548   -1.01668209
     atom    5 type  1   force =     0.00054586    0.00033545   -0.00004371
     atom    6 type  1   force =     0.00001755    0.00122548    1.01672580
     atom    7 type  1   force =    -0.00001754    0.00029504   -1.00691860
     atom    8 type  1   force =    -0.00000003    0.00055997   -0.00004404
     atom    9 type  1   force =    -0.00001754    0.00029504    1.00696264
     atom   10 type  1   force =     0.00001756    0.00001012   -1.01668081
     atom   11 type  1   force =    -0.00054592    0.00033545   -0.00004371
     atom   12 type  1   force =     0.00001756    0.00001012    1.01672452
     atom   13 type  1   force =    -0.00028181   -0.00016272   -1.00691860
     atom   14 type  1   force =    -0.00050252   -0.00031036   -0.00004404
     atom   15 type  1   force =    -0.00028181   -0.00016272    1.00696264
     atom   16 type  1   force =     0.00107008   -0.00059757   -1.01668209
     atom   17 type  1   force =    -0.00000003    0.00002028   -0.00004371
     atom   18 type  1   force =     0.00107008   -0.00059757    1.01672580
     atom   19 type  1   force =     0.00024676   -0.00016273   -1.00691860
     atom   20 type  1   force =     0.00050246   -0.00031036   -0.00004404
     atom   21 type  1   force =     0.00024676   -0.00016273    1.00696264
     atom   22 type  1   force =    -0.00103495   -0.00059755   -1.01668209
     atom   23 type  1   force =    -0.00000003   -0.00061006   -0.00004371
     atom   24 type  1   force =    -0.00103495   -0.00059755    1.01672580
     The local contribution  to forces
     atom    1 type  1   force =     0.00000000   -0.00000000    1.00521572
     atom    2 type  1   force =    -0.00000000    0.00000000   -0.00000000
     atom    3 type  1   force =     0.00000000   -0.00000000   -1.00498639
     atom    4 type  1   force =     0.00001308   -0.00123071    1.01544288
     atom    5 type  1   force =    -0.00055746   -0.00030670   -0.00000000
     atom    6 type  1   force =     0.00001308   -0.00123071   -1.01521391
     atom    7 type  1   force =     0.00000000   -0.00029966    1.00527290
     atom    8 type  1   force =     0.00000000   -0.00059427   -0.00000000
     atom    9 type  1   force =     0.00000000   -0.00029966   -1.00504362
     atom   10 type  1   force =     0.00001307    0.00000754    1.01544195
     atom   11 type  1   force =     0.00055746   -0.00030670   -0.00000000
     atom   12 type  1   force =     0.00001307    0.00000754   -1.01521301
     atom   13 type  1   force =     0.00025952    0.00014983    1.00527290
     atom   14 type  1   force =     0.00051465    0.00029714   -0.00000000
     atom   15 type  1   force =     0.00025952    0.00014983   -1.00504362
     atom   16 type  1   force =    -0.00105929    0.00062668    1.01544288
     atom   17 type  1   force =     0.00000000    0.00001515   -0.00000000
     atom   18 type  1   force =    -0.00105929    0.00062668   -1.01521391
     atom   19 type  1   force =    -0.00025952    0.00014983    1.00527290
     atom   20 type  1   force =    -0.00051465    0.00029714   -0.00000000
     atom   21 type  1   force =    -0.00025952    0.00014983   -1.00504362
     atom   22 type  1   force =     0.00108542    0.00062667    1.01544288
     atom   23 type  1   force =     0.00000000    0.00065885   -0.00000000
     atom   24 type  1   force =     0.00108542    0.00062667   -1.01521391
     The core correction contribution to forces
     atom    1 type  1   force =     0.00000000    0.00000000   -0.00008573
     atom    2 type  1   force =    -0.00000000    0.00000000   -0.00000000
     atom    3 type  1   force =     0.00000000    0.00000000    0.00008730
     atom    4 type  1   force =    -0.00000038   -0.00001142    0.00001413
     atom    5 type  1   force =    -0.00000317   -0.00000226   -0.00000000
     atom    6 type  1   force =    -0.00000038   -0.00001142   -0.00001263
     atom    7 type  1   force =     0.00000000   -0.00000497   -0.00008579
     atom    8 type  1   force =    -0.00000000   -0.00000388   -0.00000000
     atom    9 type  1   force =     0.00000000   -0.00000497    0.00008736
     atom   10 type  1   force =    -0.00000038   -0.00000022    0.00001411
     atom   11 type  1   force =     0.00000317   -0.00000226   -0.00000000
     atom   12 type  1   force =    -0.00000038   -0.00000022   -0.00001260
     atom   13 type  1   force =     0.00000430    0.00000248   -0.00008579
     atom   14 type  1   force =     0.00000336    0.00000194   -0.00000000
     atom   15 type  1   force =     0.00000430    0.00000248    0.00008736
     atom   16 type  1   force =    -0.00001008    0.00000539    0.00001413
     atom   17 type  1   force =    -0.00000000   -0.00000043   -0.00000000
     atom   18 type  1   force =    -0.00001008    0.00000539   -0.00001263
     atom   19 type  1   force =    -0.00000430    0.00000248   -0.00008579
     atom   20 type  1   force =    -0.00000336    0.00000194   -0.00000000
     atom   21 type  1   force =    -0.00000430    0.00000248    0.00008736
     atom   22 type  1   force =     0.00000933    0.00000539    0.00001413
     atom   23 type  1   force =    -0.00000000    0.00000323   -0.00000000
     atom   24 type  1   force =     0.00000933    0.00000539   -0.00001263
     The Hubbard contrib.    to forces
     atom    1 type  1   force =     0.00000000    0.00000000    0.00000000
     atom    2 type  1   force =     0.00000000    0.00000000    0.00000000
     atom    3 type  1   force =     0.00000000    0.00000000    0.00000000
     atom    4 type  1   force =     0.00000000    0.00000000    0.00000000
     atom    5 type  1   force =     0.00000000    0.00000000    0.00000000
     atom    6 type  1   force =     0.00000000    0.00000000    0.00000000
     atom    7 type  1   force =     0.00000000    0.00000000    0.00000000
     atom    8 type  1   force =     0.00000000    0.00000000    0.00000000
     atom    9 type  1   force =     0.00000000    0.00000000    0.00000000
     atom   10 type  1   force =     0.00000000    0.00000000    0.00000000
     atom   11 type  1   force =     0.00000000    0.00000000    0.00000000
     atom   12 type  1   force =     0.00000000    0.00000000    0.00000000
     atom   13 type  1   force =     0.00000000    0.00000000    0.00000000
     atom   14 type  1   force =     0.00000000    0.00000000    0.00000000
     atom   15 type  1   force =     0.00000000    0.00000000    0.00000000
     atom   16 type  1   force =     0.00000000    0.00000000    0.00000000
     atom   17 type  1   force =     0.00000000    0.00000000    0.00000000
     atom   18 type  1   force =     0.00000000    0.00000000    0.00000000
     atom   19 type  1   force =     0.00000000    0.00000000    0.00000000
     atom   20 type  1   force =     0.00000000    0.00000000    0.00000000
     atom   21 type  1   force =     0.00000000    0.00000000    0.00000000
     atom   22 type  1   force =     0.00000000    0.00000000    0.00000000
     atom   23 type  1   force =     0.00000000    0.00000000    0.00000000
     atom   24 type  1   force =     0.00000000    0.00000000    0.00000000
     The SCF correction term to forces
     atom    1 type  1   force =     0.00000000    0.00000000   -0.00003667
     atom    2 type  1   force =     0.00000000    0.00000000    0.00001116
     atom    3 type  1   force =     0.00000000    0.00000000    0.00002647
     atom    4 type  1   force =    -0.00000000    0.00000075   -0.00003558
     atom    5 type  1   force =     0.00000002    0.00000001    0.00001116
     atom    6 type  1   force =    -0.00000000    0.00000075    0.00002536
     atom    7 type  1   force =     0.00000000   -0.00000040   -0.00003664
     atom    8 type  1   force =     0.00000000   -0.00000075    0.00001116
     atom    9 type  1   force =     0.00000000   -0.00000040    0.00002643
     atom   10 type  1   force =    -0.00000000   -0.00000000   -0.00003577
     atom   11 type  1   force =    -0.00000002    0.00000001    0.00001116
     atom   12 type  1   force =    -0.00000000   -0.00000000    0.00002555
     atom   13 type  1   force =     0.00000035    0.00000020   -0.00003664
     atom   14 type  1   force =     0.00000065    0.00000038    0.00001116
     atom   15 type  1   force =     0.00000035    0.00000020    0.00002643
     atom   16 type  1   force =     0.00000065   -0.00000038   -0.00003558
     atom   17 type  1   force =     0.00000000   -0.00000000    0.00001116
     atom   18 type  1   force =     0.00000065   -0.00000038    0.00002536
     atom   19 type  1   force =    -0.00000035    0.00000020   -0.00003664
     atom   20 type  1   force =    -0.00000065    0.00000038    0.00001116
     atom   21 type  1   force =    -0.00000035    0.00000020    0.00002643
     atom   22 type  1   force =    -0.00000065   -0.00000038   -0.00003558
     atom   23 type  1   force =     0.00000000   -0.00000002    0.00001116
     atom   24 type  1   force =    -0.00000065   -0.00000038    0.00002536

     Total force =     0.001433     Total SCF correction =     0.000130


     Computing stress (Cartesian axis) and pressure

          total   stress  (Ry/bohr**3)                   (kbar)     P=       61.59
   0.00046222  -0.00000000  -0.00000000           67.99       -0.00       -0.00
  -0.00000000   0.00046222  -0.00000000           -0.00       67.99       -0.00
  -0.00000000  -0.00000000   0.00033162           -0.00       -0.00       48.78


     Writing all to output data dir ../../results/server/graphene/graphene.save/
 
     init_run     :      0.86s CPU      1.23s WALL (       2 calls)
     electrons    :    149.30s CPU    154.55s WALL (      16 calls)
     update_pot   :      1.68s CPU      1.70s WALL (      14 calls)
     forces       :      2.25s CPU      2.73s WALL (      16 calls)
     stress       :     22.80s CPU     23.08s WALL (      16 calls)

     Called by init_run:
     wfcinit      :      0.47s CPU      0.58s WALL (       2 calls)
     potinit      :      0.08s CPU      0.17s WALL (       2 calls)
     hinit0       :      0.20s CPU      0.33s WALL (       2 calls)

     Called by electrons:
     c_bands      :    130.19s CPU    134.00s WALL (     315 calls)
     sum_band     :     16.64s CPU     17.26s WALL (     315 calls)
     v_of_rho     :      0.37s CPU      0.37s WALL (     329 calls)
     newd         :      1.58s CPU      1.61s WALL (     329 calls)
     mix_rho      :      0.33s CPU      0.34s WALL (     315 calls)

     Called by c_bands:
     init_us_2    :      1.14s CPU      1.20s WALL (    7968 calls)
     init_us_2:cp :      1.12s CPU      1.18s WALL (    7968 calls)
     cegterg      :    125.61s CPU    129.01s WALL (    3781 calls)

     Called by *egterg:
     cdiaghg      :     44.72s CPU     45.14s WALL (   13303 calls)
     h_psi        :     64.47s CPU     67.33s WALL (   13520 calls)
     s_psi        :      3.60s CPU      3.67s WALL (   13520 calls)
     g_psi        :      0.28s CPU      0.29s WALL (    9715 calls)

     Called by h_psi:
     h_psi:calbec :      5.07s CPU      5.30s WALL (   13520 calls)
     vloc_psi     :     55.11s CPU     57.61s WALL (   13520 calls)
     add_vuspsi   :      3.85s CPU      3.97s WALL (   13520 calls)

     General routines
     calbec       :      8.11s CPU      8.42s WALL (   18260 calls)
     fft          :      0.54s CPU      0.77s WALL (    2086 calls)
     ffts         :      0.05s CPU      0.05s WALL (     644 calls)
     fftw         :     53.64s CPU     56.02s WALL ( 1362114 calls)
     interpolate  :      0.11s CPU      0.19s WALL (     329 calls)
 
     Parallel routines
 
     PWSCF        :   2m57.23s CPU   3m 4.06s WALL

 
   This run was terminated on:  14:33:53   3Sep2024            

=------------------------------------------------------------------------------=
   JOB DONE.
=------------------------------------------------------------------------------=
