
     Program PWSCF v.7.2 starts on  2Sep2024 at 21:28:36 

     This program is part of the open-source Quantum ESPRESSO suite
     for quantum simulation of materials; please cite
         "P. Giannozzi et al., J. Phys.:Condens. Matter 21 395502 (2009);
         "P. Giannozzi et al., J. Phys.:Condens. Matter 29 465901 (2017);
         "P. Giannozzi et al., J. Chem. Phys. 152 154105 (2020);
          URL http://www.quantum-espresso.org", 
     in publications or presentations arising from this work. More details at
     http://www.quantum-espresso.org/quote

     Parallel version (MPI & OpenMP), running on      96 processor cores
     Number of MPI processes:                96
     Threads/MPI process:                     1

     MPI processes distributed on     2 nodes
     366870 MiB available memory on the printing compute node when the environment starts
 
     Reading input from hydrogen_absorption6.in

     Current dimensions of program PWSCF are:
     Max number of different atomic species (ntypx) = 10
     Max number of k-points (npk) =  40000
     Max angular momentum in pseudopotentials (lmaxx) =  4

     IMPORTANT: XC functional enforced from input :
     Exchange-correlation= LDA
                           (   1   1   0   0   0   0   0)
     Any further DFT definition will be discarded
     Please, verify this is what you really want

 
     K-points division:     npool     =       2
     R & G space division:  proc/nbgrp/npool/nimage =      48
     Subspace diagonalization in iterative solution of the eigenvalue problem:
     a serial algorithm will be used

 
     Parallelization info
     --------------------
     sticks:   dense  smooth     PW     G-vecs:    dense   smooth      PW
     Min          48      19      5                 5459     1379     218
     Max          49      20      6                 5480     1399     235
     Sum        2347     955    283               262855    66543   10861
 
     Using Slab Decomposition
 

     Title: 
     6H2_absorption_C                                                           


     bravais-lattice index     =            0
     lattice parameter (alat)  =       8.0000  a.u.
     unit-cell volume          =    1945.4906 (a.u.)^3
     number of atoms/cell      =           36
     number of atomic types    =            2
     number of electrons       =       108.00
     number of Kohn-Sham states=           65
     kinetic-energy cutoff     =      40.0000  Ry
     charge density cutoff     =     400.0000  Ry
     scf convergence threshold =      1.0E-06
     mixing beta               =       0.0500
     number of iterations used =            8  local-TF  mixing
     energy convergence thresh.=      1.0E-04
     force convergence thresh. =      1.0E-03
     press convergence thresh. =      5.0E-01
     Exchange-correlation= LDA
                           (   1   1   0   0   0   0   0)
     nstep                     =           50


     celldm(1)=   8.000004  celldm(2)=   0.000000  celldm(3)=   0.000000
     celldm(4)=   0.000000  celldm(5)=   0.000000  celldm(6)=   0.000000

     crystal axes: (cart. coord. in units of alat)
               a(1) = (   1.155385   0.002645  -0.008156 )  
               a(2) = (  -0.580804   0.992098  -0.116000 )  
               a(3) = (  -0.004796  -0.251267   3.340924 )  

     reciprocal axes: (cart. coord. in units 2 pi/alat)
               b(1) = (  0.864623  0.510814  0.039659 )  
               b(2) = ( -0.001786  1.015852  0.076398 )  
               b(3) = (  0.002049  0.036518  0.302068 )  


     PseudoPot. # 1 for C  read from file:
     ../../potentials/C.pz-n-rrkjus_psl.0.1.UPF
     MD5 check sum: a3cecbabebb5b3a1aff122f23eb09bb0
     Pseudo is Ultrasoft + core correction, Zval =  4.0
     Generated using "atomic" code by A. Dal Corso  v.5.0.2 svn rev. 9415
     Using radial grid of 1073 points,  4 beta functions with: 
                l(1) =   0
                l(2) =   0
                l(3) =   1
                l(4) =   1
     Q(r) pseudized with 0 coefficients 


     PseudoPot. # 2 for H  read from file:
     ../../potentials/H.pz-rrkjus_psl.0.1.UPF
     MD5 check sum: 1467ebfaa2880178e80d097b970df8c7
     Pseudo is Ultrasoft, Zval =  1.0
     Generated using "atomic" code by A. Dal Corso  v.5.0.2 svn rev. 9415
     Using radial grid of  929 points,  2 beta functions with: 
                l(1) =   0
                l(2) =   0
     Q(r) pseudized with 0 coefficients 


     atomic species   valence    mass     pseudopotential
        C              4.00    12.01100     C ( 1.00)
        H              1.00     1.00784     H ( 1.00)

     No symmetry found



   Cartesian axes

     site n.     atom                  positions (alat units)
         1           C   tau(   1) = (  -0.0109923  -0.1404455   0.5286804  )
         2           C   tau(   2) = (  -0.0064169  -0.0414640   1.3069995  )
         3           C   tau(   3) = (   0.0081653  -0.1672714   3.0575568  )
         4           C   tau(   4) = (  -0.0120245   0.1907191   0.4883648  )
         5           C   tau(   5) = (   0.2819401   0.1250029   1.2861012  )
         6           C   tau(   6) = (   0.0071117   0.1638104   3.0171017  )
         7           C   tau(   7) = (   0.5666990  -0.1391250   0.5245773  )
         8           C   tau(   8) = (   0.5714152  -0.0400316   1.3033932  )
         9           C   tau(   9) = (   0.5857338  -0.1659920   3.0532215  )
        10           C   tau(  10) = (   0.5656667   0.1920427   0.4842603  )
        11           C   tau(  11) = (   0.8595895   0.1261686   1.2798081  )
        12           C   tau(  12) = (   0.5847110   0.1651673   3.0131785  )
        13           C   tau(  13) = (  -0.3013957   0.3555894   0.4705510  )
        14           C   tau(  14) = (  -0.2968388   0.4542365   1.2457185  )
        15           C   tau(  15) = (  -0.2823200   0.3288493   2.9993365  )
        16           C   tau(  16) = (  -0.3024334   0.6867682   0.4303535  )
        17           C   tau(  17) = (  -0.0086348   0.6207628   1.2264600  )
        18           C   tau(  18) = (  -0.2832758   0.6599675   2.9596816  )
        19           C   tau(  19) = (   0.2763016   0.3569220   0.4665894  )
        20           C   tau(  20) = (   0.2810006   0.4560080   1.2450304  )
        21           C   tau(  21) = (   0.2953285   0.3301442   2.9956171  )
        22           C   tau(  22) = (   0.2752678   0.6881021   0.4263673  )
        23           C   tau(  23) = (   0.5691890   0.6220108   1.2210508  )
        24           C   tau(  24) = (   0.2944155   0.6611709   2.9551420  )
        25           H   tau(  25) = (   0.2252932   0.8211960   1.9888216  )
        26           H   tau(  26) = (   0.3249598   0.9729417   1.9686685  )
        27           H   tau(  27) = (  -0.0565105   0.4756124   2.2780458  )
        28           H   tau(  28) = (   0.0648577   0.3513840   2.3346787  )
        29           H   tau(  29) = (   0.5091132   0.4828727   2.3611614  )
        30           H   tau(  30) = (   0.6488067   0.3690208   2.3903007  )
        31           H   tau(  31) = (   0.2155977  -0.1156886   2.3946789  )
        32           H   tau(  32) = (   0.3758316  -0.0310269   2.4156011  )
        33           H   tau(  33) = (  -0.4314600   0.4671327   1.8960952  )
        34           H   tau(  34) = (  -0.3175520   0.5958557   1.8364569  )
        35           H   tau(  35) = (   0.5955321   0.6888175   2.0400904  )
        36           H   tau(  36) = (   0.3574531   0.7861300   2.0242567  )

     number of k points=    36  Gaussian smearing, width (Ry)=  0.0100
                       cart. coord. in units 2pi/alat
        k(    1) = (   0.0724152   0.1363517   0.0851884), wk =   0.0555556
        k(    2) = (   0.0713909   0.1180925  -0.0658455), wk =   0.0555556
        k(    3) = (   0.0721175   0.3056604   0.0979215), wk =   0.0555556
        k(    4) = (   0.0710932   0.2874012  -0.0531124), wk =   0.0555556
        k(    5) = (   0.0718198   0.4749690   0.1106545), wk =   0.0555556
        k(    6) = (   0.0707955   0.4567098  -0.0403794), wk =   0.0555556
        k(    7) = (   0.0733084  -0.3715742   0.0469892), wk =   0.0555556
        k(    8) = (   0.0722840  -0.3898334  -0.1040447), wk =   0.0555556
        k(    9) = (   0.0730107  -0.2022656   0.0597223), wk =   0.0555556
        k(   10) = (   0.0719863  -0.2205247  -0.0913117), wk =   0.0555556
        k(   11) = (   0.0727129  -0.0329569   0.0724553), wk =   0.0555556
        k(   12) = (   0.0716886  -0.0512161  -0.0785786), wk =   0.0555556
        k(   13) = (   0.2165191   0.2214873   0.0917982), wk =   0.0555556
        k(   14) = (   0.2154948   0.2032282  -0.0592357), wk =   0.0555556
        k(   15) = (   0.2162214   0.3907960   0.1045313), wk =   0.0555556
        k(   16) = (   0.2151970   0.3725368  -0.0465026), wk =   0.0555556
        k(   17) = (   0.2159237   0.5601046   0.1172643), wk =   0.0555556
        k(   18) = (   0.2148993   0.5418455  -0.0337696), wk =   0.0555556
        k(   19) = (   0.2174122  -0.2864386   0.0535990), wk =   0.0555556
        k(   20) = (   0.2163879  -0.3046978  -0.0974349), wk =   0.0555556
        k(   21) = (   0.2171145  -0.1171299   0.0663321), wk =   0.0555556
        k(   22) = (   0.2160902  -0.1353891  -0.0847019), wk =   0.0555556
        k(   23) = (   0.2168168   0.0521787   0.0790651), wk =   0.0555556
        k(   24) = (   0.2157925   0.0339195  -0.0719688), wk =   0.0555556
        k(   25) = (   0.3606229   0.3066230   0.0984080), wk =   0.0555556
        k(   26) = (   0.3595986   0.2883638  -0.0526259), wk =   0.0555556
        k(   27) = (   0.3603252   0.4759316   0.1111411), wk =   0.0555556
        k(   28) = (   0.3593009   0.4576724  -0.0398928), wk =   0.0555556
        k(   29) = (   0.3600275   0.6452402   0.1238742), wk =   0.0555556
        k(   30) = (   0.3590032   0.6269811  -0.0271598), wk =   0.0555556
        k(   31) = (   0.3615161  -0.2013030   0.0602088), wk =   0.0555556
        k(   32) = (   0.3604917  -0.2195621  -0.0908251), wk =   0.0555556
        k(   33) = (   0.3612184  -0.0319943   0.0729419), wk =   0.0555556
        k(   34) = (   0.3601940  -0.0502535  -0.0780920), wk =   0.0555556
        k(   35) = (   0.3609206   0.1373143   0.0856749), wk =   0.0555556
        k(   36) = (   0.3598963   0.1190552  -0.0653590), wk =   0.0555556

     Dense  grid:   262855 G-vectors     FFT dimensions: (  60,  60, 180)

     Smooth grid:    66543 G-vectors     FFT dimensions: (  40,  40, 108)

     Estimated max dynamical RAM per process >      13.85 MB

     Estimated total dynamical RAM >       1.24 GB

     Check: negative core charge=   -0.000002

     Initial potential from superposition of free atoms

     starting charge     107.9990, renormalised to     108.0000
     Starting wfcs are  108 randomized atomic wfcs

     total cpu time spent up to now is        1.0 secs

     Self-consistent Calculation

     iteration #  1     ecut=    40.00 Ry     beta= 0.05
     Davidson diagonalization with overlap
     ethr =  1.00E-02,  avg # of iterations =  3.5

     total cpu time spent up to now is        2.8 secs

     total energy              =    -301.35962045 Ry
     estimated scf accuracy    <       2.77908872 Ry

     iteration #  2     ecut=    40.00 Ry     beta= 0.05
     Davidson diagonalization with overlap
     ethr =  2.57E-03,  avg # of iterations =  2.1

     total cpu time spent up to now is        3.8 secs

     total energy              =    -302.49477558 Ry
     estimated scf accuracy    <       3.14170552 Ry

     iteration #  3     ecut=    40.00 Ry     beta= 0.05
     Davidson diagonalization with overlap
     ethr =  2.57E-03,  avg # of iterations =  1.1

     total cpu time spent up to now is        4.7 secs

     total energy              =    -300.25964059 Ry
     estimated scf accuracy    <       5.58384100 Ry

     iteration #  4     ecut=    40.00 Ry     beta= 0.05
     Davidson diagonalization with overlap
     ethr =  2.57E-03,  avg # of iterations =  1.7

     total cpu time spent up to now is        5.8 secs

     total energy              =    -300.30944512 Ry
     estimated scf accuracy    <       0.66836115 Ry

     iteration #  5     ecut=    40.00 Ry     beta= 0.05
     Davidson diagonalization with overlap
     ethr =  6.19E-04,  avg # of iterations =  5.1

     total cpu time spent up to now is        7.5 secs

     total energy              =    -300.27066903 Ry
     estimated scf accuracy    <       0.28092942 Ry

     iteration #  6     ecut=    40.00 Ry     beta= 0.05
     Davidson diagonalization with overlap
     c_bands:  1 eigenvalues not converged
     c_bands:  1 eigenvalues not converged
     ethr =  2.60E-04,  avg # of iterations = 10.4

     total cpu time spent up to now is        9.8 secs

     total energy              =    -300.36146320 Ry
     estimated scf accuracy    <       0.06035442 Ry

     iteration #  7     ecut=    40.00 Ry     beta= 0.05
     Davidson diagonalization with overlap
     ethr =  5.59E-05,  avg # of iterations =  7.1

     total cpu time spent up to now is       11.9 secs

     total energy              =    -300.38205657 Ry
     estimated scf accuracy    <       0.05430118 Ry

     iteration #  8     ecut=    40.00 Ry     beta= 0.05
     Davidson diagonalization with overlap
     ethr =  5.03E-05,  avg # of iterations =  2.4

     total cpu time spent up to now is       13.2 secs

     total energy              =    -300.34567636 Ry
     estimated scf accuracy    <       0.10952333 Ry

     iteration #  9     ecut=    40.00 Ry     beta= 0.05
     Davidson diagonalization with overlap
     ethr =  5.03E-05,  avg # of iterations =  2.4

     total cpu time spent up to now is       14.4 secs

     total energy              =    -300.35461354 Ry
     estimated scf accuracy    <       0.01466057 Ry

     iteration # 10     ecut=    40.00 Ry     beta= 0.05
     Davidson diagonalization with overlap
     ethr =  1.36E-05,  avg # of iterations =  6.5

     total cpu time spent up to now is       15.9 secs

     total energy              =    -300.35493114 Ry
     estimated scf accuracy    <       0.01179674 Ry

     iteration # 11     ecut=    40.00 Ry     beta= 0.05
     Davidson diagonalization with overlap
     ethr =  1.09E-05,  avg # of iterations =  2.6

     total cpu time spent up to now is       16.8 secs

     total energy              =    -300.35559635 Ry
     estimated scf accuracy    <       0.00519961 Ry

     iteration # 12     ecut=    40.00 Ry     beta= 0.05
     Davidson diagonalization with overlap
     c_bands:  1 eigenvalues not converged
     ethr =  4.81E-06,  avg # of iterations =  7.7

     total cpu time spent up to now is       18.5 secs

     total energy              =    -300.35436425 Ry
     estimated scf accuracy    <       0.00599711 Ry

     iteration # 13     ecut=    40.00 Ry     beta= 0.05
     Davidson diagonalization with overlap
     ethr =  4.81E-06,  avg # of iterations =  3.2

     total cpu time spent up to now is       19.5 secs

     total energy              =    -300.35443219 Ry
     estimated scf accuracy    <       0.00168954 Ry

     iteration # 14     ecut=    40.00 Ry     beta= 0.05
     Davidson diagonalization with overlap
     c_bands:  2 eigenvalues not converged
     c_bands:  3 eigenvalues not converged
     ethr =  1.56E-06,  avg # of iterations =  8.0

     total cpu time spent up to now is       21.7 secs

     total energy              =    -300.35458473 Ry
     estimated scf accuracy    <       0.00123871 Ry

     iteration # 15     ecut=    40.00 Ry     beta= 0.05
     Davidson diagonalization with overlap
     ethr =  1.15E-06,  avg # of iterations =  2.3

     total cpu time spent up to now is       22.5 secs

     total energy              =    -300.35427000 Ry
     estimated scf accuracy    <       0.00085871 Ry

     iteration # 16     ecut=    40.00 Ry     beta= 0.05
     Davidson diagonalization with overlap
     ethr =  7.95E-07,  avg # of iterations =  3.2

     total cpu time spent up to now is       23.5 secs

     total energy              =    -300.35436291 Ry
     estimated scf accuracy    <       0.00013239 Ry

     iteration # 17     ecut=    40.00 Ry     beta= 0.05
     Davidson diagonalization with overlap
     ethr =  1.23E-07,  avg # of iterations =  4.2

     total cpu time spent up to now is       25.4 secs

     total energy              =    -300.35439378 Ry
     estimated scf accuracy    <       0.00009478 Ry

     iteration # 18     ecut=    40.00 Ry     beta= 0.05
     Davidson diagonalization with overlap
     ethr =  8.78E-08,  avg # of iterations =  1.9

     total cpu time spent up to now is       26.3 secs

     total energy              =    -300.35440245 Ry
     estimated scf accuracy    <       0.00007952 Ry

     iteration # 19     ecut=    40.00 Ry     beta= 0.05
     Davidson diagonalization with overlap
     ethr =  7.36E-08,  avg # of iterations =  1.7

     total cpu time spent up to now is       27.3 secs

     total energy              =    -300.35436835 Ry
     estimated scf accuracy    <       0.00008696 Ry

     iteration # 20     ecut=    40.00 Ry     beta= 0.05
     Davidson diagonalization with overlap
     ethr =  7.36E-08,  avg # of iterations =  2.0

     total cpu time spent up to now is       28.8 secs

     total energy              =    -300.35437507 Ry
     estimated scf accuracy    <       0.00002410 Ry

     iteration # 21     ecut=    40.00 Ry     beta= 0.05
     Davidson diagonalization with overlap
     ethr =  2.23E-08,  avg # of iterations =  2.1

     total cpu time spent up to now is       29.8 secs

     total energy              =    -300.35437778 Ry
     estimated scf accuracy    <       0.00001794 Ry

     iteration # 22     ecut=    40.00 Ry     beta= 0.05
     Davidson diagonalization with overlap
     ethr =  1.66E-08,  avg # of iterations =  1.6

     total cpu time spent up to now is       30.6 secs

     total energy              =    -300.35437693 Ry
     estimated scf accuracy    <       0.00001575 Ry

     iteration # 23     ecut=    40.00 Ry     beta= 0.05
     Davidson diagonalization with overlap
     ethr =  1.46E-08,  avg # of iterations =  1.1

     total cpu time spent up to now is       31.4 secs

     total energy              =    -300.35437501 Ry
     estimated scf accuracy    <       0.00001287 Ry

     iteration # 24     ecut=    40.00 Ry     beta= 0.05
     Davidson diagonalization with overlap
     ethr =  1.19E-08,  avg # of iterations =  3.2

     total cpu time spent up to now is       32.4 secs

     total energy              =    -300.35437339 Ry
     estimated scf accuracy    <       0.00001149 Ry

     iteration # 25     ecut=    40.00 Ry     beta= 0.05
     Davidson diagonalization with overlap
     ethr =  1.06E-08,  avg # of iterations =  2.0

     total cpu time spent up to now is       33.3 secs

     total energy              =    -300.35437244 Ry
     estimated scf accuracy    <       0.00000440 Ry

     iteration # 26     ecut=    40.00 Ry     beta= 0.05
     Davidson diagonalization with overlap
     ethr =  4.07E-09,  avg # of iterations =  4.0

     total cpu time spent up to now is       34.7 secs

     total energy              =    -300.35437354 Ry
     estimated scf accuracy    <       0.00000203 Ry

     iteration # 27     ecut=    40.00 Ry     beta= 0.05
     Davidson diagonalization with overlap
     ethr =  1.88E-09,  avg # of iterations =  1.8

     total cpu time spent up to now is       35.6 secs

     total energy              =    -300.35437370 Ry
     estimated scf accuracy    <       0.00000145 Ry

     iteration # 28     ecut=    40.00 Ry     beta= 0.05
     Davidson diagonalization with overlap
     ethr =  1.35E-09,  avg # of iterations =  2.0

     total cpu time spent up to now is       36.7 secs

     total energy              =    -300.35437312 Ry
     estimated scf accuracy    <       0.00000142 Ry

     iteration # 29     ecut=    40.00 Ry     beta= 0.05
     Davidson diagonalization with overlap
     ethr =  1.31E-09,  avg # of iterations =  2.2

     total cpu time spent up to now is       37.7 secs

     End of self-consistent calculation

          k = 0.0724 0.1364 0.0852 (  8311 PWs)   bands (ev):

   -14.7123 -14.6152 -14.4308 -10.3743 -10.3668 -10.3116 -10.2880 -10.2841
   -10.1416 -10.1407  -9.3072  -9.2400  -9.1292  -8.4812  -8.4115  -8.3177
    -7.4819  -7.4794  -7.4072  -7.4042  -7.2830  -7.2815  -4.3734  -3.5713
    -3.1504  -2.2799  -2.2033  -2.1959  -2.1233  -1.8231  -1.7932  -1.7925
    -1.7179  -1.7173  -1.6467  -1.6444  -0.5551  -0.4280   1.2119   1.2970
     1.3678   1.3807   1.3928   1.4370   1.5086   1.5676   1.7951   1.8158
     2.1508   2.3233   2.3316   2.3841   2.8132   4.1473   6.0742   6.3317
     6.6849   6.7092   6.7314   6.8189   7.0286   7.0547   7.4630   7.4824
     8.2488

          k = 0.0714 0.1181-0.0658 (  8326 PWs)   bands (ev):

   -14.7124 -14.6151 -14.4309 -10.3739 -10.3667 -10.3139 -10.2874 -10.2828
   -10.1416 -10.1408  -9.3072  -9.2401  -9.1292  -8.4813  -8.4114  -8.3177
    -7.4819  -7.4794  -7.4072  -7.4042  -7.2830  -7.2815  -4.3592  -3.6800
    -2.9301  -2.4175  -2.2798  -2.2028  -2.1233  -1.7942  -1.7930  -1.7285
    -1.7178  -1.7170  -1.6467  -1.6444  -0.5532  -0.4274   1.2120   1.2970
     1.3678   1.3821   1.3929   1.4369   1.5086   1.5676   1.7925   1.8157
     2.1564   2.3229   2.3330   2.3718   2.8224   4.1431   6.0552   6.3716
     6.6659   6.7027   6.7465   6.8198   6.9986   7.0602   7.4754   7.4858
     8.2938

          k = 0.0721 0.3057 0.0979 (  8310 PWs)   bands (ev):

   -14.2974 -14.2023 -14.0214 -11.8537 -11.7679 -11.6077 -10.9079 -10.8251
   -10.6735 -10.2783  -9.5576  -9.4806  -9.3427  -7.5759  -7.5025  -7.3857
    -6.3051  -6.2307  -6.1178  -5.4106  -5.3364  -5.2259  -4.2082  -3.5317
    -3.4564  -3.3663  -3.0696  -2.9154  -2.5899  -2.5159  -2.4341  -2.0081
    -1.5207  -1.3857  -1.3098  -1.2399  -1.0578  -0.5095  -0.1616  -0.1247
    -0.0728   0.0041   0.4390   0.6656   0.7429   0.8049   0.9036   1.1217
     1.4216   2.0422   2.2439   2.5801   3.1033   4.5884   6.2671   6.4751
     6.7958   6.9528   7.5629   7.8384   8.1891   8.2713   8.7879   9.0180
     9.2994

          k = 0.0711 0.2874-0.0531 (  8303 PWs)   bands (ev):

   -14.2976 -14.2021 -14.0215 -11.8536 -11.7680 -11.6077 -10.9078 -10.8253
   -10.6734 -10.2782  -9.5576  -9.4806  -9.3426  -7.5758  -7.5025  -7.3857
    -6.3051  -6.2308  -6.1178  -5.4106  -5.3364  -5.2258  -4.1961  -3.5317
    -3.4564  -3.3663  -3.2714  -2.5907  -2.5364  -2.5145  -2.4340  -2.2332
    -1.5311  -1.3857  -1.3098  -1.2399  -1.0232  -0.4967  -0.1618  -0.1265
    -0.0728   0.0041   0.4424   0.6657   0.7429   0.8049   0.9094   1.1177
     1.4136   2.0482   2.2373   2.5925   3.0961   4.5877   6.2712   6.4603
     6.8307   6.9366   7.5752   7.8201   8.2029   8.2961   8.7555   9.0688
     9.2549

          k = 0.0718 0.4750 0.1107 (  8315 PWs)   bands (ev):

   -13.5557 -13.4637 -13.2890 -13.0649 -12.9747 -12.8044 -11.1443 -11.0610
   -10.9070 -10.2491  -9.7673  -9.6885  -9.5472  -6.3898  -6.3150  -6.2279
    -5.1706  -5.0947  -5.0128  -4.8227  -4.7474  -4.6622  -4.1076  -3.6469
    -3.5713  -3.4915  -3.2157  -3.1413  -3.0466  -2.6956  -2.1733  -2.1299
    -2.0536  -1.9661  -1.8947  -1.5190  -1.1767  -0.8464  -0.7172  -0.6914
    -0.6151  -0.5470  -0.4560  -0.2607  -0.1845  -0.1182  -0.0638   0.6742
     1.2306   1.8879   2.1961   2.6195   3.2246   4.9984   6.5520   6.6657
     6.8054   7.0357   8.2245   8.3301   8.4544   8.6744   8.9678  10.2331
    10.9883

          k = 0.0708 0.4567-0.0404 (  8320 PWs)   bands (ev):

   -13.5558 -13.4635 -13.2891 -13.0648 -12.9749 -12.8043 -11.1443 -11.0611
   -10.9070 -10.2490  -9.7673  -9.6886  -9.5472  -6.3898  -6.3151  -6.2279
    -5.1706  -5.0947  -5.0128  -4.8227  -4.7474  -4.6622  -4.1061  -3.6469
    -3.5714  -3.4914  -3.2158  -3.1411  -3.0466  -2.7230  -2.1843  -2.1294
    -2.0540  -1.9661  -1.7311  -1.5336  -1.3594  -0.8510  -0.7102  -0.6913
    -0.6151  -0.5470  -0.3245  -0.2606  -0.1844  -0.1286  -0.1181   0.6875
     1.2091   1.8986   2.1891   2.6323   3.2179   4.9976   6.5460   6.6977
     6.7750   7.0433   8.2138   8.3807   8.4149   8.6774   8.9756  10.1667
    10.7236

          k = 0.0733-0.3716 0.0470 (  8308 PWs)   bands (ev):

   -13.9671 -13.8730 -13.6952 -12.4967 -12.4088 -12.2430 -11.0651 -10.9822
   -10.8287 -10.2564  -9.6951  -9.6164  -9.4772  -6.9436  -6.8692  -6.7588
    -5.6816  -5.6084  -5.5061  -4.3203  -4.2471  -4.2376  -4.1851  -4.1621
    -4.1410  -4.0701  -3.1600  -3.0845  -2.9975  -2.9425  -2.3514  -1.9123
    -1.5465  -1.0930  -1.0701  -1.0243  -1.0137  -0.9941  -0.9341  -0.9252
    -0.8012  -0.6466  -0.0981   0.1992   0.2763   0.3418   0.4806   0.7424
     1.2887   1.9431   2.2333   2.6269   3.1669   4.9502   6.4344   6.5980
     6.6664   6.9685   7.9712   8.1875   8.3314   8.5428   9.2684   9.7713
    10.0201

          k = 0.0723-0.3898-0.1040 (  8321 PWs)   bands (ev):

   -13.9669 -13.8732 -13.6951 -12.4968 -12.4087 -12.2431 -11.0651 -10.9822
   -10.8287 -10.2564  -9.6951  -9.6164  -9.4772  -6.9436  -6.8692  -6.7588
    -5.6816  -5.6083  -5.5061  -4.3205  -4.2458  -4.2383  -4.1920  -4.1614
    -4.1407  -4.0701  -3.1600  -3.0844  -2.9974  -2.7853  -2.6010  -1.9245
    -1.2931  -1.1163  -1.0911  -1.0699  -1.0144  -0.9941  -0.9346  -0.9252
    -0.9065  -0.5244  -0.1933   0.1992   0.2763   0.3417   0.5015   0.7592
     1.2656   1.9533   2.2274   2.6366   3.1630   4.9515   6.4370   6.5528
     6.7143   6.9561   7.9712   8.1787   8.3351   8.5369   9.2381   9.8620
     9.9844

          k = 0.0730-0.2023 0.0597 (  8316 PWs)   bands (ev):

   -14.5462 -14.4497 -14.2669 -11.1406 -11.0572 -10.9032 -10.6739 -10.5924
   -10.4422 -10.2928  -9.3795  -9.3027  -9.1822  -8.1503  -8.0761  -7.9649
    -6.9136  -6.8397  -6.7219  -6.4721  -6.3978  -6.2794  -4.3377  -3.5195
    -2.8488  -2.7745  -2.7367  -2.6916  -2.3351  -2.1121  -2.0349  -1.9557
    -1.6290  -1.6107  -1.5525  -1.4823  -0.8656  -0.4089   0.6157   0.6535
     0.7229   0.7920   1.0830   1.1005   1.1485   1.1682   1.2311   1.5780
     1.7741   2.1865   2.3006   2.5399   2.9019   4.4386   6.1555   6.4063
     6.6179   6.7293   7.1144   7.4490   7.6415   7.8918   7.9153   8.4116
     8.4576

          k = 0.0720-0.2205-0.0913 (  8330 PWs)   bands (ev):

   -14.5461 -14.4499 -14.2668 -11.1406 -11.0572 -10.9033 -10.6739 -10.5924
   -10.4422 -10.2929  -9.3795  -9.3027  -9.1823  -8.1503  -8.0761  -7.9649
    -6.9136  -6.8397  -6.7219  -6.4721  -6.3977  -6.2794  -4.3517  -3.3651
    -3.0557  -2.8482  -2.7744  -2.6917  -2.1123  -2.0492  -2.0347  -1.9557
    -1.7073  -1.6283  -1.5526  -1.4823  -0.8766  -0.4124   0.6173   0.6542
     0.7229   0.7920   1.0837   1.1053   1.1474   1.1682   1.2310   1.5615
     1.7763   2.1961   2.2992   2.5405   2.9026   4.4379   6.1605   6.3985
     6.6280   6.7139   7.1293   7.4270   7.6260   7.9022   7.9552   8.3367
     8.5016

          k = 0.0727-0.0330 0.0725 (  8325 PWs)   bands (ev):

   -14.7955 -14.6979 -14.5129 -10.3230  -9.9981  -9.9199  -9.7775  -9.5948
    -9.5934  -9.5193  -9.5155  -9.3953  -9.3940  -8.3617  -8.3603  -8.2878
    -8.2866  -8.1727  -8.1706  -7.9734  -7.8994  -7.7763  -4.4251  -3.7378
    -3.0900  -2.3818  -1.8771  -1.8764  -1.8014  -1.8005  -1.7704  -1.7297
    -1.7275  -1.7138  -1.6357  -1.5609  -0.5183  -0.2766   1.5389   1.5997
     1.6163   1.6489   1.6756   1.6836   1.7547   1.9925   1.9999   2.0145
     2.2341   2.2470   2.5084   2.5960   2.6022   4.0595   6.1776   6.2095
     6.3499   6.4509   6.4792   6.6171   6.7298   6.8016   6.8705   7.1503
     8.2368

          k = 0.0717-0.0512-0.0786 (  8345 PWs)   bands (ev):

   -14.7955 -14.6980 -14.5129 -10.3231  -9.9981  -9.9199  -9.7776  -9.5948
    -9.5935  -9.5193  -9.5155  -9.3953  -9.3940  -8.3617  -8.3603  -8.2878
    -8.2866  -8.1727  -8.1706  -7.9734  -7.8995  -7.7763  -4.4296  -3.7084
    -3.1458  -2.3314  -1.8772  -1.8764  -1.8015  -1.8008  -1.7882  -1.7297
    -1.7275  -1.7138  -1.6357  -1.5609  -0.5198  -0.2770   1.5389   1.5997
     1.6163   1.6584   1.6756   1.6836   1.7546   1.9860   1.9983   2.0086
     2.2261   2.2417   2.5240   2.5967   2.6069   4.0541   6.1731   6.1957
     6.3506   6.4735   6.4893   6.6717   6.6951   6.7950   6.8310   7.1609
     8.2820

          k = 0.2165 0.2215 0.0918 (  8314 PWs)   bands (ev):

   -14.2974 -14.2023 -14.0214 -11.8536 -11.7677 -11.6077 -10.9080 -10.8254
   -10.6736 -10.2805  -9.5578  -9.4807  -9.3428  -7.5757  -7.5022  -7.3854
    -6.3050  -6.2306  -6.1163  -5.4106  -5.3364  -5.2273  -4.1924  -3.5318
    -3.4565  -3.3666  -3.0848  -2.9008  -2.5899  -2.5156  -2.4364  -2.0042
    -1.5640  -1.3859  -1.3101  -1.2372  -0.9561  -0.5956  -0.1615  -0.1077
    -0.0727   0.0012   0.4401   0.6662   0.7427   0.8083   0.9006   1.1271
     1.4181   2.0423   2.2402   2.5873   3.0975   4.5299   6.2682   6.4776
     6.8195   7.0574   7.5799   7.8413   8.0542   8.2595   8.7678   9.0621
     9.2479

          k = 0.2155 0.2032-0.0592 (  8319 PWs)   bands (ev):

   -14.2976 -14.2021 -14.0214 -11.8535 -11.7679 -11.6076 -10.9080 -10.8254
   -10.6735 -10.2805  -9.5578  -9.4807  -9.3428  -7.5756  -7.5023  -7.3854
    -6.3050  -6.2306  -6.1163  -5.4106  -5.3364  -5.2273  -4.1815  -3.5318
    -3.4565  -3.3666  -3.2659  -2.5905  -2.5404  -2.5138  -2.4363  -2.2574
    -1.5222  -1.3859  -1.3101  -1.2372  -0.9367  -0.5901  -0.1666  -0.1248
    -0.0727   0.0012   0.4629   0.6662   0.7427   0.8082   0.9079   1.1223
     1.4099   2.0446   2.2398   2.5851   3.1019   4.5258   6.2710   6.4697
     6.8289   7.0608   7.5838   7.8250   8.0952   8.2595   8.7803   9.0278
     9.2551

          k = 0.2162 0.3908 0.1045 (  8302 PWs)   bands (ev):

   -13.7200 -13.6274 -13.4513 -12.2568 -12.2546 -12.1697 -12.1673 -12.0054
   -12.0046 -10.2513  -8.4748  -8.4064  -8.3013  -7.7103  -7.6376  -7.5591
    -5.1346  -5.0607  -4.9640  -4.2451  -4.2430  -4.1702  -4.1670  -4.0754
    -4.0731  -4.0570  -2.8047  -2.3309  -1.9918  -1.9904  -1.9197  -1.9155
    -1.8596  -1.8402  -1.8369  -1.4485  -1.3700  -1.2941  -1.2759  -0.9438
    -0.6488  -0.5475  -0.4784  -0.4427  -0.3748  -0.3117   0.0328   0.0913
     0.7065   0.7931   3.3618   3.5863   3.9939   4.8482   5.6238   5.7344
     5.8210   7.1442   8.2803   8.7377   9.7803   9.7969   9.9424   9.9806
    10.1113

          k = 0.2152 0.3725-0.0465 (  8293 PWs)   bands (ev):

   -13.7202 -13.6272 -13.4514 -12.2568 -12.2545 -12.1698 -12.1674 -12.0053
   -12.0046 -10.2512  -8.4748  -8.4064  -8.3013  -7.7103  -7.6376  -7.5591
    -5.1346  -5.0607  -4.9640  -4.2451  -4.2429  -4.1707  -4.1664  -4.0758
    -4.0727  -4.0537  -2.8463  -2.3171  -1.9917  -1.9904  -1.9163  -1.9151
    -1.8405  -1.8372  -1.6755  -1.4616  -1.4464  -1.3696  -1.2939  -0.9556
    -0.6974  -0.5928  -0.4502  -0.3760  -0.3372  -0.3116  -0.0246   0.1516
     0.7269   0.7651   3.3734   3.5608   4.0139   4.8391   5.6247   5.7329
     5.8225   7.1545   8.2908   8.7433   9.7656   9.7759   9.9369   9.9906
    10.0065

          k = 0.2159 0.5601 0.1173 (  8296 PWs)   bands (ev):

   -13.3102 -13.2190 -13.0466 -12.8214 -12.7323 -12.5639 -12.3364 -12.2491
   -12.0848 -10.2362  -8.3341  -8.2591  -8.1461  -7.3915  -7.3151  -7.2317
    -5.7485  -5.6746  -5.5913  -4.1410  -3.7805  -3.7059  -3.6311  -3.2291
    -3.1541  -3.0643  -2.6360  -2.3593  -2.2813  -2.2765  -2.2047  -2.1995
    -2.1260  -2.0452  -1.5631  -1.5125  -1.4848  -1.4150  -1.2862  -1.2004
    -1.0495  -0.9710  -0.9037  -0.8906  -0.6596  -0.3987  -0.3160   0.0651
     0.1972   0.6656   3.7127   3.9657   4.3435   5.0224   5.2559   5.4873
     5.6530   6.8490   8.3410   8.9418  10.0121  10.0763  10.2241  10.4746
    10.8839

          k = 0.2149 0.5418-0.0338 (  8288 PWs)   bands (ev):

   -13.3101 -13.2191 -13.0465 -12.8215 -12.7322 -12.5640 -12.3364 -12.2491
   -12.0848 -10.2361  -8.3341  -8.2591  -8.1461  -7.3915  -7.3151  -7.2317
    -5.7485  -5.6746  -5.5913  -4.1421  -3.7804  -3.7060  -3.6311  -3.2291
    -3.1541  -3.0643  -2.6287  -2.3593  -2.2812  -2.2764  -2.2047  -2.1995
    -2.1256  -1.9043  -1.8143  -1.5608  -1.4859  -1.4150  -1.3321  -1.0496
    -0.9717  -0.9349  -0.9035  -0.8833  -0.6093  -0.4500  -0.3500  -0.0256
     0.2247   0.6901   3.7152   3.9599   4.3463   5.0159   5.3066   5.4201
     5.6771   6.8502   8.3243   8.9539  10.0313  10.0917  10.2302  10.4738
    10.8914

          k = 0.2174-0.2864 0.0536 (  8318 PWs)   bands (ev):

   -14.0495 -13.9552 -13.7766 -12.0941 -12.0078 -11.8454 -11.6165 -11.5315
   -11.3733 -10.2509  -8.9542  -8.8779  -8.7616  -7.7568  -7.6834  -7.5764
    -5.2805  -5.2066  -5.0990  -4.8205  -4.7477  -4.6457  -4.3454  -4.2947
    -4.2679  -4.1739  -3.0055  -2.3376  -2.3238  -2.2569  -2.1802  -1.9824
    -1.6197  -1.5438  -1.5137  -1.4638  -1.0065  -0.7366  -0.6602  -0.5934
    -0.5911  -0.3978   0.1310   0.1570   0.2277   0.2365   0.2964   0.7336
     0.8885   1.3890   2.8903   3.1282   3.4944   5.0063   5.9562   6.0504
     6.3240   6.6476   8.2338   8.6243   8.8667   9.1333   9.2964   9.3017
     9.5815

          k = 0.2164-0.3047-0.0974 (  8313 PWs)   bands (ev):

   -14.0494 -13.9554 -13.7765 -12.0942 -12.0077 -11.8454 -11.6165 -11.5315
   -11.3734 -10.2509  -8.9542  -8.8779  -8.7616  -7.7568  -7.6833  -7.5764
    -5.2805  -5.2066  -5.0990  -4.8206  -4.7475  -4.6459  -4.3458  -4.2999
    -4.2678  -4.1739  -2.8275  -2.6641  -2.3318  -2.2579  -2.1802  -1.8566
    -1.6197  -1.5421  -1.4639  -1.3262  -1.1611  -0.7365  -0.6602  -0.6146
    -0.5923  -0.3411   0.1339   0.1583   0.1923   0.2281   0.2964   0.7130
     0.9098   1.3950   2.8874   3.1317   3.4943   5.0064   5.9771   6.0354
     6.3178   6.6459   8.1913   8.6307   8.8743   9.1464   9.3068   9.3201
     9.5426

          k = 0.2171-0.1171 0.0663 (  8317 PWs)   bands (ev):

   -14.4632 -14.3671 -14.1850 -11.5345 -11.4501 -11.2923 -10.2839 -10.1424
   -10.1394 -10.0637 -10.0604  -9.9192  -9.9181  -7.2894  -7.2877  -7.2148
    -7.2136  -7.0936  -7.0923  -5.9635  -5.8902  -5.7781  -4.3725  -3.4098
    -2.7642  -2.7620  -2.7301  -2.6889  -2.6866  -2.6076  -2.6058  -2.1982
    -1.5566  -1.3866  -1.3083  -1.2337  -0.9614  -0.3878   0.1772   0.3405
     0.4147   0.4808   0.7564   0.9734   1.0548   1.1269   1.4138   1.6666
     1.6784   2.0719   2.1038   2.6019   2.6167   4.5722   6.5862   6.6840
     6.6987   6.9115   7.0342   7.3589   7.3826   8.1120   8.2756   8.5380
     8.9716

          k = 0.2161-0.1354-0.0847 (  8308 PWs)   bands (ev):

   -14.4631 -14.3672 -14.1849 -11.5345 -11.4500 -11.2923 -10.2838 -10.1424
   -10.1397 -10.0637 -10.0600  -9.9192  -9.9182  -7.2895  -7.2877  -7.2147
    -7.2136  -7.0936  -7.0923  -5.9635  -5.8903  -5.7781  -4.3792  -3.3203
    -2.9199  -2.7622  -2.7608  -2.6889  -2.6869  -2.6076  -2.6058  -2.0319
    -1.6080  -1.3866  -1.3083  -1.2337  -0.9758  -0.3891   0.2017   0.3408
     0.4147   0.4808   0.7244   0.9734   1.0548   1.1269   1.4255   1.6681
     1.6827   2.0668   2.0953   2.6057   2.6208   4.5706   6.5377   6.6738
     6.7920   6.9308   6.9838   7.3517   7.3863   8.1071   8.2670   8.5378
     8.9825

          k = 0.2168 0.0522 0.0791 (  8317 PWs)   bands (ev):

   -14.5462 -14.4498 -14.2668 -11.1406 -11.0569 -10.9032 -10.6739 -10.5925
   -10.4422 -10.2949  -9.3797  -9.3037  -9.1832  -8.1497  -8.0761  -7.9626
    -6.9135  -6.8395  -6.7217  -6.4721  -6.3977  -6.2806  -4.3336  -3.4281
    -2.9587  -2.8480  -2.7741  -2.6936  -2.1220  -2.1114  -2.0349  -1.9560
    -1.7089  -1.6286  -1.5530  -1.4800  -0.7718  -0.4844   0.6156   0.6588
     0.7228   0.7860   1.0841   1.1000   1.1521   1.1682   1.2374   1.5691
     1.7783   2.1909   2.2995   2.5350   2.8977   4.3603   6.1660   6.4026
     6.6300   6.8646   7.1258   7.4397   7.6175   7.8873   7.8995   8.2931
     8.4316

          k = 0.2158 0.0339-0.0720 (  8321 PWs)   bands (ev):

   -14.5462 -14.4497 -14.2668 -11.1405 -11.0571 -10.9032 -10.6740 -10.5924
   -10.4423 -10.2950  -9.3797  -9.3036  -9.1832  -8.1497  -8.0761  -7.9626
    -6.9134  -6.8396  -6.7217  -6.4721  -6.3977  -6.2806  -4.3289  -3.4811
    -2.8518  -2.8354  -2.7739  -2.6936  -2.2574  -2.1121  -2.0350  -1.9559
    -1.6411  -1.6279  -1.5529  -1.4800  -0.7727  -0.4852   0.6119   0.6566
     0.7228   0.7860   1.0823   1.0987   1.1595   1.1682   1.2374   1.5681
     1.7789   2.1918   2.2998   2.5348   2.8987   4.3557   6.1784   6.3721
     6.6641   6.8510   7.1215   7.4344   7.6086   7.8985   7.9373   8.2775
     8.4938

          k = 0.3606 0.3066 0.0984 (  8315 PWs)   bands (ev):

   -13.5556 -13.4636 -13.2890 -13.0649 -12.9746 -12.8044 -11.1445 -11.0612
   -10.9071 -10.2536  -9.7675  -9.6888  -9.5473  -6.3896  -6.3140  -6.2262
    -5.1704  -5.0939  -5.0100  -4.8232  -4.7473  -4.6643  -4.0676  -3.6474
    -3.5712  -3.4950  -3.2159  -3.1414  -3.0489  -2.7217  -2.1766  -2.1299
    -2.0537  -1.9686  -1.9000  -1.5124  -1.1299  -0.8590  -0.7153  -0.6914
    -0.6153  -0.5436  -0.4842  -0.2607  -0.1848  -0.1151  -0.0596   0.6759
     1.2209   1.8891   2.1941   2.6206   3.2233   4.8448   6.5635   6.7233
     6.9969   7.0494   8.2103   8.3731   8.4008   8.6758   8.7817  10.0660
    10.9593

          k = 0.3596 0.2884-0.0526 (  8320 PWs)   bands (ev):

   -13.5558 -13.4634 -13.2891 -13.0648 -12.9748 -12.8043 -11.1444 -11.0613
   -10.9070 -10.2536  -9.7675  -9.6888  -9.5473  -6.3896  -6.3140  -6.2262
    -5.1704  -5.0939  -5.0100  -4.8232  -4.7473  -4.6643  -4.0660  -3.6475
    -3.5712  -3.4950  -3.2159  -3.1413  -3.0489  -2.7439  -2.2044  -2.1297
    -2.0542  -1.9684  -1.7207  -1.5366  -1.3237  -0.8581  -0.6915  -0.6668
    -0.6153  -0.5436  -0.4179  -0.2607  -0.1848  -0.1151  -0.0875   0.6800
     1.2118   1.8946   2.1894   2.6302   3.2176   4.8446   6.5572   6.7444
     6.9582   7.0783   8.2202   8.3205   8.4547   8.6541   8.7982   9.9931
    10.8429

          k = 0.3603 0.4759 0.1111 (  8287 PWs)   bands (ev):

   -13.3101 -13.2189 -13.0466 -12.8214 -12.7323 -12.5638 -12.3365 -12.2491
   -12.0849 -10.2384  -8.3345  -8.2600  -8.1474  -7.3911  -7.3140  -7.2288
    -5.7488  -5.6743  -5.5933  -4.1192  -3.7801  -3.7052  -3.6285  -3.2291
    -3.1540  -3.0656  -2.6639  -2.3598  -2.2815  -2.2768  -2.2078  -2.1998
    -2.1299  -1.9900  -1.6181  -1.5592  -1.4858  -1.4132  -1.3188  -1.1302
    -1.0493  -0.9710  -0.8988  -0.8717  -0.6375  -0.3926  -0.2190  -0.0478
     0.1814   0.6768   3.7139   3.9517   4.3423   4.9562   5.2538   5.4370
     5.6637   7.1049   8.4191   8.5585  10.0590  10.1428  10.2431  10.4758
    10.8843

          k = 0.3593 0.4577-0.0399 (  8284 PWs)   bands (ev):

   -13.3101 -13.2190 -13.0465 -12.8216 -12.7321 -12.5639 -12.3364 -12.2492
   -12.0848 -10.2384  -8.3345  -8.2600  -8.1474  -7.3911  -7.3140  -7.2288
    -5.7488  -5.6743  -5.5933  -4.1194  -3.7800  -3.7052  -3.6285  -3.2291
    -3.1540  -3.0656  -2.6568  -2.3598  -2.2814  -2.2767  -2.2078  -2.2000
    -2.1298  -1.9908  -1.6781  -1.5606  -1.4861  -1.4132  -1.3185  -1.0492
    -0.9985  -0.9706  -0.8988  -0.8423  -0.6790  -0.4798  -0.2859  -0.0092
     0.2569   0.6522   3.7098   3.9609   4.3349   4.9575   5.2535   5.4399
     5.6612   7.1137   8.4016   8.5698  10.0484  10.1547  10.2278  10.4770
    10.8815

          k = 0.3600 0.6452 0.1239 (  8304 PWs)   bands (ev):

   -13.2292 -13.2272 -13.1385 -13.1363 -12.9660 -12.9653 -11.7766 -11.6912
   -11.5317 -10.2305  -9.0446  -8.9673  -8.8361  -6.8238  -6.7525  -6.6563
    -5.4399  -5.3680  -5.2874  -4.4126  -4.3375  -4.2741  -4.2521  -3.0855
    -3.0130  -2.9393  -2.6786  -2.6739  -2.6041  -2.6016  -2.5204  -2.5188
    -2.5068  -2.0421  -1.7537  -1.4790  -1.1179  -0.9733  -0.8408  -0.8375
    -0.7626  -0.7579  -0.6858  -0.6843  -0.5639  -0.3036  -0.1900  -0.0108
     0.5943   1.2549   2.9907   3.3456   3.8651   5.1866   5.7854   6.0087
     6.3856   6.8233   8.0049   9.0364   9.1259   9.3048   9.6406  10.1275
    11.0005

          k = 0.3590 0.6270-0.0272 (  8309 PWs)   bands (ev):

   -13.2292 -13.2271 -13.1386 -13.1363 -12.9660 -12.9652 -11.7767 -11.6911
   -11.5317 -10.2304  -9.0446  -8.9673  -8.8361  -6.8238  -6.7525  -6.6563
    -5.4399  -5.3679  -5.2874  -4.4126  -4.3375  -4.2745  -4.2522  -3.0855
    -3.0130  -2.9393  -2.6784  -2.6739  -2.6043  -2.6015  -2.5212  -2.5192
    -2.5095  -1.9689  -1.7414  -1.6466  -1.1305  -0.8410  -0.8379  -0.8055
    -0.7623  -0.7575  -0.6858  -0.6843  -0.5960  -0.3219  -0.2305   0.0287
     0.5707   1.2602   2.9839   3.3585   3.8589   5.1861   5.7776   6.0214
     6.3824   6.8243   7.9977   9.0406   9.1232   9.3036   9.6407  10.1108
    11.2108

          k = 0.3615-0.2013 0.0602 (  8326 PWs)   bands (ev):

   -13.8021 -13.7089 -13.5324 -12.8204 -12.7314 -12.5629 -10.4491 -10.4464
   -10.3669 -10.3646 -10.2380 -10.2184 -10.2146  -6.0458  -6.0435  -5.9717
    -5.9714  -5.8662  -5.8652  -4.3501  -4.0131  -4.0106  -3.9423  -3.9383
    -3.8537  -3.8524  -3.7712  -3.6986  -3.6033  -2.7581  -2.1743  -1.8618
    -1.5813  -1.5087  -1.5011  -1.4283  -1.2417  -0.8993  -0.7626  -0.6839
    -0.6098  -0.5454  -0.3741   0.0803   0.1183   0.1600   0.2332   1.4386
     1.4577   1.9095   1.9618   2.5447   2.5717   5.1755   6.7002   7.2396
     7.2523   7.4493   7.4631   7.8217   7.8448   7.8828   9.2683  10.0577
    10.6124

          k = 0.3605-0.2196-0.0908 (  8311 PWs)   bands (ev):

   -13.8020 -13.7090 -13.5323 -12.8205 -12.7312 -12.5629 -10.4490 -10.4464
   -10.3670 -10.3649 -10.2373 -10.2184 -10.2152  -6.0458  -6.0435  -5.9717
    -5.9714  -5.8662  -5.8652  -4.3521  -4.0130  -4.0106  -3.9423  -3.9385
    -3.8537  -3.8524  -3.7711  -3.6987  -3.6032  -2.6381  -2.4122  -1.8085
    -1.5811  -1.5072  -1.4657  -1.4278  -1.1013  -0.8905  -0.7626  -0.6838
    -0.6235  -0.6098  -0.4692   0.0803   0.1600   0.1710   0.2332   1.4379
     1.4602   1.9104   1.9562   2.5445   2.5750   5.1770   6.6958   7.2400
     7.2556   7.4468   7.4681   7.8039   7.8455   7.8854   9.2675  10.2697
    10.6076

          k = 0.3612-0.0320 0.0729 (  8314 PWs)   bands (ev):

   -14.0494 -13.9552 -13.7766 -12.0942 -12.0079 -11.8454 -11.6164 -11.5313
   -11.3734 -10.2531  -8.9543  -8.8787  -8.7626  -7.7563  -7.6835  -7.5741
    -5.2804  -5.2065  -5.1002  -4.8204  -4.7473  -4.6454  -4.3435  -4.2844
    -4.2638  -4.1755  -2.9544  -2.4854  -2.3319  -2.2581  -2.1783  -1.9205
    -1.6198  -1.5426  -1.4646  -1.4348  -1.0523  -0.7369  -0.6607  -0.5960
    -0.5558  -0.4110   0.1222   0.1548   0.2280   0.2508   0.3003   0.7162
     0.8839   1.3949   2.8866   3.1272   3.4893   4.8596   5.9818   6.0211
     6.3254   6.9337   8.2030   8.6076   8.8198   8.9753   9.2864   9.3111
     9.5754

          k = 0.3602-0.0503-0.0781 (  8313 PWs)   bands (ev):

   -14.0494 -13.9553 -13.7766 -12.0943 -12.0077 -11.8455 -11.6163 -11.5315
   -11.3733 -10.2532  -8.9543  -8.8787  -8.7625  -7.7563  -7.6834  -7.5742
    -5.2804  -5.2065  -5.1002  -4.8203  -4.7475  -4.6453  -4.3439  -4.2821
    -4.2665  -4.1753  -2.9390  -2.5086  -2.3318  -2.2583  -2.1783  -1.9248
    -1.6198  -1.5427  -1.4645  -1.4162  -1.0680  -0.7369  -0.6607  -0.5959
    -0.5424  -0.3717   0.1270   0.1490   0.1789   0.2282   0.3003   0.7191
     0.9140   1.3925   2.8911   3.1210   3.4908   4.8581   5.9690   6.0397
     6.3232   6.9253   8.2134   8.6244   8.8374   8.9476   9.2978   9.3162
     9.5508

          k = 0.3609 0.1373 0.0857 (  8313 PWs)   bands (ev):

   -13.9669 -13.8731 -13.6951 -12.4967 -12.4085 -12.2431 -11.0652 -10.9824
   -10.8287 -10.2609  -9.6954  -9.6168  -9.4775  -6.9433  -6.8687  -6.7569
    -5.6813  -5.6078  -5.5053  -4.3196  -4.2446  -4.2370  -4.1683  -4.1520
    -4.1412  -4.0723  -3.1603  -3.0847  -2.9985  -2.8213  -2.5917  -1.8946
    -1.3920  -1.0954  -1.0704  -1.0473  -1.0144  -0.9944  -0.9380  -0.9225
    -0.8102  -0.5866  -0.2137   0.1993   0.2762   0.3464   0.5099   0.7484
     1.2729   1.9500   2.2287   2.6308   3.1627   4.7674   6.4487   6.6263
     6.8909   7.0238   7.9604   8.1701   8.3070   8.5371   8.9634   9.8545
    10.0039

          k = 0.3599 0.1191-0.0654 (  8316 PWs)   bands (ev):

   -13.9670 -13.8730 -13.6952 -12.4966 -12.4087 -12.2430 -11.0652 -10.9823
   -10.8287 -10.2609  -9.6954  -9.6168  -9.4775  -6.9433  -6.8687  -6.7569
    -5.6813  -5.6079  -5.5052  -4.3195  -4.2452  -4.2370  -4.1645  -4.1509
    -4.1421  -4.0720  -3.1603  -3.0847  -2.9986  -2.9362  -2.3665  -2.0180
    -1.4073  -1.0936  -1.0703  -1.0149  -0.9946  -0.9729  -0.9369  -0.9226
    -0.8578  -0.6742  -0.0978   0.1993   0.2762   0.3464   0.4778   0.7479
     1.2779   1.9448   2.2302   2.6292   3.1630   4.7675   6.4577   6.6041
     6.9278   6.9979   7.9645   8.1731   8.3059   8.5464   8.9937   9.7214
    10.0083

     the Fermi energy is     5.2249 ev

!    total energy              =    -300.35437372 Ry
     estimated scf accuracy    <       0.00000040 Ry
     smearing contrib. (-TS)   =      -0.00126095 Ry
     internal energy E=F+TS    =    -300.35311277 Ry

     The total energy is F=E-TS. E is the sum of the following terms:
     one-electron contribution =    -406.16791522 Ry
     hartree contribution      =     248.24894430 Ry
     xc contribution           =    -107.80887296 Ry
     ewald contribution        =     -34.62526888 Ry

     convergence has been achieved in  29 iterations

     Forces acting on atoms (cartesian axes, Ry/au):

     atom    1 type  1   force =     0.00013827    0.00080084    0.00023192
     atom    2 type  1   force =    -0.00035566    0.00117233   -0.00095664
     atom    3 type  1   force =     0.00041333   -0.00065493   -0.00007176
     atom    4 type  1   force =     0.00007457   -0.00077580    0.00018979
     atom    5 type  1   force =     0.00054867   -0.00083601   -0.00004417
     atom    6 type  1   force =    -0.00019865    0.00045754   -0.00035161
     atom    7 type  1   force =     0.00005405    0.00078341    0.00025798
     atom    8 type  1   force =    -0.00071867    0.00058164   -0.00111772
     atom    9 type  1   force =    -0.00042999    0.00018173    0.00046181
     atom   10 type  1   force =     0.00002070   -0.00074716    0.00023195
     atom   11 type  1   force =     0.00043463   -0.00079001   -0.00052341
     atom   12 type  1   force =    -0.00039756    0.00028693    0.00009693
     atom   13 type  1   force =     0.00007802    0.00075109    0.00029561
     atom   14 type  1   force =    -0.00061490    0.00019189    0.00272593
     atom   15 type  1   force =    -0.00026041    0.00006352    0.00011328
     atom   16 type  1   force =     0.00003295   -0.00067052    0.00020127
     atom   17 type  1   force =     0.00105084    0.00022730   -0.00021259
     atom   18 type  1   force =    -0.00032437    0.00009546   -0.00016901
     atom   19 type  1   force =     0.00007088    0.00072914    0.00022775
     atom   20 type  1   force =    -0.00080807    0.00008844   -0.00017976
     atom   21 type  1   force =     0.00082214   -0.00062659   -0.00033221
     atom   22 type  1   force =     0.00003960   -0.00072084    0.00024082
     atom   23 type  1   force =     0.00076626   -0.00067442   -0.00022916
     atom   24 type  1   force =     0.00006626    0.00002308   -0.00070457
     atom   25 type  2   force =    -0.57722894    0.15802105   -0.15246017
     atom   26 type  2   force =    -0.09392596    0.18643711   -0.05870463
     atom   27 type  2   force =    -0.00117916   -0.00015112    0.00016420
     atom   28 type  2   force =     0.00849186   -0.00145200    0.00320309
     atom   29 type  2   force =    -0.00063749    0.00673638   -0.00627988
     atom   30 type  2   force =     0.01184021   -0.02770185    0.01635147
     atom   31 type  2   force =    -0.02643292   -0.01733687   -0.01145806
     atom   32 type  2   force =     0.02949222    0.01681729    0.00550954
     atom   33 type  2   force =     0.00973811   -0.03139191   -0.00445881
     atom   34 type  2   force =     0.05651361   -0.00729244   -0.03575311
     atom   35 type  2   force =    -0.05838094   -0.00553819    0.05568077
     atom   36 type  2   force =     0.64120653   -0.27708550    0.18782317
     The non-local contrib.  to forces
     atom    1 type  1   force =     0.00020791    0.00082555    0.00105112
     atom    2 type  1   force =     0.00063174    0.00142442    0.00900399
     atom    3 type  1   force =    -0.00234355    0.00127995   -0.00252116
     atom    4 type  1   force =    -0.00009941   -0.00055757    0.00064453
     atom    5 type  1   force =     0.00038041    0.00084615    0.01050476
     atom    6 type  1   force =    -0.00221940   -0.00011407   -0.00506298
     atom    7 type  1   force =     0.00024035    0.00077707    0.00102445
     atom    8 type  1   force =    -0.00198555    0.00016351    0.00926780
     atom    9 type  1   force =     0.00328215    0.00019220   -0.00313586
     atom   10 type  1   force =    -0.00014711   -0.00071597    0.00065199
     atom   11 type  1   force =     0.00086149   -0.00465200    0.00334379
     atom   12 type  1   force =     0.00128538   -0.00135251   -0.00206010
     atom   13 type  1   force =     0.00025424    0.00074218    0.00057625
     atom   14 type  1   force =     0.00010423    0.00246958    0.00084543
     atom   15 type  1   force =     0.00165227   -0.00351380   -0.00294597
     atom   16 type  1   force =     0.00001203   -0.00058227    0.00066998
     atom   17 type  1   force =     0.00495653    0.00271924    0.00753781
     atom   18 type  1   force =     0.00010193   -0.00018287    0.00050993
     atom   19 type  1   force =     0.00015502    0.00086630    0.00103802
     atom   20 type  1   force =    -0.00190329    0.00209544    0.01048514
     atom   21 type  1   force =    -0.00061780   -0.00013808   -0.00151376
     atom   22 type  1   force =    -0.00024869   -0.00060478    0.00098929
     atom   23 type  1   force =    -0.00260370    0.00196227    0.00480053
     atom   24 type  1   force =    -0.00153052    0.00117586   -0.00527482
     atom   25 type  2   force =     0.10908204    0.03942930    0.01160269
     atom   26 type  2   force =    -0.03609030   -0.07232019    0.01260535
     atom   27 type  2   force =     0.04226326   -0.04265516    0.01826452
     atom   28 type  2   force =    -0.04141377    0.04241529   -0.02040826
     atom   29 type  2   force =     0.04680245   -0.03802632    0.00888939
     atom   30 type  2   force =    -0.04653659    0.03618940   -0.00946334
     atom   31 type  2   force =     0.05171448    0.02736846    0.00427087
     atom   32 type  2   force =    -0.05223250   -0.02843619   -0.00761409
     atom   33 type  2   force =     0.03837029    0.04652978   -0.01826104
     atom   34 type  2   force =    -0.03666376   -0.04465876    0.01983719
     atom   35 type  2   force =    -0.01841982    0.00432718   -0.00046083
     atom   36 type  2   force =    -0.06279500    0.04847978   -0.02973199
     The ionic contribution  to forces
     atom    1 type  1   force =     0.00386845    0.04424612    0.33979964
     atom    2 type  1   force =     0.08672723    1.12354169    8.80312130
     atom    3 type  1   force =    -0.10957657   -0.94680161   -8.28191444
     atom    4 type  1   force =     0.00362950    0.03763148    0.33016000
     atom    5 type  1   force =     0.04340852    1.06967666    8.90472828
     atom    6 type  1   force =    -0.11703469   -1.01411398   -8.35036077
     atom    7 type  1   force =     0.00222616    0.04282088    0.33929280
     atom    8 type  1   force =     0.02896473    1.06940487    8.83398564
     atom    9 type  1   force =     0.00279899   -0.99860903   -8.35190719
     atom   10 type  1   force =    -0.00006439    0.03545156    0.32787625
     atom   11 type  1   force =     0.08179375    1.00217071    8.72121157
     atom   12 type  1   force =    -0.00025714   -1.05568013   -8.29703806
     atom   13 type  1   force =     0.00415779    0.04108201    0.32726574
     atom   14 type  1   force =     0.10531235    1.01468720    8.50170082
     atom   15 type  1   force =    -0.01752385   -1.07325421   -8.31586947
     atom   16 type  1   force =     0.00332254    0.04040695    0.32838236
     atom   17 type  1   force =     0.10356579    1.07323093    8.75099274
     atom   18 type  1   force =    -0.01509704   -0.99831925   -8.23652975
     atom   19 type  1   force =     0.00187554    0.04175828    0.33950245
     atom   20 type  1   force =     0.00792325    1.01941489    8.79972014
     atom   21 type  1   force =    -0.09015199   -0.99786281   -8.23939957
     atom   22 type  1   force =     0.00017228    0.03867086    0.33338349
     atom   23 type  1   force =     0.01792603    1.07827668    8.59163878
     atom   24 type  1   force =    -0.10223159   -0.94259478   -8.32566480
     atom   25 type  2   force =    -2.04507252   -0.22357757   -0.03261534
     atom   26 type  2   force =     0.23010346    1.54326193   -0.04350522
     atom   27 type  2   force =    -0.45237395    0.34732009   -1.46304713
     atom   28 type  2   force =     0.50834179   -0.74233816   -1.26223564
     atom   29 type  2   force =    -0.69863031    0.17699087   -1.75548509
     atom   30 type  2   force =     0.61741626   -0.86688802   -1.67060167
     atom   31 type  2   force =    -0.59024219   -0.37022345   -1.48255673
     atom   32 type  2   force =     0.78332763    0.21724045   -1.62509484
     atom   33 type  2   force =    -0.38786099   -0.76939504    1.31013735
     atom   34 type  2   force =     0.77967474    0.75092551    1.10288789
     atom   35 type  2   force =     0.17957558    0.00875872    0.13153855
     atom   36 type  2   force =     1.03000485   -0.81731131    0.61649989
     The local contribution  to forces
     atom    1 type  1   force =    -0.00393288   -0.04420016   -0.34025422
     atom    2 type  1   force =    -0.08770636   -1.12378717   -8.81329931
     atom    3 type  1   force =     0.11230440    0.94488398    8.28452453
     atom    4 type  1   force =    -0.00345192   -0.03784031   -0.33031929
     atom    5 type  1   force =    -0.04322852   -1.07138531   -8.91538579
     atom    6 type  1   force =     0.11900509    1.01468778    8.35513880
     atom    7 type  1   force =    -0.00240902   -0.04274709   -0.33969376
     atom    8 type  1   force =    -0.02774803   -1.06902239   -8.84453928
     atom    9 type  1   force =    -0.00642970    0.99863835    8.35563755
     atom   10 type  1   force =     0.00023119   -0.03547511   -0.32800115
     atom   11 type  1   force =    -0.08219248   -0.99842837   -8.72542486
     atom   12 type  1   force =    -0.00140836    1.05735196    8.29930880
     atom   13 type  1   force =    -0.00432667   -0.04100242   -0.32719699
     atom   14 type  1   force =    -0.10606014   -1.01699777   -8.50045988
     atom   15 type  1   force =     0.01560852    1.07679485    8.31906308
     atom   16 type  1   force =    -0.00329903   -0.04048299   -0.32855656
     atom   17 type  1   force =    -0.10737040   -1.07573323   -8.75898098
     atom   18 type  1   force =     0.01462356    0.99861088    8.23606780
     atom   19 type  1   force =    -0.00195835   -0.04182226   -0.33994914
     atom   20 type  1   force =    -0.00689297   -1.02143378   -8.81057997
     atom   21 type  1   force =     0.09163133    0.99740730    8.24079168
     atom   22 type  1   force =     0.00011628   -0.03877758   -0.33382402
     atom   23 type  1   force =    -0.01457208   -1.08096569   -8.59712137
     atom   24 type  1   force =     0.10382672    0.94148019    8.33030406
     atom   25 type  2   force =     1.35877082    0.34215178   -0.13148780
     atom   26 type  2   force =    -0.28792250   -1.28450817   -0.02784583
     atom   27 type  2   force =     0.40891702   -0.30480921    1.44490490
     atom   28 type  2   force =    -0.45842475    0.69845337    1.28581099
     atom   29 type  2   force =     0.65118785   -0.13220983    1.74025830
     atom   30 type  2   force =    -0.55902666    0.80299060    1.69636838
     atom   31 type  2   force =     0.51206494    0.32549402    1.46677790
     atom   32 type  2   force =    -0.70158669   -0.17198614    1.63817567
     atom   33 type  2   force =     0.35919626    0.69147691   -1.29636508
     atom   34 type  2   force =    -0.68651106   -0.71354023   -1.15852211
     atom   35 type  2   force =    -0.21955264   -0.01862784   -0.07543847
     atom   36 type  2   force =    -0.32596958    0.49171999   -0.39897977
     The core correction contribution to forces
     atom    1 type  1   force =    -0.00000336   -0.00003106   -0.00004647
     atom    2 type  1   force =    -0.00001202   -0.00005129   -0.00011820
     atom    3 type  1   force =     0.00003782   -0.00002584   -0.00000896
     atom    4 type  1   force =     0.00000382    0.00002612    0.00002416
     atom    5 type  1   force =    -0.00000545   -0.00001520   -0.00024991
     atom    6 type  1   force =     0.00006023    0.00001018    0.00009727
     atom    7 type  1   force =    -0.00000465   -0.00002937   -0.00004424
     atom    8 type  1   force =     0.00005245   -0.00000088   -0.00017244
     atom    9 type  1   force =    -0.00008826   -0.00000823    0.00003717
     atom   10 type  1   force =     0.00000338    0.00003065    0.00002612
     atom   11 type  1   force =    -0.00003945    0.00009557    0.00001034
     atom   12 type  1   force =    -0.00002370    0.00001472    0.00004417
     atom   13 type  1   force =    -0.00000555   -0.00002772   -0.00002849
     atom   14 type  1   force =     0.00001850   -0.00000900    0.00030598
     atom   15 type  1   force =    -0.00002948    0.00007123    0.00002330
     atom   16 type  1   force =     0.00000041    0.00002726    0.00002467
     atom   17 type  1   force =    -0.00011565   -0.00003299   -0.00009968
     atom   18 type  1   force =     0.00001772    0.00000005   -0.00004997
     atom   19 type  1   force =    -0.00000218   -0.00003224   -0.00004436
     atom   20 type  1   force =     0.00007266   -0.00002610   -0.00014008
     atom   21 type  1   force =    -0.00000683   -0.00000661   -0.00004407
     atom   22 type  1   force =     0.00000669    0.00002718    0.00001096
     atom   23 type  1   force =     0.00002654   -0.00000070    0.00013336
     atom   24 type  1   force =     0.00003364   -0.00003446    0.00008899
     atom   25 type  2   force =     0.00000000    0.00000000    0.00000000
     atom   26 type  2   force =     0.00000000    0.00000000    0.00000000
     atom   27 type  2   force =     0.00000000    0.00000000    0.00000000
     atom   28 type  2   force =     0.00000000    0.00000000    0.00000000
     atom   29 type  2   force =     0.00000000    0.00000000    0.00000000
     atom   30 type  2   force =     0.00000000    0.00000000    0.00000000
     atom   31 type  2   force =     0.00000000    0.00000000    0.00000000
     atom   32 type  2   force =     0.00000000    0.00000000    0.00000000
     atom   33 type  2   force =     0.00000000    0.00000000    0.00000000
     atom   34 type  2   force =     0.00000000    0.00000000    0.00000000
     atom   35 type  2   force =     0.00000000    0.00000000    0.00000000
     atom   36 type  2   force =     0.00000000    0.00000000    0.00000000
     The Hubbard contrib.    to forces
     atom    1 type  1   force =     0.00000000    0.00000000    0.00000000
     atom    2 type  1   force =     0.00000000    0.00000000    0.00000000
     atom    3 type  1   force =     0.00000000    0.00000000    0.00000000
     atom    4 type  1   force =     0.00000000    0.00000000    0.00000000
     atom    5 type  1   force =     0.00000000    0.00000000    0.00000000
     atom    6 type  1   force =     0.00000000    0.00000000    0.00000000
     atom    7 type  1   force =     0.00000000    0.00000000    0.00000000
     atom    8 type  1   force =     0.00000000    0.00000000    0.00000000
     atom    9 type  1   force =     0.00000000    0.00000000    0.00000000
     atom   10 type  1   force =     0.00000000    0.00000000    0.00000000
     atom   11 type  1   force =     0.00000000    0.00000000    0.00000000
     atom   12 type  1   force =     0.00000000    0.00000000    0.00000000
     atom   13 type  1   force =     0.00000000    0.00000000    0.00000000
     atom   14 type  1   force =     0.00000000    0.00000000    0.00000000
     atom   15 type  1   force =     0.00000000    0.00000000    0.00000000
     atom   16 type  1   force =     0.00000000    0.00000000    0.00000000
     atom   17 type  1   force =     0.00000000    0.00000000    0.00000000
     atom   18 type  1   force =     0.00000000    0.00000000    0.00000000
     atom   19 type  1   force =     0.00000000    0.00000000    0.00000000
     atom   20 type  1   force =     0.00000000    0.00000000    0.00000000
     atom   21 type  1   force =     0.00000000    0.00000000    0.00000000
     atom   22 type  1   force =     0.00000000    0.00000000    0.00000000
     atom   23 type  1   force =     0.00000000    0.00000000    0.00000000
     atom   24 type  1   force =     0.00000000    0.00000000    0.00000000
     atom   25 type  2   force =     0.00000000    0.00000000    0.00000000
     atom   26 type  2   force =     0.00000000    0.00000000    0.00000000
     atom   27 type  2   force =     0.00000000    0.00000000    0.00000000
     atom   28 type  2   force =     0.00000000    0.00000000    0.00000000
     atom   29 type  2   force =     0.00000000    0.00000000    0.00000000
     atom   30 type  2   force =     0.00000000    0.00000000    0.00000000
     atom   31 type  2   force =     0.00000000    0.00000000    0.00000000
     atom   32 type  2   force =     0.00000000    0.00000000    0.00000000
     atom   33 type  2   force =     0.00000000    0.00000000    0.00000000
     atom   34 type  2   force =     0.00000000    0.00000000    0.00000000
     atom   35 type  2   force =     0.00000000    0.00000000    0.00000000
     atom   36 type  2   force =     0.00000000    0.00000000    0.00000000
     The SCF correction term to forces
     atom    1 type  1   force =    -0.00000151   -0.00003942   -0.00031960
     atom    2 type  1   force =     0.00000408    0.00004486    0.00033412
     atom    3 type  1   force =    -0.00000844    0.00000876   -0.00015319
     atom    4 type  1   force =    -0.00000707   -0.00003533   -0.00032108
     atom    5 type  1   force =    -0.00000595    0.00004189    0.00035702
     atom    6 type  1   force =    -0.00000953   -0.00001217   -0.00016539
     atom    7 type  1   force =     0.00000156   -0.00003788   -0.00032273
     atom    8 type  1   force =    -0.00000193    0.00003672    0.00033909
     atom    9 type  1   force =     0.00000718   -0.00003137   -0.00017132
     atom   10 type  1   force =    -0.00000203   -0.00003811   -0.00032272
     atom   11 type  1   force =     0.00001166    0.00002425    0.00033428
     atom   12 type  1   force =     0.00000661   -0.00004692   -0.00015933
     atom   13 type  1   force =    -0.00000144   -0.00004279   -0.00032235
     atom   14 type  1   force =     0.00001051    0.00004208    0.00033212
     atom   15 type  1   force =     0.00003247   -0.00003438   -0.00015912
     atom   16 type  1   force =    -0.00000266   -0.00003928   -0.00032065
     atom   17 type  1   force =     0.00001491    0.00004354    0.00033605
     atom   18 type  1   force =     0.00002980   -0.00001315   -0.00016847
     atom   19 type  1   force =     0.00000120   -0.00004076   -0.00032069
     atom   20 type  1   force =    -0.00000739    0.00003818    0.00033355
     atom   21 type  1   force =    -0.00003224   -0.00002621   -0.00016795
     atom   22 type  1   force =    -0.00000662   -0.00003632   -0.00032035
     atom   23 type  1   force =    -0.00001018    0.00005321    0.00031807
     atom   24 type  1   force =    -0.00003166   -0.00000353   -0.00015946
     atom   25 type  2   force =    -0.00000893    0.00001772    0.00003882
     atom   26 type  2   force =    -0.00001629    0.00000373    0.00003960
     atom   27 type  2   force =     0.00001486   -0.00000666    0.00004045
     atom   28 type  2   force =    -0.00001108    0.00001769    0.00003453
     atom   29 type  2   force =     0.00000286   -0.00001815    0.00005606
     atom   30 type  2   force =    -0.00001246    0.00000636    0.00004664
     atom   31 type  2   force =     0.00003019    0.00002428    0.00004844
     atom   32 type  2   force =    -0.00001588   -0.00000063    0.00004134
     atom   33 type  2   force =     0.00003289   -0.00000337    0.00002850
     atom   34 type  2   force =     0.00001404   -0.00001878    0.00004245
     atom   35 type  2   force =     0.00001628    0.00000394    0.00004005
     atom   36 type  2   force =    -0.00003340    0.00002623    0.00003358

     Total force =     0.983608     Total SCF correction =     0.001416


     Computing stress (Cartesian axis) and pressure

          total   stress  (Ry/bohr**3)                   (kbar)     P=       38.45
   0.00045843  -0.00019816   0.00008607           67.44      -29.15       12.66
  -0.00019816   0.00025513  -0.00008044          -29.15       37.53      -11.83
   0.00008607  -0.00008044   0.00007057           12.66      -11.83       10.38


     BFGS Geometry Optimization
     Energy error            =      0.0E+00 Ry
     Gradient error          =      6.4E-01 Ry/Bohr
     Cell gradient error     =      6.7E+01 kbar

     number of scf cycles    =   1
     number of bfgs steps    =   0

     enthalpy           new  =    -300.3543737182 Ry

     new trust radius        =       0.5000000000 bohr
     new conv_thr            =       0.0000010000 Ry

     new unit-cell volume =   1971.91984 a.u.^3 (   292.20837 Ang^3 )
     density =      1.70685 g/cm^3

CELL_PARAMETERS (alat=  8.00000437)
   1.164516813  -0.001288652  -0.006450664
  -0.588975734   0.998622451  -0.118384646
   0.000996144  -0.257002313   3.345340833

ATOMIC_POSITIONS (crystal)
C            -0.0602323804       -0.1021900269        0.1545545947
C             0.0251274153        0.0578395673        0.3932538163
C             0.0428762348        0.0635969261        0.9174939061
C             0.1063652866        0.2310072947        0.1544619341
C             0.3586343476        0.2246631638        0.3936285896
C             0.2094844796        0.3969341072        0.9173582327
C             0.4397577155       -0.1021953644        0.1545474803
C             0.5252693240        0.0579341183        0.3933944086
C             0.5427127354        0.0636108590        0.9174307185
C             0.6063611423        0.2310091594        0.1544550742
C             0.8584211170        0.2243356320        0.3929412315
C             0.7094068563        0.3969690038        0.9174171382
C            -0.0602521893        0.3977817843        0.1545165026
C             0.0247522189        0.5571730666        0.3923429539
C             0.0428143514        0.5637174109        0.9174368138
C             0.1063606338        0.7310157463        0.1544591360
C             0.3583561508        0.7243364834        0.3931210081
C             0.2095506364        0.8970575415        0.9175409893
C             0.4397600600        0.3977985226        0.1545501473
C             0.5252141562        0.5578596516        0.3933073775
C             0.5428254507        0.5636532147        0.9175303733
C             0.6063760827        0.7310301546        0.1544881384
C             0.8583178259        0.7240796195        0.3927130655
C             0.7094947722        0.8968913828        0.9173830249
H             0.6564743487        0.9987070364        0.6276264126
H             0.8570454888        1.1541790113        0.6299067987
H             0.2843395205        0.6572798112        0.7053807429
H             0.3287411867        0.5350963582        0.7182766756
H             0.7807181552        0.6705566319        0.7317648237
H             0.8439886630        0.5540012518        0.7371796011
H             0.2195064022        0.0634488038        0.7192139372
H             0.4078681145        0.1538659961        0.7295143561
H            -0.0599088578        0.6173805975        0.5887106314
H             0.1064179671        0.7452859118        0.5748974566
H             0.9432607563        0.8544229578        0.6440456695
H             0.8272255450        0.9294225169        0.6450447647



     Writing config-only to output data dir ../../results/server/6h2_abs/6H2abs_C.save/
     NEW-OLD atomic charge density approx. for the potential

     Check: negative core charge=   -0.000002
     extrapolated charge  109.44749, renormalised to  108.00000

     total cpu time spent up to now is       41.3 secs

     Self-consistent Calculation

     iteration #  1     ecut=    40.00 Ry     beta= 0.05
     Davidson diagonalization with overlap
     c_bands:  4 eigenvalues not converged
     c_bands:  3 eigenvalues not converged
     c_bands:  4 eigenvalues not converged
     c_bands:  2 eigenvalues not converged
     c_bands:  2 eigenvalues not converged
     c_bands:  2 eigenvalues not converged
     c_bands:  2 eigenvalues not converged
     c_bands:  5 eigenvalues not converged
     c_bands:  3 eigenvalues not converged
     c_bands:  2 eigenvalues not converged
     c_bands:  2 eigenvalues not converged
     c_bands:  4 eigenvalues not converged
     c_bands:  4 eigenvalues not converged
     c_bands:  4 eigenvalues not converged
     c_bands:  4 eigenvalues not converged
     c_bands:  4 eigenvalues not converged
     ethr =  1.00E-06,  avg # of iterations = 21.3

     total cpu time spent up to now is       47.2 secs

     total energy              =    -300.45471141 Ry
     estimated scf accuracy    <       1.01834108 Ry

     iteration #  2     ecut=    40.00 Ry     beta= 0.05
     Davidson diagonalization with overlap
     ethr =  9.43E-04,  avg # of iterations =  3.9

     total cpu time spent up to now is       48.4 secs

     total energy              =    -300.67111770 Ry
     estimated scf accuracy    <       0.05668031 Ry

     iteration #  3     ecut=    40.00 Ry     beta= 0.05
     Davidson diagonalization with overlap
     c_bands:  1 eigenvalues not converged
     c_bands:  1 eigenvalues not converged
     ethr =  5.25E-05,  avg # of iterations = 14.7

     total cpu time spent up to now is       50.9 secs

     total energy              =    -300.66824827 Ry
     estimated scf accuracy    <       0.04936192 Ry

     iteration #  4     ecut=    40.00 Ry     beta= 0.05
     Davidson diagonalization with overlap
     ethr =  4.57E-05,  avg # of iterations =  1.2

     total cpu time spent up to now is       51.7 secs

     total energy              =    -300.66237430 Ry
     estimated scf accuracy    <       0.02615047 Ry

     iteration #  5     ecut=    40.00 Ry     beta= 0.05
     Davidson diagonalization with overlap
     ethr =  2.42E-05,  avg # of iterations =  2.1

     total cpu time spent up to now is       52.5 secs

     total energy              =    -300.66359276 Ry
     estimated scf accuracy    <       0.00537944 Ry

     iteration #  6     ecut=    40.00 Ry     beta= 0.05
     Davidson diagonalization with overlap
     c_bands:  1 eigenvalues not converged
     ethr =  4.98E-06,  avg # of iterations =  8.7

     total cpu time spent up to now is       54.2 secs

     total energy              =    -300.66376422 Ry
     estimated scf accuracy    <       0.00434516 Ry

     iteration #  7     ecut=    40.00 Ry     beta= 0.05
     Davidson diagonalization with overlap
     c_bands:  1 eigenvalues not converged
     ethr =  4.02E-06,  avg # of iterations =  2.8

     total cpu time spent up to now is       55.2 secs

     total energy              =    -300.66307321 Ry
     estimated scf accuracy    <       0.00370467 Ry

     iteration #  8     ecut=    40.00 Ry     beta= 0.05
     Davidson diagonalization with overlap
     c_bands:  1 eigenvalues not converged
     c_bands:  1 eigenvalues not converged
     ethr =  3.43E-06,  avg # of iterations =  6.1

     total cpu time spent up to now is       56.5 secs

     total energy              =    -300.66318732 Ry
     estimated scf accuracy    <       0.00229419 Ry

     iteration #  9     ecut=    40.00 Ry     beta= 0.05
     Davidson diagonalization with overlap
     ethr =  2.12E-06,  avg # of iterations =  2.2

     total cpu time spent up to now is       57.5 secs

     total energy              =    -300.66313343 Ry
     estimated scf accuracy    <       0.00220505 Ry

     iteration # 10     ecut=    40.00 Ry     beta= 0.05
     Davidson diagonalization with overlap
     ethr =  2.04E-06,  avg # of iterations =  2.2

     total cpu time spent up to now is       58.5 secs

     total energy              =    -300.66226752 Ry
     estimated scf accuracy    <       0.00199121 Ry

     iteration # 11     ecut=    40.00 Ry     beta= 0.05
     Davidson diagonalization with overlap
     c_bands:  1 eigenvalues not converged
     c_bands:  1 eigenvalues not converged
     c_bands:  1 eigenvalues not converged
     c_bands:  1 eigenvalues not converged
     ethr =  1.84E-06,  avg # of iterations = 13.1

     total cpu time spent up to now is       61.0 secs

     total energy              =    -300.66255693 Ry
     estimated scf accuracy    <       0.00076876 Ry

     iteration # 12     ecut=    40.00 Ry     beta= 0.05
     Davidson diagonalization with overlap
     ethr =  7.12E-07,  avg # of iterations =  2.1

     total cpu time spent up to now is       61.9 secs

     total energy              =    -300.66240636 Ry
     estimated scf accuracy    <       0.00079309 Ry

     iteration # 13     ecut=    40.00 Ry     beta= 0.05
     Davidson diagonalization with overlap
     ethr =  7.12E-07,  avg # of iterations =  1.6

     total cpu time spent up to now is       62.7 secs

     total energy              =    -300.66232311 Ry
     estimated scf accuracy    <       0.00037552 Ry

     iteration # 14     ecut=    40.00 Ry     beta= 0.05
     Davidson diagonalization with overlap
     c_bands:  1 eigenvalues not converged
     c_bands:  1 eigenvalues not converged
     ethr =  3.48E-07,  avg # of iterations =  4.8

     total cpu time spent up to now is       64.1 secs

     total energy              =    -300.66237411 Ry
     estimated scf accuracy    <       0.00013337 Ry

     iteration # 15     ecut=    40.00 Ry     beta= 0.05
     Davidson diagonalization with overlap
     ethr =  1.23E-07,  avg # of iterations =  2.0

     total cpu time spent up to now is       65.0 secs

     total energy              =    -300.66234952 Ry
     estimated scf accuracy    <       0.00013202 Ry

     iteration # 16     ecut=    40.00 Ry     beta= 0.05
     Davidson diagonalization with overlap
     ethr =  1.22E-07,  avg # of iterations =  2.0

     total cpu time spent up to now is       66.0 secs

     total energy              =    -300.66234034 Ry
     estimated scf accuracy    <       0.00006485 Ry

     iteration # 17     ecut=    40.00 Ry     beta= 0.05
     Davidson diagonalization with overlap
     ethr =  6.01E-08,  avg # of iterations =  5.6

     total cpu time spent up to now is       67.7 secs

     total energy              =    -300.66234239 Ry
     estimated scf accuracy    <       0.00005318 Ry

     iteration # 18     ecut=    40.00 Ry     beta= 0.05
     Davidson diagonalization with overlap
     ethr =  4.92E-08,  avg # of iterations =  2.0

     total cpu time spent up to now is       68.6 secs

     total energy              =    -300.66234184 Ry
     estimated scf accuracy    <       0.00003036 Ry

     iteration # 19     ecut=    40.00 Ry     beta= 0.05
     Davidson diagonalization with overlap
     ethr =  2.81E-08,  avg # of iterations =  2.0

     total cpu time spent up to now is       69.5 secs

     total energy              =    -300.66233437 Ry
     estimated scf accuracy    <       0.00002499 Ry

     iteration # 20     ecut=    40.00 Ry     beta= 0.05
     Davidson diagonalization with overlap
     ethr =  2.31E-08,  avg # of iterations =  2.0

     total cpu time spent up to now is       70.4 secs

     total energy              =    -300.66233742 Ry
     estimated scf accuracy    <       0.00000651 Ry

     iteration # 21     ecut=    40.00 Ry     beta= 0.05
     Davidson diagonalization with overlap
     ethr =  6.03E-09,  avg # of iterations =  1.9

     total cpu time spent up to now is       71.4 secs

     total energy              =    -300.66233774 Ry
     estimated scf accuracy    <       0.00000613 Ry

     iteration # 22     ecut=    40.00 Ry     beta= 0.05
     Davidson diagonalization with overlap
     ethr =  5.68E-09,  avg # of iterations =  2.3

     total cpu time spent up to now is       72.4 secs

     total energy              =    -300.66233743 Ry
     estimated scf accuracy    <       0.00000944 Ry

     iteration # 23     ecut=    40.00 Ry     beta= 0.05
     Davidson diagonalization with overlap
     ethr =  5.68E-09,  avg # of iterations =  1.1

     total cpu time spent up to now is       73.2 secs

     total energy              =    -300.66233777 Ry
     estimated scf accuracy    <       0.00000746 Ry

     iteration # 24     ecut=    40.00 Ry     beta= 0.05
     Davidson diagonalization with overlap
     ethr =  5.68E-09,  avg # of iterations =  2.0

     total cpu time spent up to now is       74.0 secs

     total energy              =    -300.66233632 Ry
     estimated scf accuracy    <       0.00000860 Ry

     iteration # 25     ecut=    40.00 Ry     beta= 0.05
     Davidson diagonalization with overlap
     ethr =  5.68E-09,  avg # of iterations =  2.0

     total cpu time spent up to now is       75.0 secs

     total energy              =    -300.66233673 Ry
     estimated scf accuracy    <       0.00000300 Ry

     iteration # 26     ecut=    40.00 Ry     beta= 0.05
     Davidson diagonalization with overlap
     ethr =  2.78E-09,  avg # of iterations =  1.0

     total cpu time spent up to now is       75.8 secs

     total energy              =    -300.66233653 Ry
     estimated scf accuracy    <       0.00000255 Ry

     iteration # 27     ecut=    40.00 Ry     beta= 0.05
     Davidson diagonalization with overlap
     ethr =  2.36E-09,  avg # of iterations =  1.0

     total cpu time spent up to now is       76.5 secs

     total energy              =    -300.66233582 Ry
     estimated scf accuracy    <       0.00000200 Ry

     iteration # 28     ecut=    40.00 Ry     beta= 0.05
     Davidson diagonalization with overlap
     ethr =  1.86E-09,  avg # of iterations =  3.7

     total cpu time spent up to now is       77.8 secs

     End of self-consistent calculation

          k = 0.0722 0.1361 0.0852 (  8311 PWs)   bands (ev):

   -14.8972 -14.7680 -14.6288 -10.5905 -10.5816 -10.4900 -10.4810 -10.3821
   -10.3737  -9.6420  -9.5823  -9.4921  -8.6652  -8.6044  -8.5302  -7.7017
    -7.6965  -7.6177  -7.6129  -7.5271  -7.5227  -6.2879  -3.8774  -3.3906
    -2.6374  -2.4563  -2.3996  -2.3370  -2.1094  -2.0952  -2.0770  -2.0528
    -2.0353  -1.9916  -1.9773  -1.6457  -0.3328  -0.2281   0.9162   0.9672
     1.0257   1.0928   1.1197   1.1363   1.1565   1.2095   1.5921   1.6130
     1.7862   2.0550   2.0641   2.0784   2.4165   2.9488   5.7581   6.0818
     6.3734   6.3928   6.4015   6.6979   6.7582   7.1101   7.1221   7.6532
     8.4707

          k = 0.0713 0.1177-0.0657 (  8326 PWs)   bands (ev):

   -14.8972 -14.7679 -14.6288 -10.5905 -10.5816 -10.4900 -10.4810 -10.3821
   -10.3737  -9.6420  -9.5824  -9.4921  -8.6652  -8.6043  -8.5302  -7.7017
    -7.6965  -7.6177  -7.6129  -7.5271  -7.5227  -6.2874  -3.9148  -3.3142
    -2.6526  -2.4563  -2.3996  -2.3371  -2.1537  -2.1086  -2.0942  -2.0528
    -2.0353  -1.9916  -1.9773  -1.5965  -0.3304  -0.2279   0.9162   0.9672
     1.0257   1.0929   1.1241   1.1346   1.1564   1.2095   1.5865   1.6128
     1.7934   2.0351   2.0639   2.0796   2.4412   2.9373   5.7505   6.0945
     6.3709   6.3881   6.4061   6.7090   6.7494   7.0937   7.1303   7.6608
     8.4976

          k = 0.0724 0.3047 0.0981 (  8310 PWs)   bands (ev):

[...]
     atom    6 type  1   force =     0.14886962   -1.38170415   -9.72746644
     atom    7 type  1   force =    -0.00063131    0.01132799    0.08205710
     atom    8 type  1   force =    -0.20251966    1.35608001    9.95419502
     atom    9 type  1   force =     0.28451508   -1.28883547   -9.67377824
     atom   10 type  1   force =    -0.00115437    0.01537223    0.11342387
     atom   11 type  1   force =    -0.23330397    1.35063730   10.02417227
     atom   12 type  1   force =     0.27092770   -1.35638108   -9.62837748
     atom   13 type  1   force =    -0.00285328    0.01883452    0.14798982
     atom   14 type  1   force =    -0.27310782    1.40572068   10.01425213
     atom   15 type  1   force =     0.21116337   -1.40246703   -9.66194627
     atom   16 type  1   force =    -0.00216447    0.01268347    0.09334161
     atom   17 type  1   force =    -0.19923285    1.38627008    9.98092748
     atom   18 type  1   force =     0.20590449   -1.32085459   -9.65017304
     atom   19 type  1   force =    -0.00393669    0.01310580    0.10310064
     atom   20 type  1   force =    -0.17577289    1.41233520   10.01789499
     atom   21 type  1   force =     0.21665808   -1.31193044   -9.60558616
     atom   22 type  1   force =     0.00051909    0.00808714    0.05108692
     atom   23 type  1   force =    -0.24115820    1.39611691   10.12155965
     atom   24 type  1   force =     0.22161200   -1.26240139   -9.76795341
     atom   25 type  2   force =    -0.73153705   -0.01483496    1.54573880
     atom   26 type  2   force =     0.64200330    0.44104939    1.64994264
     atom   27 type  2   force =     0.00137772    0.55369292   -2.12025170
     atom   28 type  2   force =     0.09122195   -1.09495004   -1.90633078
     atom   29 type  2   force =    -0.72778118    0.04702850   -1.96495254
     atom   30 type  2   force =     0.80424051   -0.57341845   -1.82925452
     atom   31 type  2   force =    -0.55054464   -0.80870007   -1.92043095
     atom   32 type  2   force =     0.66910178    0.27050305   -2.01535979
     atom   33 type  2   force =    -0.63995928   -0.30587786    1.97804972
     atom   34 type  2   force =     0.56970338    0.85994720    1.84873236
     atom   35 type  2   force =     0.76375311    0.19155207    0.60831456
     atom   36 type  2   force =    -0.81459643   -0.03597129    0.70280459
     The local contribution  to forces
     atom    1 type  1   force =     0.00279310   -0.01250826   -0.07988168
     atom    2 type  1   force =     0.23296403   -1.32349780  -10.07183820
     atom    3 type  1   force =    -0.14695298    1.31353334    9.79706328
     atom    4 type  1   force =     0.00381522   -0.01415656   -0.10459450
     atom    5 type  1   force =     0.21090409   -1.36978346   -9.97272928
     atom    6 type  1   force =    -0.14745961    1.38224323    9.72716857
     atom    7 type  1   force =     0.00114231   -0.01148112   -0.08124636
     atom    8 type  1   force =     0.20350679   -1.35586706   -9.95062178
     atom    9 type  1   force =    -0.28577656    1.28816626    9.67245674
     atom   10 type  1   force =     0.00066448   -0.01541173   -0.11412015
     atom   11 type  1   force =     0.23198312   -1.34911405  -10.02237887
     atom   12 type  1   force =    -0.27236746    1.35702291    9.62521812
     atom   13 type  1   force =     0.00317699   -0.01915359   -0.14907319
     atom   14 type  1   force =     0.27364427   -1.40604216  -10.01229396
     atom   15 type  1   force =    -0.21099535    1.40340106    9.66023267
     atom   16 type  1   force =     0.00193159   -0.01238697   -0.09339601
     atom   17 type  1   force =     0.19778535   -1.38632724   -9.97817921
     atom   18 type  1   force =    -0.20523794    1.32041550    9.64894486
     atom   19 type  1   force =     0.00424644   -0.01336118   -0.10292498
     atom   20 type  1   force =     0.17500466   -1.41309490  -10.01723664
     atom   21 type  1   force =    -0.21730198    1.31144176    9.60265643
     atom   22 type  1   force =    -0.00085571   -0.00776929   -0.04979055
     atom   23 type  1   force =     0.24186630   -1.39683664  -10.12238883
     atom   24 type  1   force =    -0.22149902    1.26086984    9.76862832
     atom   25 type  2   force =     0.68324374   -0.00403262   -1.57382448
     atom   26 type  2   force =    -0.59523312   -0.42182146   -1.62193205
     atom   27 type  2   force =    -0.00870010   -0.49516427    2.11397912
     atom   28 type  2   force =    -0.08283496    1.03668157    1.91173905
     atom   29 type  2   force =     0.66969444   -0.02923176    1.95780211
     atom   30 type  2   force =    -0.74624280    0.55498423    1.83756362
     atom   31 type  2   force =     0.50844682    0.76517423    1.92259154
     atom   32 type  2   force =    -0.62582677   -0.22580563    2.01283776
     atom   33 type  2   force =     0.59557770    0.26347428   -1.97291899
     atom   34 type  2   force =    -0.52522853   -0.81684763   -1.85265459
     atom   35 type  2   force =    -0.70424425   -0.18371530   -0.61777941
     atom   36 type  2   force =     0.75441867    0.02771881   -0.69357892
     The core correction contribution to forces
     atom    1 type  1   force =     0.00000514    0.00000569    0.00001272
     atom    2 type  1   force =     0.00001777    0.00001947   -0.00010156
     atom    3 type  1   force =     0.00000861    0.00002236    0.00016435
     atom    4 type  1   force =    -0.00000224   -0.00000188    0.00000989
     atom    5 type  1   force =     0.00000374    0.00000270    0.00003559
     atom    6 type  1   force =     0.00006052    0.00002115    0.00007588
     atom    7 type  1   force =     0.00000396   -0.00000110    0.00000506
     atom    8 type  1   force =     0.00002304    0.00000583    0.00016423
     atom    9 type  1   force =    -0.00005271   -0.00002872   -0.00007796
     atom   10 type  1   force =    -0.00000539   -0.00000100   -0.00000400
     atom   11 type  1   force =    -0.00004084    0.00002466   -0.00003760
     atom   12 type  1   force =    -0.00001294    0.00001276   -0.00013309
     atom   13 type  1   force =     0.00000455   -0.00001400   -0.00012898
     atom   14 type  1   force =     0.00002533   -0.00001386    0.00003568
     atom   15 type  1   force =    -0.00002493    0.00003180   -0.00007278
     atom   16 type  1   force =    -0.00000196    0.00000420    0.00003815
     atom   17 type  1   force =    -0.00005067    0.00003019    0.00005162
     atom   18 type  1   force =     0.00002723   -0.00000512    0.00003851
     atom   19 type  1   force =     0.00000455   -0.00000381   -0.00003621
     atom   20 type  1   force =    -0.00000201   -0.00003042    0.00001644
     atom   21 type  1   force =    -0.00002614   -0.00002430   -0.00010177
     atom   22 type  1   force =    -0.00000798    0.00001460    0.00012756
     atom   23 type  1   force =     0.00002623   -0.00003685   -0.00011349
     atom   24 type  1   force =     0.00001425   -0.00002190    0.00011589
     atom   25 type  2   force =     0.00000000    0.00000000    0.00000000
     atom   26 type  2   force =     0.00000000    0.00000000    0.00000000
     atom   27 type  2   force =     0.00000000    0.00000000    0.00000000
     atom   28 type  2   force =     0.00000000    0.00000000    0.00000000
     atom   29 type  2   force =     0.00000000    0.00000000    0.00000000
     atom   30 type  2   force =     0.00000000    0.00000000    0.00000000
     atom   31 type  2   force =     0.00000000    0.00000000    0.00000000
     atom   32 type  2   force =     0.00000000    0.00000000    0.00000000
     atom   33 type  2   force =     0.00000000    0.00000000    0.00000000
     atom   34 type  2   force =     0.00000000    0.00000000    0.00000000
     atom   35 type  2   force =     0.00000000    0.00000000    0.00000000
     atom   36 type  2   force =     0.00000000    0.00000000    0.00000000
     The Hubbard contrib.    to forces
     atom    1 type  1   force =     0.00000000    0.00000000    0.00000000
     atom    2 type  1   force =     0.00000000    0.00000000    0.00000000
     atom    3 type  1   force =     0.00000000    0.00000000    0.00000000
     atom    4 type  1   force =     0.00000000    0.00000000    0.00000000
     atom    5 type  1   force =     0.00000000    0.00000000    0.00000000
     atom    6 type  1   force =     0.00000000    0.00000000    0.00000000
     atom    7 type  1   force =     0.00000000    0.00000000    0.00000000
     atom    8 type  1   force =     0.00000000    0.00000000    0.00000000
     atom    9 type  1   force =     0.00000000    0.00000000    0.00000000
     atom   10 type  1   force =     0.00000000    0.00000000    0.00000000
     atom   11 type  1   force =     0.00000000    0.00000000    0.00000000
     atom   12 type  1   force =     0.00000000    0.00000000    0.00000000
     atom   13 type  1   force =     0.00000000    0.00000000    0.00000000
     atom   14 type  1   force =     0.00000000    0.00000000    0.00000000
     atom   15 type  1   force =     0.00000000    0.00000000    0.00000000
     atom   16 type  1   force =     0.00000000    0.00000000    0.00000000
     atom   17 type  1   force =     0.00000000    0.00000000    0.00000000
     atom   18 type  1   force =     0.00000000    0.00000000    0.00000000
     atom   19 type  1   force =     0.00000000    0.00000000    0.00000000
     atom   20 type  1   force =     0.00000000    0.00000000    0.00000000
     atom   21 type  1   force =     0.00000000    0.00000000    0.00000000
     atom   22 type  1   force =     0.00000000    0.00000000    0.00000000
     atom   23 type  1   force =     0.00000000    0.00000000    0.00000000
     atom   24 type  1   force =     0.00000000    0.00000000    0.00000000
     atom   25 type  2   force =     0.00000000    0.00000000    0.00000000
     atom   26 type  2   force =     0.00000000    0.00000000    0.00000000
     atom   27 type  2   force =     0.00000000    0.00000000    0.00000000
     atom   28 type  2   force =     0.00000000    0.00000000    0.00000000
     atom   29 type  2   force =     0.00000000    0.00000000    0.00000000
     atom   30 type  2   force =     0.00000000    0.00000000    0.00000000
     atom   31 type  2   force =     0.00000000    0.00000000    0.00000000
     atom   32 type  2   force =     0.00000000    0.00000000    0.00000000
     atom   33 type  2   force =     0.00000000    0.00000000    0.00000000
     atom   34 type  2   force =     0.00000000    0.00000000    0.00000000
     atom   35 type  2   force =     0.00000000    0.00000000    0.00000000
     atom   36 type  2   force =     0.00000000    0.00000000    0.00000000
     The SCF correction term to forces
     atom    1 type  1   force =     0.00000092   -0.00000872   -0.00002060
     atom    2 type  1   force =    -0.00000086    0.00000453   -0.00003351
     atom    3 type  1   force =    -0.00001734    0.00001392    0.00006204
     atom    4 type  1   force =    -0.00000149   -0.00000283   -0.00002266
     atom    5 type  1   force =    -0.00000641   -0.00000889   -0.00003519
     atom    6 type  1   force =    -0.00001864    0.00001170    0.00005315
     atom    7 type  1   force =    -0.00000539   -0.00000150   -0.00002239
     atom    8 type  1   force =     0.00000775   -0.00001222   -0.00003498
     atom    9 type  1   force =     0.00001046    0.00000568    0.00005975
     atom   10 type  1   force =    -0.00000272    0.00000313   -0.00002379
     atom   11 type  1   force =     0.00001644   -0.00000395   -0.00003143
     atom   12 type  1   force =     0.00001058    0.00001342    0.00006201
     atom   13 type  1   force =    -0.00000907    0.00000272   -0.00002378
     atom   14 type  1   force =     0.00001729   -0.00001162   -0.00003110
     atom   15 type  1   force =     0.00000401    0.00000370    0.00005568
     atom   16 type  1   force =    -0.00000637   -0.00000401   -0.00002262
     atom   17 type  1   force =     0.00000114   -0.00001386   -0.00003552
     atom   18 type  1   force =    -0.00000476   -0.00000054    0.00006123
     atom   19 type  1   force =     0.00000525   -0.00000089   -0.00002249
     atom   20 type  1   force =    -0.00000922   -0.00000735   -0.00003728
     atom   21 type  1   force =    -0.00001128    0.00002015    0.00005779
     atom   22 type  1   force =     0.00000295   -0.00000452   -0.00002190
     atom   23 type  1   force =     0.00000732   -0.00000059   -0.00003411
     atom   24 type  1   force =    -0.00000342    0.00001650    0.00005841
     atom   25 type  2   force =    -0.00000038   -0.00000394   -0.00000755
     atom   26 type  2   force =     0.00000021   -0.00000464   -0.00001006
     atom   27 type  2   force =    -0.00000150    0.00000238    0.00001065
     atom   28 type  2   force =    -0.00000265   -0.00000060    0.00001058
     atom   29 type  2   force =    -0.00000468    0.00000196    0.00001031
     atom   30 type  2   force =     0.00000618   -0.00000233    0.00001231
     atom   31 type  2   force =    -0.00000022    0.00000383    0.00000953
     atom   32 type  2   force =    -0.00000037    0.00000073    0.00001079
     atom   33 type  2   force =     0.00000233    0.00000029   -0.00000950
     atom   34 type  2   force =    -0.00000219   -0.00000207   -0.00000811
     atom   35 type  2   force =     0.00000032    0.00000077   -0.00000833
     atom   36 type  2   force =    -0.00000046    0.00000021   -0.00000769

     Total force =     0.011265     Total SCF correction =     0.000216


     Computing stress (Cartesian axis) and pressure

          total   stress  (Ry/bohr**3)                   (kbar)     P=       -0.50
  -0.00000306   0.00000060  -0.00000105           -0.45        0.09       -0.15
   0.00000060   0.00000148  -0.00000198            0.09        0.22       -0.29
  -0.00000105  -0.00000198  -0.00000869           -0.15       -0.29       -1.28

     Energy error            =      2.0E-04 Ry
     Gradient error          =      4.0E-03 Ry/Bohr
     Cell gradient error     =      1.3E+00 kbar

     number of scf cycles    =  50
     number of bfgs steps    =  49

     enthalpy           old  =    -300.8965308741 Ry
     enthalpy           new  =    -300.8967278317 Ry

     CASE: enthalpy          _new < enthalpy          _old

     new trust radius        =       0.0607342926 bohr

     The maximum number of steps has been reached.

     End of BFGS Geometry Optimization
     new unit-cell volume =   2003.80871 a.u.^3 (   296.93382 Ang^3 )
     density =      1.67969 g/cm^3

CELL_PARAMETERS (alat=  8.00000437)
   1.154766992   0.006488357   0.025376056
  -0.580055001   0.987891497  -0.149571582
   0.084614511  -0.288632261   3.461182554

ATOMIC_POSITIONS (crystal)
C            -0.0531066316       -0.1020988180        0.1578214131
C             0.0092876405        0.0706880051        0.3865508592
C             0.0533887865        0.0522685751        0.9278329655
C             0.1134900541        0.2312073352        0.1578470623
C             0.3425712570        0.2373267734        0.3862799301
C             0.2201296840        0.3857278500        0.9279825658
C             0.4468962131       -0.1020992423        0.1578360031
C             0.5091935065        0.0703937046        0.3859832508
C             0.5533936154        0.0525113328        0.9282260192
C             0.6134872951        0.2312154278        0.1578786133
C             0.8425650393        0.2373851333        0.3864470927
C             0.7201207689        0.3859908839        0.9283826087
C            -0.0531019425        0.3980675006        0.1580330850
C             0.0093141705        0.5704973805        0.3862538392
C             0.0534600950        0.5526489124        0.9282994812
C             0.1135170703        0.7311715499        0.1577980159
C             0.3426192432        0.7373195090        0.3862125473
C             0.2200801704        0.8857201101        0.9280575031
C             0.4468714861        0.3979379966        0.1578873943
C             0.5093190041        0.5706901272        0.3864690195
C             0.5534770442        0.5526324872        0.9283189557
C             0.6134826390        0.7310266539        0.1576361255
C             0.8427640751        0.7374299296        0.3865975467
C             0.7200741226        0.8856459485        0.9279659093
H             0.4399365825        1.2299111671        0.5693584568
H             0.5992899075        1.2960272411        0.5971384463
H             0.3764156127        0.6420693248        0.7436214659
H             0.3002125101        0.4584592630        0.7413029912
H             0.7861685832        0.5863942551        0.7352721456
H             0.9093454492        0.5322547473        0.7383803669
H             0.2533903227       -0.0151634127        0.7373798980
H             0.4293323938        0.1190044905        0.7400473237
H             0.0927074224        0.5034053951        0.5721257555
H             0.2699273904        0.6302944843        0.5723344985
H             0.9451577379        0.9790463658        0.6191159225
H             0.7782533945        0.9565475162        0.6272134481



     Writing config-only to output data dir ../../results/server/6h2_abs/6H2abs_C.save/
     NEW-OLD atomic charge density approx. for the potential

     Check: negative core charge=   -0.000002
     extrapolated charge  108.00962, renormalised to  108.00000

     Writing all to output data dir ../../results/server/6h2_abs/6H2abs_C.save/
 
     init_run     :      0.73s CPU      0.84s WALL (       1 calls)
     electrons    :   1186.20s CPU   1282.76s WALL (      50 calls)
     update_pot   :     10.75s CPU     11.39s WALL (      50 calls)
     forces       :     13.47s CPU     15.96s WALL (      50 calls)
     stress       :    139.67s CPU    143.31s WALL (      50 calls)

     Called by init_run:
     wfcinit      :      0.47s CPU      0.53s WALL (       1 calls)
     potinit      :      0.08s CPU      0.09s WALL (       1 calls)
     hinit0       :      0.12s CPU      0.15s WALL (       1 calls)

     Called by electrons:
     c_bands      :   1034.31s CPU   1097.91s WALL (    1002 calls)
     sum_band     :    119.58s CPU    132.07s WALL (    1002 calls)
     v_of_rho     :      1.89s CPU      3.76s WALL (    1053 calls)
     newd         :     10.24s CPU     12.85s WALL (    1053 calls)
     mix_rho      :     11.83s CPU     20.76s WALL (    1002 calls)

     Called by c_bands:
     init_us_2    :      7.13s CPU      9.35s WALL (   37890 calls)
     init_us_2:cp :      7.00s CPU      9.15s WALL (   37890 calls)
     cegterg      :    922.96s CPU    973.20s WALL (   18058 calls)

     Called by *egterg:
     cdiaghg      :    345.38s CPU    363.05s WALL (   81658 calls)
     h_psi        :    444.41s CPU    471.38s WALL (   82580 calls)
     s_psi        :     23.92s CPU     24.64s WALL (   82580 calls)
     g_psi        :      1.61s CPU      1.70s WALL (   64504 calls)

     Called by h_psi:
     h_psi:calbec :     51.28s CPU     55.47s WALL (   82580 calls)
     vloc_psi     :    364.86s CPU    385.67s WALL (   82580 calls)
     add_vuspsi   :     25.60s CPU     27.10s WALL (   82580 calls)

     General routines
     calbec       :     82.49s CPU     88.70s WALL (  105116 calls)
     fft          :      5.28s CPU      8.33s WALL (    6668 calls)
     ffts         :      4.02s CPU      5.52s WALL (   26847 calls)
     fftw         :    370.10s CPU    390.74s WALL ( 7256932 calls)
     interpolate  :      0.52s CPU      1.23s WALL (    1053 calls)
     davcio       :      0.00s CPU      0.02s WALL (      18 calls)
 
     Parallel routines
 
     PWSCF        :  22m33.49s CPU  24m20.65s WALL

 
   This run was terminated on:  21:52:56   2Sep2024            

=------------------------------------------------------------------------------=
   JOB DONE.
=------------------------------------------------------------------------------=
