
     Program PWSCF v.7.2 starts on  2Sep2024 at 21:56: 1 

     This program is part of the open-source Quantum ESPRESSO suite
     for quantum simulation of materials; please cite
         "P. Giannozzi et al., J. Phys.:Condens. Matter 21 395502 (2009);
         "P. Giannozzi et al., J. Phys.:Condens. Matter 29 465901 (2017);
         "P. Giannozzi et al., J. Chem. Phys. 152 154105 (2020);
          URL http://www.quantum-espresso.org", 
     in publications or presentations arising from this work. More details at
     http://www.quantum-espresso.org/quote

     Parallel version (MPI & OpenMP), running on      96 processor cores
     Number of MPI processes:                96
     Threads/MPI process:                     1

     MPI processes distributed on     2 nodes
     366767 MiB available memory on the printing compute node when the environment starts
 
     Reading input from hydrogen_absorption6.in

     Current dimensions of program PWSCF are:
     Max number of different atomic species (ntypx) = 10
     Max number of k-points (npk) =  40000
     Max angular momentum in pseudopotentials (lmaxx) =  4

     IMPORTANT: XC functional enforced from input :
     Exchange-correlation= LDA
                           (   1   1   0   0   0   0   0)
     Any further DFT definition will be discarded
     Please, verify this is what you really want

 
     K-points division:     npool     =       2
     R & G space division:  proc/nbgrp/npool/nimage =      48
     Subspace diagonalization in iterative solution of the eigenvalue problem:
     a serial algorithm will be used

 
     Parallelization info
     --------------------
     sticks:   dense  smooth     PW     G-vecs:    dense   smooth      PW
     Min          48      19      5                 5621     1421     223
     Max          49      20      6                 5643     1441     242
     Sum        2347     955    283               270655    68583   11161
 
     Using Slab Decomposition
 

     Title: 
     6H2_absorption_C                                                           


     bravais-lattice index     =            0
     lattice parameter (alat)  =       8.0000  a.u.
     unit-cell volume          =    2003.8087 (a.u.)^3
     number of atoms/cell      =           36
     number of atomic types    =            2
     number of electrons       =       108.00
     number of Kohn-Sham states=           65
     kinetic-energy cutoff     =      40.0000  Ry
     charge density cutoff     =     400.0000  Ry
     scf convergence threshold =      1.0E-06
     mixing beta               =       0.0500
     number of iterations used =            8  local-TF  mixing
     energy convergence thresh.=      1.0E-04
     force convergence thresh. =      1.0E-03
     press convergence thresh. =      5.0E-01
     Exchange-correlation= LDA
                           (   1   1   0   0   0   0   0)
     nstep                     =           50


     celldm(1)=   8.000004  celldm(2)=   0.000000  celldm(3)=   0.000000
     celldm(4)=   0.000000  celldm(5)=   0.000000  celldm(6)=   0.000000

     crystal axes: (cart. coord. in units of alat)
               a(1) = (   1.154767   0.006488   0.025376 )  
               a(2) = (  -0.580055   0.987891  -0.149572 )  
               a(3) = (   0.084615  -0.288632   3.461183 )  

     reciprocal axes: (cart. coord. in units 2 pi/alat)
               b(1) = (  0.862641  0.509755  0.021420 )  
               b(2) = ( -0.007610  1.020704  0.085304 )  
               b(3) = ( -0.006653  0.040371  0.292448 )  


     PseudoPot. # 1 for C  read from file:
     ../../potentials/C.pz-n-rrkjus_psl.0.1.UPF
     MD5 check sum: a3cecbabebb5b3a1aff122f23eb09bb0
     Pseudo is Ultrasoft + core correction, Zval =  4.0
     Generated using "atomic" code by A. Dal Corso  v.5.0.2 svn rev. 9415
     Using radial grid of 1073 points,  4 beta functions with: 
                l(1) =   0
                l(2) =   0
                l(3) =   1
                l(4) =   1
     Q(r) pseudized with 0 coefficients 


     PseudoPot. # 2 for H  read from file:
     ../../potentials/H.pz-rrkjus_psl.0.1.UPF
     MD5 check sum: 1467ebfaa2880178e80d097b970df8c7
     Pseudo is Ultrasoft, Zval =  1.0
     Generated using "atomic" code by A. Dal Corso  v.5.0.2 svn rev. 9415
     Using radial grid of  929 points,  2 beta functions with: 
                l(1) =   0
                l(2) =   0
     Q(r) pseudized with 0 coefficients 


     atomic species   valence    mass     pseudopotential
        C              4.00    12.01100     C ( 1.00)
        H              1.00     1.00784     H ( 1.00)

     No symmetry found



   Cartesian axes

     site n.     atom                  positions (alat units)
         1           C   tau(   1) = (   0.0112511  -0.1467595   0.5601722  )
         2           C   tau(   2) = (   0.0024299  -0.0416787   1.3275859  )
         3           C   tau(   3) = (   0.1098411  -0.2158204   3.2049362  )
         4           C   tau(   4) = (   0.0102977   0.1835844   0.5146354  )
         5           C   tau(   5) = (   0.2906123   0.1251830   1.3101811  )
         6           C   tau(   6) = (   0.1089759   0.1146398   3.1598092  )
         7           C   tau(   7) = (   0.5886394  -0.1435199   0.5729108  )
         8           C   tau(   8) = (   0.5798274  -0.0385620   1.3383509  )
         9           C   tau(   9) = (   0.6871226  -0.2124499   3.2189484  )
        10           C   tau(  10) = (   0.5876760   0.1868274   0.5274313  )
        11           C   tau(  11) = (   0.8679689   0.1284365   1.3234388  )
        12           C   tau(  12) = (   0.6862304   0.1180283   3.1738422  )
        13           C   tau(  13) = (  -0.2788495   0.3472895   0.4860943  )
        14           C   tau(  14) = (  -0.2874815   0.4521646   1.2518012  )
        15           C   tau(  15) = (  -0.1802852   0.2783669   3.1317100  )
        16           C   tau(  16) = (  -0.2796819   0.6775091   0.4396859  )
        17           C   tau(  17) = (   0.0006387   0.6191413   1.2351644  )
        18           C   tau(  18) = (  -0.1810979   0.6085560   3.0852826  )
        19           C   tau(  19) = (   0.2985661   0.3504476   0.4982967  )
        20           C   tau(  20) = (   0.2898140   0.4555371   1.2652053  )
        21           C   tau(  21) = (   0.3971290   0.2815893   3.1444683  )
        22           C   tau(  22) = (   0.2977321   0.6806566   0.4518344  )
        23           C   tau(  23) = (   0.5781580   0.6223844   1.2491722  )
        24           C   tau(  24) = (   0.3963138   0.6117533   3.0976646  )
        25           H   tau(  25) = (  -0.1572159   1.0535380   1.7978577  )
        26           H   tau(  26) = (  -0.0092003   1.1118693   1.8881639  )
        27           H   tau(  27) = (   0.1251580   0.4221040   2.4873263  )
        28           H   tau(  28) = (   0.1434689   0.2408919   2.5048307  )
        29           H   tau(  29) = (   0.6299153   0.3721716   2.4771531  )
        30           H   tau(  30) = (   0.8038228   0.3185897   2.4991347  )
        31           H   tau(  31) = (   0.3637954  -0.2261673   2.5609045  )
        32           H   tau(  32) = (   0.4893685  -0.0932523   2.5545340  )
        33           H   tau(  33) = (  -0.1365372   0.3327775   1.9072891  )
        34           H   tau(  34) = (  -0.0054744   0.4592197   1.8935297  )
        35           H   tau(  35) = (   0.5759224   0.7946273   2.0204201  )
        36           H   tau(  36) = (   0.3969225   0.7689807   2.0475769  )

     number of k points=    36  Gaussian smearing, width (Ry)=  0.0100
                       cart. coord. in units 2pi/alat
        k(    1) = (   0.0695892   0.1376311   0.0820057), wk =   0.0555556
        k(    2) = (   0.0729159   0.1174454  -0.0642183), wk =   0.0555556
        k(    3) = (   0.0683210   0.3077485   0.0962230), wk =   0.0555556
        k(    4) = (   0.0716477   0.2875628  -0.0500010), wk =   0.0555556
        k(    5) = (   0.0670527   0.4778659   0.1104403), wk =   0.0555556
        k(    6) = (   0.0703794   0.4576802  -0.0357837), wk =   0.0555556
        k(    7) = (   0.0733941  -0.3727210   0.0393537), wk =   0.0555556
        k(    8) = (   0.0767208  -0.3929067  -0.1068702), wk =   0.0555556
        k(    9) = (   0.0721258  -0.2026036   0.0535710), wk =   0.0555556
        k(   10) = (   0.0754525  -0.2227893  -0.0926529), wk =   0.0555556
        k(   11) = (   0.0708575  -0.0324862   0.0677883), wk =   0.0555556
        k(   12) = (   0.0741842  -0.0526719  -0.0784356), wk =   0.0555556
        k(   13) = (   0.2133627   0.2225904   0.0855757), wk =   0.0555556
        k(   14) = (   0.2166894   0.2024047  -0.0606482), wk =   0.0555556
        k(   15) = (   0.2120944   0.3927077   0.0997930), wk =   0.0555556
        k(   16) = (   0.2154211   0.3725220  -0.0464309), wk =   0.0555556
        k(   17) = (   0.2108261   0.5628251   0.1140103), wk =   0.0555556
        k(   18) = (   0.2141528   0.5426394  -0.0322136), wk =   0.0555556
        k(   19) = (   0.2171675  -0.2877618   0.0429238), wk =   0.0555556
        k(   20) = (   0.2204942  -0.3079474  -0.1033001), wk =   0.0555556
        k(   21) = (   0.2158992  -0.1176444   0.0571411), wk =   0.0555556
        k(   22) = (   0.2192259  -0.1378301  -0.0890828), wk =   0.0555556
        k(   23) = (   0.2146310   0.0524730   0.0713584), wk =   0.0555556
        k(   24) = (   0.2179577   0.0322873  -0.0748655), wk =   0.0555556
        k(   25) = (   0.3571361   0.3075496   0.0891458), wk =   0.0555556
        k(   26) = (   0.3604628   0.2873639  -0.0570782), wk =   0.0555556
        k(   27) = (   0.3558678   0.4776669   0.1033631), wk =   0.0555556
        k(   28) = (   0.3591945   0.4574812  -0.0428608), wk =   0.0555556
        k(   29) = (   0.3545996   0.6477843   0.1175804), wk =   0.0555556
        k(   30) = (   0.3579263   0.6275986  -0.0286435), wk =   0.0555556
        k(   31) = (   0.3609409  -0.2028025   0.0464939), wk =   0.0555556
        k(   32) = (   0.3642676  -0.2229882  -0.0997301), wk =   0.0555556
        k(   33) = (   0.3596727  -0.0326852   0.0607112), wk =   0.0555556
        k(   34) = (   0.3629994  -0.0528709  -0.0855128), wk =   0.0555556
        k(   35) = (   0.3584044   0.1374322   0.0749285), wk =   0.0555556
        k(   36) = (   0.3617311   0.1172465  -0.0712955), wk =   0.0555556

     Dense  grid:   270655 G-vectors     FFT dimensions: (  60,  60, 180)

     Smooth grid:    68583 G-vectors     FFT dimensions: (  40,  40, 120)

     Estimated max dynamical RAM per process >      14.18 MB

     Estimated total dynamical RAM >       1.26 GB

     Check: negative core charge=   -0.000002

     Initial potential from superposition of free atoms

     starting charge     107.9990, renormalised to     108.0000
     Starting wfcs are  108 randomized atomic wfcs

     total cpu time spent up to now is        1.0 secs

     Self-consistent Calculation

     iteration #  1     ecut=    40.00 Ry     beta= 0.05
     Davidson diagonalization with overlap
     ethr =  1.00E-02,  avg # of iterations =  3.4

     total cpu time spent up to now is        2.3 secs

     total energy              =    -301.81201398 Ry
     estimated scf accuracy    <       2.07914452 Ry

     iteration #  2     ecut=    40.00 Ry     beta= 0.05
     Davidson diagonalization with overlap
     ethr =  1.93E-03,  avg # of iterations =  3.5

     total cpu time spent up to now is        3.5 secs

     total energy              =    -302.70971928 Ry
     estimated scf accuracy    <       2.55273012 Ry

     iteration #  3     ecut=    40.00 Ry     beta= 0.05
     Davidson diagonalization with overlap
     ethr =  1.93E-03,  avg # of iterations =  1.0

     total cpu time spent up to now is        4.2 secs

     total energy              =    -300.69732279 Ry
     estimated scf accuracy    <       3.76781783 Ry

     iteration #  4     ecut=    40.00 Ry     beta= 0.05
     Davidson diagonalization with overlap
     ethr =  1.93E-03,  avg # of iterations =  2.2

     total cpu time spent up to now is        5.1 secs

     total energy              =    -300.83255394 Ry
     estimated scf accuracy    <       0.28802465 Ry

     iteration #  5     ecut=    40.00 Ry     beta= 0.05
     Davidson diagonalization with overlap
     ethr =  2.67E-04,  avg # of iterations =  8.7

     total cpu time spent up to now is        7.1 secs

     total energy              =    -300.93321275 Ry
     estimated scf accuracy    <       0.11721983 Ry

     iteration #  6     ecut=    40.00 Ry     beta= 0.05
     Davidson diagonalization with overlap
     ethr =  1.09E-04,  avg # of iterations =  5.1

     total cpu time spent up to now is        8.4 secs

     total energy              =    -300.87868335 Ry
     estimated scf accuracy    <       0.12424090 Ry

     iteration #  7     ecut=    40.00 Ry     beta= 0.05
     Davidson diagonalization with overlap
     c_bands:  2 eigenvalues not converged
     ethr =  1.09E-04,  avg # of iterations =  5.9

     total cpu time spent up to now is       10.1 secs

     total energy              =    -300.89944562 Ry
     estimated scf accuracy    <       0.02113329 Ry

     iteration #  8     ecut=    40.00 Ry     beta= 0.05
     Davidson diagonalization with overlap
     c_bands:  1 eigenvalues not converged
     c_bands:  2 eigenvalues not converged
     c_bands:  1 eigenvalues not converged
     ethr =  1.96E-05,  avg # of iterations = 11.8

     total cpu time spent up to now is       12.5 secs

     total energy              =    -300.90942729 Ry
     estimated scf accuracy    <       0.01633908 Ry

     iteration #  9     ecut=    40.00 Ry     beta= 0.05
     Davidson diagonalization with overlap
     ethr =  1.51E-05,  avg # of iterations =  2.4

     total cpu time spent up to now is       13.4 secs

     total energy              =    -300.96062529 Ry
     estimated scf accuracy    <       0.02580998 Ry

     iteration # 10     ecut=    40.00 Ry     beta= 0.05
     Davidson diagonalization with overlap
     c_bands:  1 eigenvalues not converged
     ethr =  1.51E-05,  avg # of iterations = 11.6

     total cpu time spent up to now is       15.9 secs

     total energy              =    -300.94958326 Ry
     estimated scf accuracy    <       0.16416795 Ry

     iteration # 11     ecut=    40.00 Ry     beta= 0.05
     Davidson diagonalization with overlap
     ethr =  1.51E-05,  avg # of iterations =  1.1

     total cpu time spent up to now is       16.7 secs

     total energy              =    -300.89070529 Ry
     estimated scf accuracy    <       0.11649039 Ry

     iteration # 12     ecut=    40.00 Ry     beta= 0.05
     Davidson diagonalization with overlap
     ethr =  1.51E-05,  avg # of iterations =  4.5

     total cpu time spent up to now is       18.2 secs

     total energy              =    -300.90917225 Ry
     estimated scf accuracy    <       0.01034059 Ry

     iteration # 13     ecut=    40.00 Ry     beta= 0.05
     Davidson diagonalization with overlap
     ethr =  9.57E-06,  avg # of iterations =  3.1

     total cpu time spent up to now is       19.6 secs

     total energy              =    -300.89888152 Ry
     estimated scf accuracy    <       0.02195790 Ry

     iteration # 14     ecut=    40.00 Ry     beta= 0.05
     Davidson diagonalization with overlap
     ethr =  9.57E-06,  avg # of iterations =  3.1

     total cpu time spent up to now is       20.8 secs

     total energy              =    -300.89671121 Ry
     estimated scf accuracy    <       0.00479332 Ry

     iteration # 15     ecut=    40.00 Ry     beta= 0.05
     Davidson diagonalization with overlap
     c_bands:  1 eigenvalues not converged
     c_bands:  1 eigenvalues not converged
     c_bands:  2 eigenvalues not converged
     c_bands:  2 eigenvalues not converged
     c_bands:  3 eigenvalues not converged
     c_bands:  1 eigenvalues not converged
     c_bands:  1 eigenvalues not converged
     ethr =  4.44E-06,  avg # of iterations = 14.8

     total cpu time spent up to now is       23.6 secs

     total energy              =    -300.89932100 Ry
     estimated scf accuracy    <       0.00688267 Ry

     iteration # 16     ecut=    40.00 Ry     beta= 0.05
     Davidson diagonalization with overlap
     ethr =  4.44E-06,  avg # of iterations =  3.7

     total cpu time spent up to now is       24.6 secs

     total energy              =    -300.90228570 Ry
     estimated scf accuracy    <       0.00221199 Ry

     iteration # 17     ecut=    40.00 Ry     beta= 0.05
     Davidson diagonalization with overlap
     c_bands:  1 eigenvalues not converged
     ethr =  2.05E-06,  avg # of iterations =  6.7

     total cpu time spent up to now is       26.1 secs

     total energy              =    -300.89811984 Ry
     estimated scf accuracy    <       0.00681170 Ry

     iteration # 18     ecut=    40.00 Ry     beta= 0.05
     Davidson diagonalization with overlap
     ethr =  2.05E-06,  avg # of iterations =  6.1

     total cpu time spent up to now is       27.8 secs

     total energy              =    -300.89918950 Ry
     estimated scf accuracy    <       0.00055098 Ry

     iteration # 19     ecut=    40.00 Ry     beta= 0.05
     Davidson diagonalization with overlap
     c_bands:  1 eigenvalues not converged
     ethr =  5.10E-07,  avg # of iterations =  6.3

     total cpu time spent up to now is       29.7 secs

     total energy              =    -300.89884690 Ry
     estimated scf accuracy    <       0.00124835 Ry

     iteration # 20     ecut=    40.00 Ry     beta= 0.05
     Davidson diagonalization with overlap
     c_bands:  1 eigenvalues not converged
     ethr =  5.10E-07,  avg # of iterations =  5.6

     total cpu time spent up to now is       31.3 secs

     total energy              =    -300.89887004 Ry
     estimated scf accuracy    <       0.00081158 Ry

     iteration # 21     ecut=    40.00 Ry     beta= 0.05
     Davidson diagonalization with overlap
     ethr =  5.10E-07,  avg # of iterations =  4.0

     total cpu time spent up to now is       32.6 secs

     total energy              =    -300.90001527 Ry
     estimated scf accuracy    <       0.00036538 Ry

     iteration # 22     ecut=    40.00 Ry     beta= 0.05
     Davidson diagonalization with overlap
     ethr =  3.38E-07,  avg # of iterations =  5.9

     total cpu time spent up to now is       34.3 secs

     total energy              =    -300.89843023 Ry
     estimated scf accuracy    <       0.00291732 Ry

     iteration # 23     ecut=    40.00 Ry     beta= 0.05
     Davidson diagonalization with overlap
     ethr =  3.38E-07,  avg # of iterations =  6.0

     total cpu time spent up to now is       36.1 secs

     total energy              =    -300.89900034 Ry
     estimated scf accuracy    <       0.00010431 Ry

     iteration # 24     ecut=    40.00 Ry     beta= 0.05
     Davidson diagonalization with overlap
     ethr =  9.66E-08,  avg # of iterations =  4.8

     total cpu time spent up to now is       37.7 secs

     total energy              =    -300.89893187 Ry
     estimated scf accuracy    <       0.00019399 Ry

     iteration # 25     ecut=    40.00 Ry     beta= 0.05
     Davidson diagonalization with overlap
     ethr =  9.66E-08,  avg # of iterations =  5.0

     total cpu time spent up to now is       39.2 secs

     total energy              =    -300.89899266 Ry
     estimated scf accuracy    <       0.00007772 Ry

     iteration # 26     ecut=    40.00 Ry     beta= 0.05
     Davidson diagonalization with overlap
     ethr =  7.20E-08,  avg # of iterations =  1.0

     total cpu time spent up to now is       39.9 secs

     total energy              =    -300.89895052 Ry
     estimated scf accuracy    <       0.00007689 Ry

     iteration # 27     ecut=    40.00 Ry     beta= 0.05
     Davidson diagonalization with overlap
     ethr =  7.12E-08,  avg # of iterations =  4.0

     total cpu time spent up to now is       41.2 secs

     total energy              =    -300.89896368 Ry
     estimated scf accuracy    <       0.00001790 Ry

     iteration # 28     ecut=    40.00 Ry     beta= 0.05
     Davidson diagonalization with overlap
     ethr =  1.66E-08,  avg # of iterations =  4.0

     total cpu time spent up to now is       42.3 secs

     total energy              =    -300.89896687 Ry
     estimated scf accuracy    <       0.00000278 Ry

     iteration # 29     ecut=    40.00 Ry     beta= 0.05
     Davidson diagonalization with overlap
     ethr =  2.57E-09,  avg # of iterations =  3.6

     total cpu time spent up to now is       43.4 secs

     total energy              =    -300.89896726 Ry
     estimated scf accuracy    <       0.00000255 Ry

     iteration # 30     ecut=    40.00 Ry     beta= 0.05
     Davidson diagonalization with overlap
     ethr =  2.36E-09,  avg # of iterations =  1.0

     total cpu time spent up to now is       44.1 secs

     total energy              =    -300.89896730 Ry
     estimated scf accuracy    <       0.00000260 Ry

     iteration # 31     ecut=    40.00 Ry     beta= 0.05
     Davidson diagonalization with overlap
     ethr =  2.36E-09,  avg # of iterations =  1.0

     total cpu time spent up to now is       44.8 secs

     total energy              =    -300.89896727 Ry
     estimated scf accuracy    <       0.00000271 Ry

     iteration # 32     ecut=    40.00 Ry     beta= 0.05
     Davidson diagonalization with overlap
     ethr =  2.36E-09,  avg # of iterations =  1.8

     total cpu time spent up to now is       45.7 secs

     total energy              =    -300.89896715 Ry
     estimated scf accuracy    <       0.00000235 Ry

     iteration # 33     ecut=    40.00 Ry     beta= 0.05
     Davidson diagonalization with overlap
     ethr =  2.18E-09,  avg # of iterations =  1.0

     total cpu time spent up to now is       46.4 secs

     total energy              =    -300.89896709 Ry
     estimated scf accuracy    <       0.00000238 Ry

     iteration # 34     ecut=    40.00 Ry     beta= 0.05
     Davidson diagonalization with overlap
     ethr =  2.18E-09,  avg # of iterations =  1.0

     total cpu time spent up to now is       47.1 secs

     total energy              =    -300.89896704 Ry
     estimated scf accuracy    <       0.00000221 Ry

     iteration # 35     ecut=    40.00 Ry     beta= 0.05
     Davidson diagonalization with overlap
     ethr =  2.05E-09,  avg # of iterations =  1.0

     total cpu time spent up to now is       47.9 secs

     total energy              =    -300.89896704 Ry
     estimated scf accuracy    <       0.00000212 Ry

     iteration # 36     ecut=    40.00 Ry     beta= 0.05
     Davidson diagonalization with overlap
     ethr =  1.96E-09,  avg # of iterations =  1.0

     total cpu time spent up to now is       48.6 secs

     total energy              =    -300.89896717 Ry
     estimated scf accuracy    <       0.00000210 Ry

     iteration # 37     ecut=    40.00 Ry     beta= 0.05
     Davidson diagonalization with overlap
     ethr =  1.94E-09,  avg # of iterations =  1.0

     total cpu time spent up to now is       49.4 secs

     total energy              =    -300.89896728 Ry
     estimated scf accuracy    <       0.00000180 Ry

     iteration # 38     ecut=    40.00 Ry     beta= 0.05
     Davidson diagonalization with overlap
     ethr =  1.67E-09,  avg # of iterations =  1.0

     total cpu time spent up to now is       50.2 secs

     total energy              =    -300.89896699 Ry
     estimated scf accuracy    <       0.00000174 Ry

     iteration # 39     ecut=    40.00 Ry     beta= 0.05
     Davidson diagonalization with overlap
     ethr =  1.61E-09,  avg # of iterations =  2.0

     total cpu time spent up to now is       51.1 secs

     total energy              =    -300.89896655 Ry
     estimated scf accuracy    <       0.00000173 Ry

     iteration # 40     ecut=    40.00 Ry     beta= 0.05
     Davidson diagonalization with overlap
     ethr =  1.60E-09,  avg # of iterations =  2.0

     total cpu time spent up to now is       51.9 secs

     End of self-consistent calculation

          k = 0.0696 0.1376 0.0820 (  8564 PWs)   bands (ev):

   -15.2291 -15.0966 -14.9674 -10.8739 -10.8711 -10.7760 -10.7725 -10.6836
   -10.6803  -9.7845  -9.7356  -9.6901  -8.9522  -8.9083  -8.8825  -7.9769
    -7.9740  -7.9001  -7.8971  -7.8294  -7.8265  -4.5642  -4.0126  -3.5046
    -2.7448  -2.7117  -2.6850  -2.5516  -2.2611  -2.2545  -2.2311  -2.2253
    -2.2100  -2.2034  -1.9449  -0.9121  -0.7317  -0.3923  -0.1914   0.7720
     0.7839   0.7912   0.8580   0.8685   0.9805   0.9945   1.0019   1.3561
     1.3677   1.6891   1.8390   1.8561   1.9380   2.2457   5.6396   5.9598
     6.1304   6.1952   6.2192   6.5628   6.5915   6.9722   6.9909   8.2343
     8.7375

          k = 0.0729 0.1174-0.0642 (  8567 PWs)   bands (ev):

   -15.2291 -15.0966 -14.9674 -10.8739 -10.8711 -10.7759 -10.7725 -10.6835
   -10.6804  -9.7844  -9.7356  -9.6901  -8.9522  -8.9083  -8.8825  -7.9769
    -7.9740  -7.9001  -7.8971  -7.8294  -7.8265  -4.5238  -4.1490  -3.2846
    -2.7474  -2.7438  -2.7112  -2.6849  -2.2611  -2.2545  -2.2312  -2.2253
    -2.2099  -2.2034  -1.8723  -0.9117  -0.7335  -0.3933  -0.1890   0.7720
     0.7838   0.7912   0.8543   0.8671   0.9805   0.9945   1.0018   1.3573
     1.3745   1.6890   1.8396   1.8518   1.9387   2.2448   5.6423   5.9523
     6.1353   6.1946   6.2190   6.5610   6.5974   6.9762   6.9842   8.2577
     8.5332

          k = 0.0683 0.3077 0.0962 (  8553 PWs)   bands (ev):

   -14.8134 -14.6841 -14.5584 -12.3640 -12.2533 -12.1477 -11.4135 -11.3102
   -11.2125 -10.0571  -9.9680  -9.8859  -8.0700  -7.9978  -7.9322  -6.7937
    -6.7253  -6.6632  -5.8997  -5.8344  -5.7766  -4.1242  -4.0054  -3.9609
    -3.9225  -3.4479  -3.1579  -3.0636  -3.0247  -2.9946  -2.0040  -1.8463
    -1.8197  -1.8022  -1.7965  -1.5910  -1.0228  -0.8256  -0.6121  -0.6036
    -0.5833  -0.5646  -0.2900   0.1206   0.2124   0.2321   0.2449   0.4153
     0.6652   0.9847   1.5744   1.7427   2.1580   2.5601   5.8018   6.0103
     6.3033   7.0413   7.3761   7.7374   7.9956   8.2415   8.5909   8.8134
     9.0052

          k = 0.0716 0.2876-0.0500 (  8562 PWs)   bands (ev):

   -14.8134 -14.6841 -14.5584 -12.3640 -12.2533 -12.1477 -11.4135 -11.3102
   -11.2124 -10.0571  -9.9680  -9.8859  -8.0700  -7.9979  -7.9322  -6.7937
    -6.7253  -6.6632  -5.8997  -5.8344  -5.7766  -4.0576  -4.0056  -3.9603
    -3.9227  -3.7131  -3.0639  -3.0252  -2.9949  -2.6804  -2.4534  -1.8462
    -1.8182  -1.7970  -1.7385  -1.4772  -1.0357  -0.8740  -0.6101  -0.5838
    -0.5657  -0.4877  -0.3281   0.0986   0.2123   0.2321   0.2449   0.3863
     0.6758   1.0138   1.5641   1.7456   2.1505   2.5645   5.7994   6.0146
     6.3008   7.0481   7.3628   7.7448   8.0082   8.2368   8.5954   8.7408
     8.9870

          k = 0.0671 0.4779 0.1104 (  8567 PWs)   bands (ev):

   -14.0700 -13.9464 -13.8269 -13.5783 -13.4584 -13.3429 -11.6510 -11.5458
   -11.4460 -10.2690 -10.1754 -10.0881  -6.8692  -6.8196  -6.7780  -5.6430
    -5.5999  -5.5640  -5.2926  -5.2542  -5.2223  -4.1151  -4.0812  -4.0549
    -3.6953  -3.6453  -3.6026  -3.4250  -2.7525  -2.6033  -2.5623  -2.5318
    -2.5231  -2.3811  -2.1705  -1.5389  -1.2930  -1.1868  -1.1500  -1.1238
    -1.1046  -1.0551  -0.8151  -0.7182  -0.6935  -0.6758  -0.4821  -0.2993
     0.1984   0.8143   1.4232   1.6710   2.1945   2.7174   6.0360   6.2715
     6.5374   7.6773   7.8265   7.9229   8.1735   8.6432   9.6348  10.3679
    10.6590

          k = 0.0704 0.4577-0.0358 (  8564 PWs)   bands (ev):

   -14.0700 -13.9464 -13.8269 -13.5782 -13.4584 -13.3429 -11.6510 -11.5457
   -11.4461 -10.2690 -10.1754 -10.0881  -6.8692  -6.8196  -6.7780  -5.6431
    -5.5999  -5.5640  -5.2926  -5.2542  -5.2223  -4.1151  -4.0811  -4.0550
    -3.6954  -3.6450  -3.6027  -3.4002  -2.8394  -2.6613  -2.6024  -2.5606
    -2.5266  -2.1456  -1.9148  -1.8102  -1.5346  -1.1501  -1.1327  -1.1235
    -1.1046  -0.8938  -0.7864  -0.7182  -0.6934  -0.6758  -0.4865  -0.3196
     0.1874   0.8266   1.4162   1.6776   2.1822   2.7242   6.0351   6.2725
     6.5371   7.6906   7.8011   7.9400   8.1724   8.6534   9.5785  10.1758
    10.6743

          k = 0.0734-0.3727 0.0394 (  8577 PWs)   bands (ev):

   -14.4823 -14.3555 -14.2326 -13.0085 -12.8930 -12.7821 -11.5717 -11.4672
   -11.3682 -10.1963 -10.1036 -10.0175  -7.4320  -7.3653  -7.3047  -6.1689
    -6.1076  -6.0542  -4.8031  -4.7453  -4.7164  -4.6951  -4.6677  -4.6269
    -3.7370  -3.6305  -3.5894  -3.5556  -3.3244  -2.3647  -2.2014  -2.0803
    -1.5595  -1.5381  -1.5296  -1.5220  -1.5023  -1.4967  -1.4820  -1.2795
    -1.1385  -0.9169  -0.4645  -0.2993  -0.2555  -0.2335  -0.2175   0.0644
     0.2524   0.8903   1.4681   1.6942   2.1882   2.6761   5.9344   6.1549
     6.4537   7.4340   7.7168   7.9047   8.0546   8.7326   9.1758   9.4478
     9.7722

          k = 0.0767-0.3929-0.1069 (  8558 PWs)   bands (ev):

   -14.4822 -14.3555 -14.2326 -13.0085 -12.8930 -12.7821 -11.5717 -11.4671
   -11.3682 -10.1963 -10.1036 -10.0175  -7.4320  -7.3653  -7.3047  -6.1689
    -6.1076  -6.0542  -4.8030  -4.7453  -4.7164  -4.6951  -4.6678  -4.6269
    -3.7889  -3.6303  -3.5899  -3.5554  -3.0838  -2.8020  -2.1885  -1.6597
    -1.6119  -1.5584  -1.5297  -1.5238  -1.5024  -1.4971  -1.4821  -1.3829
    -1.1260  -0.8927  -0.5446  -0.2850  -0.2556  -0.2334  -0.2175   0.0729
     0.2790   0.8722   1.4705   1.7019   2.1760   2.6823   5.9313   6.1601
     6.4516   7.4430   7.6865   7.9373   8.0371   8.7518   9.2672   9.4763
     9.7682

          k = 0.0721-0.2026 0.0536 (  8561 PWs)   bands (ev):

   -15.0626 -14.9314 -14.8036 -11.6487 -11.5436 -11.4439 -11.1793 -11.0780
   -10.9827  -9.8746  -9.7945  -9.7225  -8.6391  -8.5731  -8.5107  -7.4082
    -7.3341  -7.2673  -6.9655  -6.8936  -6.8288  -4.3274  -3.9982  -3.3237
    -3.2837  -3.2520  -2.9980  -2.6689  -2.5762  -2.5435  -2.5175  -2.0893
    -2.0605  -2.0389  -1.7344  -1.1754  -0.9022  -0.5685  -0.2449   0.1502
     0.1900   0.2091   0.2206   0.5931   0.6432   0.6566   0.6675   0.7231
     1.1683   1.3083   1.6905   1.7465   2.0789   2.4353   5.6495   5.9415
     6.1698   6.6198   6.9719   7.1211   7.3782   7.4993   7.9255   8.2048
     8.5683

          k = 0.0755-0.2228-0.0927 (  8567 PWs)   bands (ev):

   -15.0626 -14.9314 -14.8036 -11.6487 -11.5436 -11.4439 -11.1793 -11.0780
   -10.9827  -9.8746  -9.7945  -9.7225  -8.6391  -8.5731  -8.5107  -7.4082
    -7.3342  -7.2673  -6.9655  -6.8936  -6.8287  -4.3944  -3.7555  -3.4088
    -3.3234  -3.2831  -3.2517  -2.5763  -2.5437  -2.5175  -2.3030  -2.0893
    -2.0605  -2.0390  -1.8666  -1.1791  -0.9015  -0.5625  -0.2374   0.1144
     0.1892   0.2091   0.2205   0.6060   0.6435   0.6566   0.6677   0.7551
     1.1532   1.2976   1.6930   1.7521   2.0732   2.4378   5.6545   5.9307
     6.1756   6.6191   6.9738   7.1195   7.3778   7.5015   7.9257   8.2083
     8.7782

          k = 0.0709-0.0325 0.0678 (  8575 PWs)   bands (ev):

   -15.3125 -15.1793 -15.0494 -10.5001 -10.4070 -10.3209 -10.0924 -10.0905
   -10.0116 -10.0083  -9.9387  -9.9343  -8.8525  -8.8512  -8.7844  -8.7826
    -8.7205  -8.7178  -8.4697  -8.3923  -8.3211  -4.6285  -4.2168  -3.4359
    -2.7836  -2.3445  -2.3377  -2.3144  -2.3084  -2.2930  -2.2863  -2.1737
    -2.1466  -2.1260  -1.9559  -0.7407  -0.6473  -0.2661  -0.1996   1.0862
     1.1021   1.1091   1.1592   1.1637   1.1709   1.1778   1.4437   1.4620
     1.5782   1.7662   1.7922   1.9797   2.1138   2.1416   5.6736   5.7016
     5.9057   6.0276   6.0467   6.2508   6.3084   6.3281   6.6127   8.2915
     8.6192

          k = 0.0742-0.0527-0.0784 (  8576 PWs)   bands (ev):

   -15.3125 -15.1793 -15.0494 -10.5002 -10.4071 -10.3209 -10.0924 -10.0905
   -10.0116 -10.0083  -9.9387  -9.9343  -8.8525  -8.8512  -8.7844  -8.7826
    -8.7205  -8.7178  -8.4697  -8.3923  -8.3211  -4.6497  -4.1470  -3.5459
    -2.6886  -2.3446  -2.3378  -2.3144  -2.3083  -2.2931  -2.2863  -2.1737
    -2.1466  -2.1260  -1.9900  -0.7413  -0.6469  -0.2665  -0.1998   1.0862
     1.1020   1.1092   1.1592   1.1659   1.1709   1.1778   1.4445   1.4646
     1.5771   1.7667   1.7859   1.9790   2.1140   2.1431   5.6701   5.7013
     5.9032   6.0405   6.0489   6.2601   6.3009   6.3266   6.6053   8.3562
     8.6462

          k = 0.2134 0.2226 0.0856 (  8559 PWs)   bands (ev):

   -14.8132 -14.6840 -14.5583 -12.3624 -12.2517 -12.1460 -11.4157 -11.3125
   -11.2149 -10.0587  -9.9696  -9.8876  -8.0683  -7.9959  -7.9300  -6.7962
    -6.7271  -6.6652  -5.8960  -5.8315  -5.7732  -4.1104  -4.0058  -3.9613
    -3.9229  -3.4975  -3.0854  -3.0584  -3.0200  -2.9894  -2.0574  -1.8526
    -1.8236  -1.8035  -1.7708  -1.5255  -1.1105  -0.9141  -0.6052  -0.5805
    -0.5617  -0.4931  -0.2877   0.0479   0.2074   0.2287   0.2403   0.3931
     0.6936   1.0026   1.5634   1.7419   2.1567   2.5615   5.7957   6.0066
     6.3120   7.0407   7.3737   7.7482   8.2176   8.3513   8.5932   8.9060
     9.0162

          k = 0.2167 0.2024-0.0606 (  8558 PWs)   bands (ev):

   -14.8132 -14.6840 -14.5583 -12.3624 -12.2517 -12.1460 -11.4157 -11.3124
   -11.2149 -10.0587  -9.9696  -9.8876  -8.0683  -7.9959  -7.9300  -6.7962
    -6.7271  -6.6652  -5.8961  -5.8315  -5.7732  -4.0617  -4.0060  -3.9610
    -3.9230  -3.6817  -3.0586  -3.0207  -2.9896  -2.7658  -2.3616  -1.8525
    -1.8234  -1.8031  -1.7155  -1.4687  -1.1087  -0.8104  -0.6101  -0.6009
    -0.5803  -0.5608  -0.3690   0.1804   0.2075   0.2288   0.2405   0.4061
     0.6546   0.9909   1.5652   1.7451   2.1520   2.5633   5.7926   6.0144
     6.3073   7.0451   7.3656   7.7509   8.2266   8.3473   8.5963   8.8806
     9.0194

          k = 0.2121 0.3927 0.0998 (  8545 PWs)   bands (ev):

   -14.2345 -14.1097 -13.9888 -12.7675 -12.7654 -12.6541 -12.6513 -12.5449
   -12.5428  -8.9492  -8.9041  -8.8627  -8.1706  -8.1402  -8.1272  -5.6140
    -5.5632  -5.5181  -4.7237  -4.7201  -4.6709  -4.6680  -4.6258  -4.6230
    -3.5197  -2.7908  -2.5422  -2.4604  -2.4562  -2.4263  -2.4223  -2.4003
    -2.3956  -2.2430  -1.9002  -1.8793  -1.8646  -1.7219  -1.4344  -1.3350
    -1.2879  -1.0499  -0.9073  -0.9027  -0.8862  -0.8759  -0.5273  -0.2484
    -0.0876   0.2930   0.3735   2.8989   3.1267   3.4337   5.1488   5.2694
     5.2958   8.3557   8.7933   9.2429   9.2610   9.5087   9.5233   9.6844
     9.8115

          k = 0.2154 0.3725-0.0464 (  8574 PWs)   bands (ev):

   -14.2346 -14.1097 -13.9888 -12.7675 -12.7654 -12.6541 -12.6513 -12.5449
   -12.5428  -8.9492  -8.9041  -8.8628  -8.1706  -8.1401  -8.1272  -5.6140
    -5.5632  -5.5181  -4.7237  -4.7202  -4.6709  -4.6680  -4.6259  -4.6230
    -3.4721  -3.0326  -2.4607  -2.4563  -2.4271  -2.4229  -2.4006  -2.3957
    -2.2577  -2.0482  -1.9221  -1.9001  -1.8792  -1.8636  -1.6710  -1.3375
    -1.2171  -0.9756  -0.9078  -0.8930  -0.8859  -0.8754  -0.5381  -0.2832
    -0.0193   0.2970   0.3481   2.8988   3.1279   3.4324   5.1520   5.2664
     5.2956   8.3722   8.8175   9.2451   9.2561   9.4581   9.5212   9.5798
     9.8043

          k = 0.2108 0.5628 0.1140 (  8529 PWs)   bands (ev):

   -13.8240 -13.7022 -13.5848 -13.3338 -13.2159 -13.1023 -12.8469 -12.7325
   -12.6230  -8.8241  -8.7528  -8.6895  -7.8655  -7.8222  -7.7829  -6.2191
    -6.1833  -6.1532  -4.2510  -4.2141  -4.1850  -3.7011  -3.6594  -3.6254
    -3.1734  -2.8194  -2.7919  -2.7714  -2.7425  -2.7101  -2.6869  -2.5654
    -2.5383  -2.0233  -1.9938  -1.9731  -1.9344  -1.8597  -1.6441  -1.5793
    -1.5044  -1.4819  -1.4654  -1.3642  -1.1399  -0.9484  -0.6268  -0.4212
    -0.2426  -0.0543   0.2444   3.1762   3.5006   3.8681   4.7219   4.9411
     5.1549   8.3649   8.8716   9.3681   9.5401   9.7534   9.9720  10.3836
    10.5426

          k = 0.2142 0.5426-0.0322 (  8528 PWs)   bands (ev):

   -13.8240 -13.7023 -13.5848 -13.3339 -13.2158 -13.1024 -12.8469 -12.7325
   -12.6231  -8.8242  -8.7528  -8.6895  -7.8655  -7.8222  -7.7829  -6.2191
    -6.1833  -6.1532  -4.2511  -4.2141  -4.1850  -3.7011  -3.6594  -3.6254
    -3.1903  -2.8193  -2.7921  -2.7712  -2.7423  -2.7099  -2.6870  -2.5569
    -2.3967  -2.1168  -2.0231  -1.9941  -1.9719  -1.9334  -1.7805  -1.5044
    -1.4829  -1.4655  -1.4369  -1.2309  -0.9901  -0.9081  -0.7679  -0.5074
    -0.2771  -0.0510   0.2957   3.1771   3.4994   3.8681   4.7225   4.9404
     5.1554   8.3689   8.8983   9.3819   9.5425   9.7495   9.9740  10.3918
    10.4905

          k = 0.2172-0.2878 0.0429 (  8554 PWs)   bands (ev):

   -14.5649 -14.4374 -14.3139 -12.6042 -12.4917 -12.3841 -12.1257 -12.0169
   -11.9132  -9.4480  -9.3716  -9.3034  -8.2410  -8.1807  -8.1243  -5.7671
    -5.7058  -5.6522  -5.3067  -5.2463  -5.1939  -4.8233  -4.7727  -4.7300
    -3.8123  -3.4244  -2.7992  -2.7629  -2.7336  -2.4067  -2.2314  -2.0818
    -2.0512  -2.0267  -1.8845  -1.4868  -1.1980  -1.1738  -1.1681  -1.1488
    -1.0397  -0.8995  -0.5195  -0.3011  -0.2841  -0.2720  -0.2442   0.0522
     0.3309   0.4290   0.9302   2.3360   2.6660   3.0248   5.4828   5.5863
     5.7748   8.1189   8.3806   8.4592   8.6820   8.7493   8.8096   9.0337
     9.1090

          k = 0.2205-0.3079-0.1033 (  8571 PWs)   bands (ev):

   -14.5649 -14.4375 -14.3139 -12.6042 -12.4916 -12.3842 -12.1257 -12.0169
   -11.9132  -9.4480  -9.3717  -9.3034  -8.2410  -8.1807  -8.1243  -5.7670
    -5.7058  -5.6522  -5.3067  -5.2463  -5.1939  -4.8233  -4.7728  -4.7300
    -3.8705  -3.1644  -2.8991  -2.7991  -2.7625  -2.7334  -2.0819  -2.0514
    -2.0268  -1.9132  -1.7091  -1.6036  -1.2591  -1.1981  -1.1793  -1.1671
    -1.1543  -0.7180  -0.4014  -0.3009  -0.2844  -0.2816  -0.2706  -0.1559
     0.3434   0.5078   0.9239   2.3384   2.6616   3.0267   5.4834   5.5865
     5.7741   8.1070   8.3977   8.4582   8.6908   8.7769   8.8067   9.0421
     9.1435

          k = 0.2159-0.1176 0.0571 (  8571 PWs)   bands (ev):

   -14.9794 -14.8488 -14.7217 -12.0432 -11.9349 -11.8320 -10.6470 -10.6456
   -10.5508 -10.5491 -10.4606 -10.4588  -7.7835  -7.7801  -7.7091  -7.7061
    -7.6414  -7.6380  -6.4549  -6.3856  -6.3239  -4.2454  -3.8799  -3.2372
    -3.2310  -3.1977  -3.1920  -3.1663  -3.1601  -2.9580  -2.5265  -1.8456
    -1.8192  -1.7992  -1.7097  -1.3669  -0.8379  -0.6648  -0.3422  -0.2804
    -0.1215  -0.0960  -0.0786   0.4263   0.5250   0.5429   0.5554   0.9417
     1.1340   1.1485   1.6341   1.6514   2.1185   2.1357   6.1625   6.1756
     6.4636   6.4798   6.8369   6.8411   7.6699   8.0352   8.3116   8.5101
     8.5825

          k = 0.2192-0.1378-0.0891 (  8564 PWs)   bands (ev):

   -14.9793 -14.8488 -14.7217 -12.0432 -11.9349 -11.8320 -10.6470 -10.6456
   -10.5508 -10.5491 -10.4606 -10.4588  -7.7835  -7.7801  -7.7090  -7.7061
    -7.6414  -7.6380  -6.4549  -6.3855  -6.3239  -4.2973  -3.6922  -3.2734
    -3.2365  -3.2306  -3.1968  -3.1915  -3.1659  -3.1600  -2.2469  -1.8456
    -1.8192  -1.7995  -1.7985  -1.3757  -0.8417  -0.7202  -0.3318  -0.1855
    -0.1212  -0.0957  -0.0785   0.3463   0.5250   0.5429   0.5553   0.9674
     1.1391   1.1501   1.6254   1.6457   2.1222   2.1408   6.1568   6.1716
     6.4766   6.4859   6.8298   6.8398   7.6661   8.0390   8.3658   8.4833
     8.6853

          k = 0.2146 0.0525 0.0714 (  8569 PWs)   bands (ev):

   -15.0625 -14.9313 -14.8035 -11.6472 -11.5420 -11.4422 -11.1801 -11.0788
   -10.9835  -9.8770  -9.7981  -9.7274  -8.6396  -8.5737  -8.5124  -7.4072
    -7.3330  -7.2661  -6.9618  -6.8904  -6.8251  -4.3600  -3.8894  -3.3179
    -3.2790  -3.2464  -3.2100  -2.5768  -2.5443  -2.5181  -2.4568  -2.0961
    -2.0665  -2.0456  -1.7821  -1.2090  -0.9043  -0.5324  -0.3119   0.1534
     0.1954   0.2121   0.2256   0.5964   0.6375   0.6535   0.6623   0.7181
     1.1627   1.3151   1.6892   1.7636   2.0749   2.4144   5.6713   5.9434
     6.1568   6.6183   6.9647   7.1142   7.3808   7.4925   7.9256   8.3207
     8.8384

          k = 0.2180 0.0323-0.0749 (  8572 PWs)   bands (ev):

   -15.0625 -14.9313 -14.8035 -11.6471 -11.5420 -11.4422 -11.1801 -11.0788
   -10.9835  -9.8770  -9.7982  -9.7275  -8.6396  -8.5738  -8.5124  -7.4072
    -7.3330  -7.2661  -6.9618  -6.8904  -6.8251  -4.3599  -3.8905  -3.3179
    -3.2787  -3.2465  -3.2062  -2.5769  -2.5444  -2.5181  -2.4644  -2.0961
    -2.0664  -2.0457  -1.7749  -1.2128  -0.9085  -0.5096  -0.3099   0.1068
     0.1951   0.2121   0.2253   0.5995   0.6377   0.6536   0.6624   0.7600
     1.1551   1.3002   1.6944   1.7632   2.0757   2.4145   5.6755   5.9302
     6.1655   6.6142   6.9751   7.1109   7.3763   7.5010   7.9206   8.3521
     8.8312

          k = 0.3571 0.3075 0.0891 (  8568 PWs)   bands (ev):

   -14.0695 -13.9460 -13.8264 -13.5773 -13.4574 -13.3419 -11.6529 -11.5477
   -11.4481 -10.2714 -10.1778 -10.0906  -6.8683  -6.8167  -6.7739  -5.6452
    -5.5996  -5.5630  -5.2938  -5.2547  -5.2215  -4.1135  -4.0795  -4.0512
    -3.6909  -3.6417  -3.5986  -3.3797  -2.7450  -2.5990  -2.5614  -2.5497
    -2.5209  -2.3467  -2.1704  -1.5055  -1.3664  -1.1684  -1.1559  -1.1284
    -1.1104  -1.0576  -0.8904  -0.7244  -0.6984  -0.6818  -0.5046  -0.3091
     0.1858   0.8156   1.4169   1.6723   2.1926   2.7172   6.0169   6.2716
     6.5555   7.6734   7.9171   8.1867   8.4858   9.0647   9.6529  10.1884
    10.3692

          k = 0.3605 0.2874-0.0571 (  8568 PWs)   bands (ev):

   -14.0695 -13.9459 -13.8264 -13.5773 -13.4574 -13.3419 -11.6529 -11.5476
   -11.4481 -10.2713 -10.1778 -10.0906  -6.8683  -6.8167  -6.7739  -5.6453
    -5.5996  -5.5630  -5.2938  -5.2547  -5.2214  -4.1136  -4.0794  -4.0513
    -3.6909  -3.6416  -3.5986  -3.3504  -2.8282  -2.6872  -2.5974  -2.5565
    -2.5218  -2.1327  -1.9013  -1.7517  -1.5497  -1.2815  -1.1559  -1.1286
    -1.1104  -0.8791  -0.7659  -0.7244  -0.6981  -0.6818  -0.5184  -0.3501
     0.1846   0.8148   1.4160   1.6766   2.1847   2.7217   6.0170   6.2708
     6.5562   7.6742   7.9176   8.1855   8.5007   9.0625   9.6202   9.9909
    10.4130

          k = 0.3559 0.4777 0.1034 (  8546 PWs)   bands (ev):

   -13.8232 -13.7015 -13.5840 -13.3335 -13.2155 -13.1020 -12.8480 -12.7336
   -12.6242  -8.8267  -8.7565  -8.6940  -7.8661  -7.8199  -7.7792  -6.2182
    -6.1816  -6.1501  -4.2514  -4.2124  -4.1829  -3.6970  -3.6559  -3.6215
    -3.1275  -2.8204  -2.7928  -2.7709  -2.7384  -2.7088  -2.6854  -2.6336
    -2.4467  -2.0284  -2.0003  -1.9882  -1.9728  -1.8675  -1.7105  -1.6179
    -1.5071  -1.4835  -1.4694  -1.3518  -1.0404  -0.8924  -0.6232  -0.4258
    -0.3294  -0.1071   0.2707   3.1861   3.5014   3.8531   4.7057   4.9415
     5.1757   8.6058   9.1014   9.5272   9.6463   9.7649   9.9865  10.1998
    10.3833

          k = 0.3592 0.4575-0.0429 (  8537 PWs)   bands (ev):

   -13.8232 -13.7015 -13.5840 -13.3335 -13.2155 -13.1020 -12.8480 -12.7337
   -12.6242  -8.8267  -8.7565  -8.6940  -7.8661  -7.8199  -7.7792  -6.2182
    -6.1816  -6.1500  -4.2514  -4.2124  -4.1829  -3.6970  -3.6559  -3.6216
    -3.1184  -2.8202  -2.7933  -2.7705  -2.7384  -2.7086  -2.6856  -2.6198
    -2.4885  -2.0283  -2.0217  -1.9977  -1.9770  -1.9106  -1.7295  -1.5069
    -1.4842  -1.4694  -1.4048  -1.2506  -1.0913  -1.0047  -0.7600  -0.4760
    -0.2107  -0.0474   0.2453   3.1864   3.5013   3.8528   4.7065   4.9402
     5.1764   8.6374   9.1116   9.5305   9.6493   9.7573   9.9931  10.1058
    10.3839

          k = 0.3546 0.6478 0.1176 (  8555 PWs)   bands (ev):

   -13.7423 -13.7407 -13.6215 -13.6192 -13.5044 -13.5027 -12.2860 -12.1760
   -12.0710  -9.5439  -9.4579  -9.3785  -7.2920  -7.2525  -7.2201  -5.9037
    -5.8733  -5.8544  -4.8731  -4.8423  -4.8185  -3.5470  -3.5209  -3.5053
    -3.2394  -3.1513  -3.1506  -3.1080  -3.1057  -3.0727  -3.0706  -2.7059
    -2.4698  -2.2346  -1.9607  -1.6397  -1.4759  -1.3154  -1.2974  -1.2959
    -1.2719  -1.2690  -1.2511  -1.2492  -0.9357  -0.7454  -0.6171  -0.5188
    -0.2359   0.2282   0.7905   2.4504   2.8954   3.3716   5.3044   5.5522
     5.8038   8.3376   8.6425   8.8363   8.8968   9.0703   9.5190  10.2437
    10.6789

          k = 0.3579 0.6276-0.0286 (  8554 PWs)   bands (ev):

   -13.7423 -13.7407 -13.6216 -13.6191 -13.5044 -13.5028 -12.2860 -12.1759
   -12.0710  -9.5439  -9.4579  -9.3785  -7.2920  -7.2525  -7.2201  -5.9037
    -5.8733  -5.8545  -4.8730  -4.8423  -4.8185  -3.5470  -3.5209  -3.5053
    -3.2398  -3.1515  -3.1501  -3.1081  -3.1058  -3.0727  -3.0706  -2.7134
    -2.4404  -2.2364  -2.0131  -1.6329  -1.4459  -1.2980  -1.2968  -1.2820
    -1.2717  -1.2681  -1.2508  -1.2492  -0.9599  -0.8103  -0.6114  -0.4562
    -0.2373   0.2051   0.7979   2.4499   2.8967   3.3708   5.3045   5.5525
     5.8036   8.3469   8.6389   8.8469   8.8831   9.0713   9.6055  10.0272
    10.7012

          k = 0.3609-0.2028 0.0465 (  8565 PWs)   bands (ev):

   -14.3168 -14.1912 -14.0698 -13.3328 -13.2147 -13.1012 -10.9522 -10.9517
   -10.8528 -10.8521 -10.7590 -10.7584  -6.5283  -6.5248  -6.4703  -6.4673
    -6.4204  -6.4171  -4.4903  -4.4860  -4.4468  -4.4428  -4.4110  -4.4066
    -4.2543  -4.1993  -4.1525  -3.5888  -3.1278  -2.5066  -2.1220  -2.0530
    -2.0138  -1.9822  -1.9444  -1.7273  -1.5795  -1.2199  -1.1949  -1.1762
    -1.0939  -0.8852  -0.5283  -0.4107  -0.3736  -0.3512  -0.3349  -0.3204
     0.9165   0.9255   1.4933   1.5046   2.0696   2.0811   6.7593   6.7611
     6.9990   7.0061   7.2797   7.2836   8.2002   8.6270   9.3573  10.0775
    10.2333

          k = 0.3643-0.2230-0.0997 (  8577 PWs)   bands (ev):

   -14.3168 -14.1913 -14.0698 -13.3328 -13.2147 -13.1013 -10.9522 -10.9517
   -10.8528 -10.8521 -10.7590 -10.7584  -6.5283  -6.5248  -6.4703  -6.4673
    -6.4204  -6.4171  -4.4903  -4.4860  -4.4469  -4.4429  -4.4110  -4.4066
    -4.2542  -4.1993  -4.1525  -3.6313  -2.9203  -2.6209  -2.3980  -2.0534
    -2.0138  -1.9919  -1.9806  -1.4708  -1.3037  -1.2198  -1.1949  -1.1761
    -1.1201  -0.9488  -0.8463  -0.4183  -0.3737  -0.3513  -0.3349  -0.1671
     0.9196   0.9258   1.4881   1.5022   2.0719   2.0837   6.7564   6.7594
     7.0027   7.0079   7.2787   7.2831   8.1980   8.6285   9.5193  10.0011
    10.1328

          k = 0.3597-0.0327 0.0607 (  8562 PWs)   bands (ev):

   -14.5645 -14.4372 -14.3136 -12.6049 -12.4923 -12.3848 -12.1249 -12.0161
   -11.9124  -9.4488  -9.3737  -9.3068  -8.2424  -8.1824  -8.1273  -5.7627
    -5.7020  -5.6479  -5.3057  -5.2450  -5.1926  -4.8186  -4.7684  -4.7251
    -3.8153  -3.3675  -2.8053  -2.7685  -2.7397  -2.5647  -2.0829  -2.0644
    -2.0494  -2.0277  -1.9388  -1.4869  -1.1965  -1.1824  -1.1707  -1.1535
    -1.0458  -0.8722  -0.5254  -0.3023  -0.2843  -0.2733  -0.2199  -0.0184
     0.3116   0.4426   0.9372   2.3496   2.6644   3.0037   5.5031   5.5793
     5.7728   8.1116   8.3227   8.4873   8.7376   8.8020   8.8371   9.1150
     9.3482

          k = 0.3630-0.0529-0.0855 (  8567 PWs)   bands (ev):

   -14.5645 -14.4372 -14.3136 -12.6049 -12.4923 -12.3848 -12.1249 -12.0161
   -11.9123  -9.4488  -9.3738  -9.3067  -8.2424  -8.1824  -8.1273  -5.7627
    -5.7020  -5.6479  -5.3056  -5.2450  -5.1926  -4.8185  -4.7685  -4.7251
    -3.8444  -3.2516  -2.8060  -2.7713  -2.7595  -2.7377  -2.0830  -2.0527
    -2.0279  -1.9835  -1.8421  -1.5055  -1.2471  -1.1954  -1.1720  -1.1541
    -1.1007  -0.7406  -0.4680  -0.3255  -0.3021  -0.2841  -0.2731  -0.1040
     0.3521   0.4964   0.9185   2.3517   2.6609   3.0049   5.4987   5.5876
     5.7692   8.1026   8.3735   8.4439   8.7564   8.7730   8.8528   9.1344
     9.3776

          k = 0.3584 0.1374 0.0749 (  8567 PWs)   bands (ev):

   -14.4818 -14.3550 -14.2321 -13.0076 -12.8920 -12.7811 -11.5732 -11.4686
   -11.3697 -10.1990 -10.1066 -10.0207  -7.4333  -7.3655  -7.3050  -6.1671
    -6.1052  -6.0517  -4.7985  -4.7414  -4.7124  -4.6907  -4.6642  -4.6225
    -3.7476  -3.6315  -3.5910  -3.5562  -3.1849  -2.6319  -2.1943  -1.7889
    -1.6094  -1.5533  -1.5364  -1.5206  -1.5079  -1.4928  -1.4885  -1.3775
    -1.0923  -0.8203  -0.6369  -0.3836  -0.2612  -0.2374  -0.2229   0.1118
     0.2575   0.8819   1.4654   1.7031   2.1801   2.6728   5.9224   6.1579
     6.4644   7.4306   7.7119   8.0356   8.5525   8.9230   9.4547   9.5092
     9.7714

          k = 0.3617 0.1172-0.0713 (  8554 PWs)   bands (ev):

   -14.4818 -14.3550 -14.2321 -13.0076 -12.8921 -12.7811 -11.5732 -11.4686
   -11.3697 -10.1990 -10.1066 -10.0207  -7.4332  -7.3655  -7.3050  -6.1671
    -6.1052  -6.0517  -4.7985  -4.7414  -4.7124  -4.6907  -4.6642  -4.6225
    -3.7329  -3.6315  -3.5908  -3.5563  -3.2459  -2.5204  -2.2241  -1.8965
    -1.5539  -1.5364  -1.5208  -1.5079  -1.4942  -1.4886  -1.4277  -1.3180
    -1.2508  -1.0303  -0.4597  -0.2612  -0.2501  -0.2373  -0.2229   0.0040
     0.2621   0.8729   1.4696   1.7002   2.1856   2.6698   5.9239   6.1550
     6.4655   7.4310   7.7106   8.0382   8.5722   8.8631   9.4439   9.5548
     9.7183

     the Fermi energy is     4.2873 ev

!    total energy              =    -300.89896638 Ry
     estimated scf accuracy    <       0.00000066 Ry
     smearing contrib. (-TS)   =      -0.00000007 Ry
     internal energy E=F+TS    =    -300.89896631 Ry

     The total energy is F=E-TS. E is the sum of the following terms:
     one-electron contribution =    -513.17838380 Ry
     hartree contribution      =     300.10099549 Ry
     xc contribution           =    -107.52367703 Ry
     ewald contribution        =      19.70209903 Ry

     convergence has been achieved in  40 iterations

     Forces acting on atoms (cartesian axes, Ry/au):

     atom    1 type  1   force =     0.00028572   -0.00050368    0.00011940
     atom    2 type  1   force =    -0.00053547    0.00119322   -0.00029118
     atom    3 type  1   force =     0.00048171    0.00011209    0.00106315
     atom    4 type  1   force =    -0.00023595    0.00045926   -0.00028896
     atom    5 type  1   force =     0.00025531   -0.00076833    0.00044431
     atom    6 type  1   force =    -0.00038199   -0.00010102    0.00100769
     atom    7 type  1   force =     0.00029428   -0.00057859    0.00008148
     atom    8 type  1   force =    -0.00015324    0.00021730    0.00026564
     atom    9 type  1   force =     0.00057495   -0.00020864   -0.00072208
     atom   10 type  1   force =    -0.00015201    0.00044158   -0.00043098
     atom   11 type  1   force =     0.00036644   -0.00062720   -0.00111649
     atom   12 type  1   force =    -0.00006647   -0.00028138   -0.00141242
     atom   13 type  1   force =     0.00053007   -0.00079227   -0.00111340
     atom   14 type  1   force =    -0.00067019    0.00059649    0.00023955
     atom   15 type  1   force =     0.00057540   -0.00044590   -0.00099259
     atom   16 type  1   force =    -0.00030369    0.00051380    0.00006698
     atom   17 type  1   force =     0.00022989   -0.00054744    0.00040152
     atom   18 type  1   force =    -0.00023707   -0.00003197    0.00056793
     atom   19 type  1   force =     0.00031181   -0.00058810   -0.00022909
     atom   20 type  1   force =    -0.00084543    0.00074675    0.00049878
     atom   21 type  1   force =     0.00052211   -0.00041517   -0.00095281
     atom   22 type  1   force =    -0.00049699    0.00074528    0.00106556
     atom   23 type  1   force =    -0.00017390   -0.00043216    0.00019386
     atom   24 type  1   force =    -0.00024492   -0.00008104    0.00050017
     atom   25 type  2   force =     0.00203884    0.00100866    0.00093016
     atom   26 type  2   force =    -0.00313062   -0.00107698   -0.00080748
     atom   27 type  2   force =     0.00019070   -0.00150883   -0.00035026
     atom   28 type  2   force =     0.00084560    0.00221470   -0.00069826
     atom   29 type  2   force =     0.00187144   -0.00102193    0.00067252
     atom   30 type  2   force =    -0.00219341    0.00037859    0.00003372
     atom   31 type  2   force =     0.00178731    0.00150352   -0.00026530
     atom   32 type  2   force =    -0.00038292   -0.00074518    0.00003571
     atom   33 type  2   force =     0.00053118    0.00093994    0.00047295
     atom   34 type  2   force =    -0.00059459    0.00007648    0.00073725
     atom   35 type  2   force =    -0.00063226   -0.00011293    0.00046469
     atom   36 type  2   force =    -0.00026167   -0.00027891   -0.00019170
     The non-local contrib.  to forces
     atom    1 type  1   force =    -0.00000815   -0.00026617   -0.00038423
     atom    2 type  1   force =    -0.00009497    0.00014140    0.00154159
     atom    3 type  1   force =    -0.00073239    0.00051204   -0.00044949
     atom    4 type  1   force =    -0.00000982    0.00016381   -0.00002874
     atom    5 type  1   force =    -0.00004039   -0.00104650   -0.00067969
     atom    6 type  1   force =    -0.00213909   -0.00121868    0.00189626
     atom    7 type  1   force =     0.00000914   -0.00028222   -0.00039696
     atom    8 type  1   force =    -0.00100542   -0.00101599   -0.00371484
     atom    9 type  1   force =     0.00223580    0.00088290   -0.00019816
     atom   10 type  1   force =     0.00019828    0.00026483    0.00001361
     atom   11 type  1   force =     0.00195155   -0.00174470   -0.00386423
     atom   12 type  1   force =     0.00104766   -0.00102612    0.00083220
     atom   13 type  1   force =     0.00031879   -0.00039497   -0.00077346
     atom   14 type  1   force =    -0.00199504    0.00104125   -0.00229946
     atom   15 type  1   force =     0.00043241   -0.00145571    0.00052456
     atom   16 type  1   force =    -0.00017588    0.00008989    0.00021091
     atom   17 type  1   force =     0.00185513   -0.00091938   -0.00223343
     atom   18 type  1   force =    -0.00066468    0.00024736    0.00222175
     atom   19 type  1   force =     0.00011652   -0.00019964   -0.00040070
     atom   20 type  1   force =    -0.00014846    0.00124657    0.00094178
     atom   21 type  1   force =     0.00096444    0.00033319    0.00173844
     atom   22 type  1   force =    -0.00030367    0.00035270    0.00058209
     atom   23 type  1   force =    -0.00135226    0.00105775    0.00119889
     atom   24 type  1   force =    -0.00053382    0.00156267    0.00005099
     atom   25 type  2   force =     0.05059157    0.01958028    0.03082162
     atom   26 type  2   force =    -0.05021396   -0.02013725   -0.03086412
     atom   27 type  2   force =     0.00628041   -0.06199081    0.00613538
     atom   28 type  2   force =    -0.00631808    0.06214628   -0.00581675
     atom   29 type  2   force =     0.05934321   -0.01843776    0.00739757
     atom   30 type  2   force =    -0.05929641    0.01829380   -0.00758893
     atom   31 type  2   force =     0.04310026    0.04547308   -0.00210084
     atom   32 type  2   force =    -0.04294705   -0.04544952    0.00221292
     atom   33 type  2   force =     0.04478908    0.04337973   -0.00474408
     atom   34 type  2   force =    -0.04493778   -0.04329917    0.00469295
     atom   35 type  2   force =    -0.06131526   -0.00855947    0.00941807
     atom   36 type  2   force =     0.06095924    0.00890026   -0.00921261
     The ionic contribution  to forces
     atom    1 type  1   force =    -0.00188720    0.01268628    0.08166244
     atom    2 type  1   force =    -0.24116270    1.32109297    9.98100643
     atom    3 type  1   force =     0.15357044   -1.30199705   -9.67815714
     atom    4 type  1   force =    -0.00337770    0.01047686    0.07946412
     atom    5 type  1   force =    -0.21864289    1.36994854    9.88993349
     atom    6 type  1   force =     0.15558041   -1.38006002   -9.63003159
     atom    7 type  1   force =    -0.00023118    0.01147317    0.08034068
     atom    8 type  1   force =    -0.21035571    1.35115266    9.84973714
     atom    9 type  1   force =     0.28874316   -1.28484020   -9.60804080
     atom   10 type  1   force =    -0.00142736    0.01219184    0.08662210
     atom   11 type  1   force =    -0.23508925    1.34862571    9.93568962
     atom   12 type  1   force =     0.27762783   -1.36068550   -9.57982623
     atom   13 type  1   force =    -0.00190092    0.01423890    0.10647699
     atom   14 type  1   force =    -0.27279990    1.39458671    9.90965959
     atom   15 type  1   force =     0.21327712   -1.39679012   -9.57168092
     atom   16 type  1   force =    -0.00259275    0.00916556    0.07560395
     atom   17 type  1   force =    -0.20364382    1.38559912    9.90432510
     atom   18 type  1   force =     0.20602635   -1.31344012   -9.55163998
     atom   19 type  1   force =    -0.00259141    0.01267988    0.08962099
     atom   20 type  1   force =    -0.18489637    1.41756764    9.97874707
     atom   21 type  1   force =     0.22645299   -1.30916649   -9.51782873
     atom   22 type  1   force =    -0.00058707    0.00716838    0.05451684
     atom   23 type  1   force =    -0.24377903    1.38689495   10.04083959
     atom   24 type  1   force =     0.22761445   -1.25690002   -9.66428676
     atom   25 type  2   force =    -0.72489758   -0.00078758    1.55104034
     atom   26 type  2   force =     0.63302890    0.43811407    1.66816989
     atom   27 type  2   force =     0.02469969    0.55868381   -2.14833432
     atom   28 type  2   force =     0.07501838   -1.10589776   -1.93232804
     atom   29 type  2   force =    -0.72856885    0.04717692   -1.95945772
     atom   30 type  2   force =     0.80222940   -0.56660984   -1.82474836
     atom   31 type  2   force =    -0.54333602   -0.81628288   -1.90027709
     atom   32 type  2   force =     0.66223562    0.27372119   -1.99317197
     atom   33 type  2   force =    -0.64103866   -0.30283296    1.96812942
     atom   34 type  2   force =     0.56615702    0.86489363    1.84004074
     atom   35 type  2   force =     0.76661055    0.19571720    0.64903730
     atom   36 type  2   force =    -0.81606595   -0.04756544    0.73914584
     The local contribution  to forces
     atom    1 type  1   force =     0.00217219   -0.01285605   -0.08069451
     atom    2 type  1   force =     0.24068595   -1.32007174   -9.98307002
     atom    3 type  1   force =    -0.15236432    1.30160990    9.67955837
     atom    4 type  1   force =     0.00313234   -0.01011462   -0.07930719
     atom    5 type  1   force =     0.21893605   -1.36973446   -9.88914039
     atom    6 type  1   force =    -0.15390420    1.38109348    9.62906822
     atom    7 type  1   force =     0.00050895   -0.01171430   -0.07938982
     atom    8 type  1   force =     0.21118635   -1.35000065   -9.84625947
     atom    9 type  1   force =    -0.29033791    1.28381523    9.60751528
     atom   10 type  1   force =     0.00107569   -0.01195534   -0.08663616
     atom   11 type  1   force =     0.23359503   -1.34761350   -9.93322403
     atom   12 type  1   force =    -0.27870907    1.36138603    9.57761275
     atom   13 type  1   force =     0.00211234   -0.01455817   -0.10629881
     atom   14 type  1   force =     0.27411127   -1.39508308   -9.90751052
     atom   15 type  1   force =    -0.21313770    1.39775021    9.57021446
     atom   16 type  1   force =     0.00246092   -0.00869934   -0.07534174
     atom   17 type  1   force =     0.20212568   -1.38527531   -9.90204224
     atom   18 type  1   force =    -0.20565091    1.31316184    9.54990451
     atom   19 type  1   force =     0.00276535   -0.01299306   -0.08896546
     atom   20 type  1   force =     0.18418531   -1.41804953   -9.97943603
     atom   21 type  1   force =    -0.22684178    1.30842171    9.51514601
     atom   22 type  1   force =     0.00037247   -0.00672863   -0.05366679
     atom   23 type  1   force =     0.24489726   -1.38837043  -10.04207586
     atom   24 type  1   force =    -0.22732406    1.25530670    9.66463009
     atom   25 type  2   force =     0.67634082   -0.01778687   -1.58097552
     atom   26 type  2   force =    -0.58596561   -0.41905555   -1.63812737
     atom   27 type  2   force =    -0.03080157   -0.49823304    2.14183127
     atom   28 type  2   force =    -0.06783906    1.04599439    1.93742494
     atom   29 type  2   force =     0.67111178   -0.02978702    1.95272573
     atom   30 type  2   force =    -0.74513999    0.54871474    1.83235280
     atom   31 type  2   force =     0.50205104    0.77231720    1.90210005
     atom   32 type  2   force =    -0.61969892   -0.22902020    1.99097701
     atom   33 type  2   force =     0.59678735    0.26039227   -1.96295469
     atom   34 type  2   force =    -0.52181403   -0.82152828   -1.84403818
     atom   35 type  2   force =    -0.70590334   -0.18726714   -0.65799744
     atom   36 type  2   force =     0.75483571    0.03838178   -0.73012777
     The core correction contribution to forces
     atom    1 type  1   force =    -0.00000059   -0.00000657   -0.00001666
     atom    2 type  1   force =     0.00003408   -0.00001273   -0.00008667
     atom    3 type  1   force =     0.00000223   -0.00001034    0.00009991
     atom    4 type  1   force =     0.00000370    0.00000520    0.00002942
     atom    5 type  1   force =    -0.00000365    0.00001616    0.00003490
     atom    6 type  1   force =     0.00006097    0.00004278    0.00005007
     atom    7 type  1   force =    -0.00000417   -0.00000282   -0.00002065
     atom    8 type  1   force =     0.00003459    0.00003408    0.00020577
     atom    9 type  1   force =    -0.00005855   -0.00003783   -0.00002850
     atom   10 type  1   force =    -0.00000385    0.00000463    0.00001682
     atom   11 type  1   force =    -0.00006997    0.00001950   -0.00001893
     atom   12 type  1   force =    -0.00001415    0.00002891   -0.00005896
     atom   13 type  1   force =    -0.00000270   -0.00000996   -0.00007144
     atom   14 type  1   force =     0.00002392    0.00000777    0.00008254
     atom   15 type  1   force =    -0.00001890    0.00002228   -0.00007360
     atom   16 type  1   force =     0.00000024    0.00000982    0.00003989
     atom   17 type  1   force =    -0.00006528    0.00002251    0.00004326
     atom   18 type  1   force =     0.00002965    0.00000476    0.00000865
     atom   19 type  1   force =     0.00000250   -0.00000820   -0.00003460
     atom   20 type  1   force =     0.00001429   -0.00005149   -0.00007290
     atom   21 type  1   force =    -0.00002609   -0.00003162   -0.00009592
     atom   22 type  1   force =     0.00000402    0.00001192    0.00008476
     atom   23 type  1   force =     0.00003432   -0.00003078   -0.00011631
     atom   24 type  1   force =     0.00002127   -0.00001624    0.00008010
     atom   25 type  2   force =     0.00000000    0.00000000    0.00000000
     atom   26 type  2   force =     0.00000000    0.00000000    0.00000000
     atom   27 type  2   force =     0.00000000    0.00000000    0.00000000
     atom   28 type  2   force =     0.00000000    0.00000000    0.00000000
     atom   29 type  2   force =     0.00000000    0.00000000    0.00000000
     atom   30 type  2   force =     0.00000000    0.00000000    0.00000000
     atom   31 type  2   force =     0.00000000    0.00000000    0.00000000
     atom   32 type  2   force =     0.00000000    0.00000000    0.00000000
     atom   33 type  2   force =     0.00000000    0.00000000    0.00000000
     atom   34 type  2   force =     0.00000000    0.00000000    0.00000000
     atom   35 type  2   force =     0.00000000    0.00000000    0.00000000
     atom   36 type  2   force =     0.00000000    0.00000000    0.00000000
     The Hubbard contrib.    to forces
     atom    1 type  1   force =     0.00000000    0.00000000    0.00000000
     atom    2 type  1   force =     0.00000000    0.00000000    0.00000000
     atom    3 type  1   force =     0.00000000    0.00000000    0.00000000
     atom    4 type  1   force =     0.00000000    0.00000000    0.00000000
     atom    5 type  1   force =     0.00000000    0.00000000    0.00000000
     atom    6 type  1   force =     0.00000000    0.00000000    0.00000000
     atom    7 type  1   force =     0.00000000    0.00000000    0.00000000
     atom    8 type  1   force =     0.00000000    0.00000000    0.00000000
     atom    9 type  1   force =     0.00000000    0.00000000    0.00000000
     atom   10 type  1   force =     0.00000000    0.00000000    0.00000000
     atom   11 type  1   force =     0.00000000    0.00000000    0.00000000
     atom   12 type  1   force =     0.00000000    0.00000000    0.00000000
     atom   13 type  1   force =     0.00000000    0.00000000    0.00000000
     atom   14 type  1   force =     0.00000000    0.00000000    0.00000000
     atom   15 type  1   force =     0.00000000    0.00000000    0.00000000
     atom   16 type  1   force =     0.00000000    0.00000000    0.00000000
     atom   17 type  1   force =     0.00000000    0.00000000    0.00000000
     atom   18 type  1   force =     0.00000000    0.00000000    0.00000000
     atom   19 type  1   force =     0.00000000    0.00000000    0.00000000
     atom   20 type  1   force =     0.00000000    0.00000000    0.00000000
     atom   21 type  1   force =     0.00000000    0.00000000    0.00000000
     atom   22 type  1   force =     0.00000000    0.00000000    0.00000000
     atom   23 type  1   force =     0.00000000    0.00000000    0.00000000
     atom   24 type  1   force =     0.00000000    0.00000000    0.00000000
     atom   25 type  2   force =     0.00000000    0.00000000    0.00000000
     atom   26 type  2   force =     0.00000000    0.00000000    0.00000000
     atom   27 type  2   force =     0.00000000    0.00000000    0.00000000
     atom   28 type  2   force =     0.00000000    0.00000000    0.00000000
     atom   29 type  2   force =     0.00000000    0.00000000    0.00000000
     atom   30 type  2   force =     0.00000000    0.00000000    0.00000000
     atom   31 type  2   force =     0.00000000    0.00000000    0.00000000
     atom   32 type  2   force =     0.00000000    0.00000000    0.00000000
     atom   33 type  2   force =     0.00000000    0.00000000    0.00000000
     atom   34 type  2   force =     0.00000000    0.00000000    0.00000000
     atom   35 type  2   force =     0.00000000    0.00000000    0.00000000
     atom   36 type  2   force =     0.00000000    0.00000000    0.00000000
     The SCF correction term to forces
     atom    1 type  1   force =     0.00000913   -0.00006120   -0.00044828
     atom    2 type  1   force =     0.00000183    0.00004327    0.00031685
     atom    3 type  1   force =     0.00000540   -0.00000249    0.00001086
     atom    4 type  1   force =     0.00001519   -0.00007203   -0.00044721
     atom    5 type  1   force =     0.00000585    0.00004789    0.00029536
     atom    6 type  1   force =     0.00001958    0.00004138    0.00002409
     atom    7 type  1   force =     0.00001119   -0.00005245   -0.00045240
     atom    8 type  1   force =    -0.00001340    0.00004716    0.00029641
     atom    9 type  1   force =    -0.00000789   -0.00002878    0.00002947
     atom   10 type  1   force =     0.00000488   -0.00006442   -0.00044799
     atom   11 type  1   force =    -0.00002127    0.00008574    0.00030045
     atom   12 type  1   force =    -0.00001908    0.00001527    0.00002719
     atom   13 type  1   force =     0.00000222   -0.00006810   -0.00044731
     atom   14 type  1   force =    -0.00001079    0.00004380    0.00030676
     atom   15 type  1   force =     0.00002213    0.00002739    0.00002227
     atom   16 type  1   force =     0.00000343   -0.00005216   -0.00044667
     atom   17 type  1   force =    -0.00004216    0.00002557    0.00030819
     atom   18 type  1   force =     0.00002217   -0.00000585    0.00007235
     atom   19 type  1   force =     0.00001851   -0.00006712   -0.00044997
     atom   20 type  1   force =    -0.00000054    0.00003352    0.00031823
     atom   21 type  1   force =    -0.00002780    0.00002800    0.00008676
     atom   22 type  1   force =     0.00001691   -0.00005913   -0.00045197
     atom   23 type  1   force =     0.00002546    0.00001630    0.00034691
     atom   24 type  1   force =    -0.00002311   -0.00003420    0.00002512
     atom   25 type  2   force =     0.00000368    0.00000280    0.00004308
     atom   26 type  2   force =     0.00001971    0.00000171    0.00001348
     atom   27 type  2   force =     0.00001182    0.00003117    0.00001677
     atom   28 type  2   force =    -0.00001598   -0.00002825    0.00002095
     atom   29 type  2   force =    -0.00001504    0.00002589    0.00000631
     atom   30 type  2   force =     0.00001325   -0.00002015    0.00001758
     atom   31 type  2   force =    -0.00002832   -0.00000392    0.00001194
     atom   32 type  2   force =     0.00002709    0.00000331    0.00001713
     atom   33 type  2   force =    -0.00000693    0.00000086    0.00004166
     atom   34 type  2   force =    -0.00000014    0.00001026    0.00004110
     atom   35 type  2   force =    -0.00002455   -0.00000356    0.00000613
     atom   36 type  2   force =     0.00000898    0.00000445    0.00000221

     Total force =     0.008292     Total SCF correction =     0.001575
     SCF correction compared to forces is large: reduce conv_thr to get better values


     Computing stress (Cartesian axis) and pressure

          total   stress  (Ry/bohr**3)                   (kbar)     P=        0.35
   0.00000365   0.00000274   0.00000556            0.54        0.40        0.82
   0.00000274  -0.00000040  -0.00000374            0.40       -0.06       -0.55
   0.00000556  -0.00000374   0.00000390            0.82       -0.55        0.57


     BFGS Geometry Optimization
     Energy error            =      0.0E+00 Ry
     Gradient error          =      3.1E-03 Ry/Bohr
     Cell gradient error     =      8.2E-01 kbar

     number of scf cycles    =   1
     number of bfgs steps    =   0

     enthalpy           new  =    -300.8989663832 Ry

     new trust radius        =       0.0034077349 bohr
     new conv_thr            =       0.0000010000 Ry

     new unit-cell volume =   2004.16659 a.u.^3 (   296.98685 Ang^3 )
     density =      1.67939 g/cm^3

CELL_PARAMETERS (alat=  8.00000437)
   1.154876264   0.006564945   0.025538531
  -0.580061091   0.987855784  -0.149759175
   0.085083857  -0.288947026   3.461558967

ATOMIC_POSITIONS (crystal)
C            -0.0531075966       -0.1021620803        0.1578229983
C             0.0093051521        0.0708376496        0.3865466815
C             0.0534507180        0.0522937548        0.9278719950
C             0.1134931014        0.2312630745        0.1578390128
C             0.3425510191        0.2372332380        0.3862920825
C             0.2200847554        0.3857260691        0.9280192108
C             0.4468912964       -0.1021724740        0.1578358173
C             0.5091915398        0.0704244074        0.3859941854
C             0.5534403845        0.0524764662        0.9281980919
C             0.6134978875        0.2312673172        0.1578652132
C             0.8425615979        0.2372928558        0.3864028084
C             0.7200918909        0.3859399861        0.9283296117
C            -0.0530982488        0.3979540398        0.1579879446
C             0.0092805534        0.5705766772        0.3862661638
C             0.0534910702        0.5525808898        0.9282604673
C             0.1135172421        0.7312381079        0.1578033098
C             0.3426102250        0.7372537251        0.3862242714
C             0.2200540904        0.8857223125        0.9280783000
C             0.4468670217        0.3978602222        0.1578757927
C             0.5092767594        0.5707915256        0.3864917246
C             0.5535043377        0.5525688596        0.9282815956
C             0.6134793904        0.7311335777        0.1576792523
C             0.8427183053        0.7373770240        0.3866025973
C             0.7200438878        0.8856411750        0.9279839883
H             0.4402231925        1.2300478394        0.5693958541
H             0.5988815467        1.2958841994        0.5971060969
H             0.3763390963        0.6418729006        0.7436008889
H             0.3004429407        0.4587335821        0.7412879386
H             0.7863070650        0.5862692599        0.7352900166
H             0.9091331475        0.5323054965        0.7383853343
H             0.2536781416       -0.0149761107        0.7373763007
H             0.4292437172        0.1189101595        0.7400451872
H             0.0928258583        0.5035298577        0.5721473461
H             0.2698701235        0.6303126689        0.5723623297
H             0.9450836101        0.9790375140        0.6191328656
H             0.7782068934        0.9565101360        0.6272052504



     Writing config-only to output data dir ../../results/server/6h2_abs/6H2abs_C.save/
     NEW-OLD atomic charge density approx. for the potential

     Check: negative core charge=   -0.000002
     extrapolated charge  108.01929, renormalised to  108.00000

     total cpu time spent up to now is       55.7 secs

     Self-consistent Calculation

     iteration #  1     ecut=    40.00 Ry     beta= 0.05
     Davidson diagonalization with overlap
     ethr =  1.00E-06,  avg # of iterations =  2.0

     Threshold (ethr) on eigenvalues was too large:
     Diagonalizing with lowered threshold

     Davidson diagonalization with overlap
     ethr =  2.08E-08,  avg # of iterations =  5.3

     total cpu time spent up to now is       58.3 secs

     total energy              =    -300.89899786 Ry
     estimated scf accuracy    <       0.00003514 Ry

     iteration #  2     ecut=    40.00 Ry     beta= 0.05
     Davidson diagonalization with overlap
     ethr =  3.25E-08,  avg # of iterations =  3.0

     total cpu time spent up to now is       59.3 secs

     total energy              =    -300.89900847 Ry
     estimated scf accuracy    <       0.00001057 Ry

     iteration #  3     ecut=    40.00 Ry     beta= 0.05
     Davidson diagonalization with overlap
     ethr =  9.79E-09,  avg # of iterations =  2.0

     total cpu time spent up to now is       60.2 secs

     total energy              =    -300.89900533 Ry
     estimated scf accuracy    <       0.00000962 Ry

     iteration #  4     ecut=    40.00 Ry     beta= 0.05
     Davidson diagonalization with overlap
     ethr =  8.91E-09,  avg # of iterations =  2.0

     total cpu time spent up to now is       61.0 secs

     total energy              =    -300.89900522 Ry
     estimated scf accuracy    <       0.00000213 Ry

     iteration #  5     ecut=    40.00 Ry     beta= 0.05
     Davidson diagonalization with overlap
     ethr =  1.97E-09,  avg # of iterations =  4.0

     total cpu time spent up to now is       62.2 secs

     End of self-consistent calculation

          k = 0.0696 0.1376 0.0820 (  8564 PWs)   bands (ev):

   -15.2289 -15.0958 -14.9669 -10.8737 -10.8724 -10.7750 -10.7731 -10.6828
   -10.6811  -9.7832  -9.7332  -9.6877  -8.9572  -8.9120  -8.8864  -7.9753
    -7.9747  -7.8981  -7.8968  -7.8269  -7.8264  -4.5687  -4.0130  -3.5066
    -2.7432  -2.7094  -2.6809  -2.5534  -2.2620  -2.2599  -2.2320  -2.2291
    -2.2081  -2.2068  -1.9516  -0.9242  -0.7405  -0.4066  -0.2069   0.7765
     0.7883   0.8029   0.8564   0.8657   0.9700   0.9841   0.9962   1.3540
     1.3657   1.6927   1.8364   1.8540   1.9416   2.2481   5.6333   5.9540
     6.1223   6.1954   6.2206   6.5642   6.5926   6.9744   6.9908   8.2373
     8.7398

          k = 0.0729 0.1174-0.0642 (  8567 PWs)   bands (ev):

   -15.2290 -15.0958 -14.9669 -10.8737 -10.8724 -10.7750 -10.7731 -10.6828
   -10.6811  -9.7832  -9.7332  -9.6877  -8.9572  -8.9120  -8.8864  -7.9752
    -7.9747  -7.8981  -7.8968  -7.8269  -7.8264  -4.5289  -4.1488  -3.2863
    -2.7493  -2.7429  -2.7091  -2.6808  -2.2620  -2.2599  -2.2321  -2.2290
    -2.2080  -2.2068  -1.8785  -0.9238  -0.7423  -0.4075  -0.2047   0.7765
     0.7883   0.8028   0.8526   0.8646   0.9701   0.9841   0.9962   1.3555
     1.3720   1.6926   1.8370   1.8497   1.9423   2.2471   5.6358   5.9466
     6.1271   6.1944   6.2208   6.5628   6.5981   6.9768   6.9856   8.2608
     8.5344

          k = 0.0683 0.3078 0.0962 (  8553 PWs)   bands (ev):

   -14.8132 -14.6833 -14.5578 -12.3638 -12.2524 -12.1470 -11.4145 -11.3104
   -11.2129 -10.0575  -9.9676  -9.8856  -8.0732  -7.9999  -7.9344  -6.7949
    -6.7252  -6.6635  -5.8982  -5.8328  -5.7739  -4.1292  -4.0037  -3.9586
    -3.9190  -3.4483  -3.1605  -3.0641  -3.0251  -2.9928  -2.0055  -1.8518
    -1.8239  -1.8099  -1.8004  -1.5989  -1.0296  -0.8347  -0.6128  -0.6031
    -0.5797  -0.5565  -0.3038   0.1178   0.2029   0.2248   0.2382   0.4131
     0.6629   0.9830   1.5728   1.7450   2.1606   2.5625   5.7953   6.0048
     6.2972   7.0394   7.3754   7.7356   7.9994   8.2424   8.5918   8.8169
     9.0064

          k = 0.0716 0.2876-0.0500 (  8562 PWs)   bands (ev):

   -14.8132 -14.6833 -14.5579 -12.3638 -12.2524 -12.1470 -11.4145 -11.3104
   -11.2129 -10.0575  -9.9676  -9.8856  -8.0732  -7.9999  -7.9345  -6.7949
    -6.7252  -6.6635  -5.8982  -5.8328  -5.7739  -4.0639  -4.0039  -3.9581
    -3.9192  -3.7125  -3.0642  -3.0255  -2.9932  -2.6815  -2.4578  -1.8517
    -1.8219  -1.8006  -1.7469  -1.4835  -1.0422  -0.8824  -0.6057  -0.5797
    -0.5573  -0.4940  -0.3415   0.0949   0.2029   0.2248   0.2382   0.3850
     0.6737   1.0114   1.5626   1.7479   2.1532   2.5667   5.7929   6.0091
     6.2947   7.0460   7.3622   7.7429   8.0119   8.2378   8.5960   8.7440
     8.9880

          k = 0.0670 0.4779 0.1105 (  8567 PWs)   bands (ev):

   -14.0698 -13.9456 -13.8263 -13.5780 -13.4575 -13.3422 -11.6518 -11.5459
   -11.4464 -10.2700 -10.1756 -10.0885  -6.8728  -6.8219  -6.7805  -5.6463
    -5.6016  -5.5661  -5.2904  -5.2519  -5.2177  -4.1135  -4.0801  -4.0506
    -3.6936  -3.6436  -3.5992  -3.4322  -2.7561  -2.6003  -2.5595  -2.5324
    -2.5201  -2.3847  -2.1711  -1.5428  -1.2981  -1.1914  -1.1558  -1.1277
    -1.1084  -1.0603  -0.8222  -0.7257  -0.6990  -0.6811  -0.4899  -0.3104
     0.1965   0.8132   1.4223   1.6717   2.1950   2.7182   6.0313   6.2681
     6.5334   7.6749   7.8298   7.9204   8.1701   8.6467   9.6371  10.3659
    10.6565

          k = 0.0703 0.4577-0.0357 (  8564 PWs)   bands (ev):

   -14.0698 -13.9456 -13.8263 -13.5780 -13.4575 -13.3422 -11.6518 -11.5458
   -11.4464 -10.2700 -10.1756 -10.0885  -6.8729  -6.8219  -6.7805  -5.6463
    -5.6016  -5.5661  -5.2904  -5.2519  -5.2176  -4.1136  -4.0800  -4.0507
    -3.6937  -3.6433  -3.5993  -3.4080  -2.8397  -2.6671  -2.5994  -2.5576
    -2.5213  -2.1470  -1.9183  -1.8136  -1.5371  -1.1558  -1.1408  -1.1275
    -1.1084  -0.8987  -0.7931  -0.7257  -0.6989  -0.6812  -0.4911  -0.3335
     0.1863   0.8251   1.4155   1.6782   2.1829   2.7249   6.0304   6.2692
     6.5331   7.6873   7.8049   7.9380   8.1690   8.6572   9.5800  10.1755
    10.6729

          k = 0.0734-0.3727 0.0393 (  8577 PWs)   bands (ev):

   -14.4821 -14.3547 -14.2320 -13.0084 -12.8922 -12.7814 -11.5725 -11.4672
   -11.3684 -10.1976 -10.1042 -10.0182  -7.4330  -7.3650  -7.3050  -6.1723
    -6.1098  -6.0567  -4.8009  -4.7430  -4.7163  -4.6915  -4.6675  -4.6252
    -3.7439  -3.6284  -3.5870  -3.5515  -3.3239  -2.3684  -2.2060  -2.0854
    -1.5578  -1.5391  -1.5354  -1.5220  -1.5068  -1.4927  -1.4863  -1.2842
    -1.1455  -0.9252  -0.4712  -0.3118  -0.2615  -0.2373  -0.2214   0.0610
     0.2521   0.8899   1.4683   1.6934   2.1869   2.6751   5.9325   6.1541
     6.4513   7.4292   7.7130   7.9076   8.0514   8.7370   9.1764   9.4478
     9.7735

          k = 0.0768-0.3929-0.1069 (  8558 PWs)   bands (ev):

   -14.4820 -14.3547 -14.2320 -13.0084 -12.8922 -12.7814 -11.5725 -11.4671
   -11.3684 -10.1976 -10.1042 -10.0182  -7.4330  -7.3650  -7.3050  -6.1723
    -6.1098  -6.0567  -4.8008  -4.7430  -4.7163  -4.6915  -4.6676  -4.6252
    -3.7946  -3.6282  -3.5874  -3.5513  -3.0844  -2.8047  -2.1961  -1.6630
    -1.6128  -1.5568  -1.5360  -1.5227  -1.5069  -1.4928  -1.4864  -1.3884
    -1.1330  -0.9022  -0.5497  -0.2973  -0.2615  -0.2372  -0.2213   0.0694
     0.2781   0.8720   1.4707   1.7011   2.1749   2.6812   5.9295   6.1592
     6.4493   7.4379   7.6841   7.9399   8.0332   8.7556   9.2688   9.4765
     9.7694

          k = 0.0721-0.2026 0.0535 (  8561 PWs)   bands (ev):

   -15.0625 -14.9306 -14.8031 -11.6486 -11.5428 -11.4433 -11.1799 -11.0779
   -10.9827  -9.8765  -9.7959  -9.7237  -8.6390  -8.5717  -8.5098  -7.4111
    -7.3360  -7.2694  -6.9637  -6.8916  -6.8259  -4.3332  -3.9976  -3.3243
[...]
     atom   32 type  2   force =    -0.00009264    0.00013313    0.00017681
     atom   33 type  2   force =    -0.00032210   -0.00010949   -0.00015873
     atom   34 type  2   force =    -0.00048034   -0.00015120   -0.00039143
     atom   35 type  2   force =     0.00005122    0.00043877   -0.00008981
     atom   36 type  2   force =     0.00011148    0.00001291    0.00030082
     The non-local contrib.  to forces
     atom    1 type  1   force =     0.00024724   -0.00041673    0.00028259
     atom    2 type  1   force =     0.00141172   -0.00113688    0.00103303
     atom    3 type  1   force =    -0.00166861    0.00117276    0.00032607
     atom    4 type  1   force =    -0.00043186    0.00047087   -0.00037007
     atom    5 type  1   force =    -0.00032023   -0.00038014    0.00005755
     atom    6 type  1   force =    -0.00070188   -0.00125679    0.00077877
     atom    7 type  1   force =     0.00028519   -0.00046539    0.00028873
     atom    8 type  1   force =    -0.00137849   -0.00113561   -0.00271773
     atom    9 type  1   force =     0.00147464    0.00142468    0.00064244
     atom   10 type  1   force =    -0.00023118    0.00041075   -0.00022910
     atom   11 type  1   force =     0.00004182   -0.00080635   -0.00308959
     atom   12 type  1   force =     0.00136202   -0.00103924    0.00056807
     atom   13 type  1   force =     0.00035573   -0.00055398    0.00002284
     atom   14 type  1   force =    -0.00046779   -0.00042224   -0.00262577
     atom   15 type  1   force =    -0.00052251   -0.00110757    0.00124272
     atom   16 type  1   force =    -0.00021219    0.00043819   -0.00015706
     atom   17 type  1   force =     0.00082073    0.00139934   -0.00261927
     atom   18 type  1   force =     0.00036943   -0.00009014    0.00235618
     atom   19 type  1   force =     0.00026330   -0.00047751    0.00026651
     atom   20 type  1   force =     0.00098932   -0.00039265    0.00021981
     atom   21 type  1   force =     0.00023021    0.00047626    0.00186075
     atom   22 type  1   force =    -0.00028060    0.00049698   -0.00008357
     atom   23 type  1   force =    -0.00154435    0.00176166    0.00072827
     atom   24 type  1   force =     0.00019968    0.00121071    0.00012986
     atom   25 type  2   force =     0.03838739    0.01334962    0.04790069
     atom   26 type  2   force =    -0.03801359   -0.01394620   -0.04797878
     atom   27 type  2   force =     0.01485065   -0.06077636    0.00606812
     atom   28 type  2   force =    -0.01478949    0.06087672   -0.00556700
     atom   29 type  2   force =     0.05891126   -0.02150359    0.00286000
     atom   30 type  2   force =    -0.05905006    0.02118303   -0.00304653
     atom   31 type  2   force =     0.04513236    0.04361368    0.00402363
     atom   32 type  2   force =    -0.04499123   -0.04354548   -0.00411335
     atom   33 type  2   force =     0.04312978    0.04553997   -0.00389537
     atom   34 type  2   force =    -0.04299262   -0.04531896    0.00385392
     atom   35 type  2   force =    -0.06109372   -0.01361167    0.00221389
     atom   36 type  2   force =     0.06060886    0.01391717   -0.00177905
     The ionic contribution  to forces
     atom    1 type  1   force =    -0.00537533    0.02763536    0.20183567
     atom    2 type  1   force =    -0.30011607    1.32639435    9.70184758
     atom    3 type  1   force =     0.20902072   -1.28958824   -9.38054771
     atom    4 type  1   force =    -0.00721878    0.02909971    0.19830023
     atom    5 type  1   force =    -0.28690801    1.37520589    9.60976594
     atom    6 type  1   force =     0.21038967   -1.37660620   -9.36743118
     atom    7 type  1   force =    -0.00479122    0.02601859    0.18812873
     atom    8 type  1   force =    -0.25910639    1.35237731    9.55762010
     atom    9 type  1   force =     0.34362632   -1.29440234   -9.35388665
     atom   10 type  1   force =    -0.00597267    0.02873973    0.18867719
     atom   11 type  1   force =    -0.28841054    1.35721460    9.63767494
     atom   12 type  1   force =     0.34341231   -1.36646168   -9.33760753
     atom   13 type  1   force =    -0.00493464    0.02645949    0.19378950
     atom   14 type  1   force =    -0.32886585    1.38798709    9.63584756
     atom   15 type  1   force =     0.28123084   -1.40683384   -9.34861234
     atom   16 type  1   force =    -0.00701933    0.02622642    0.18374347
     atom   17 type  1   force =    -0.26819921    1.37916770    9.61366842
     atom   18 type  1   force =     0.27064007   -1.32077589   -9.28033761
     atom   19 type  1   force =    -0.00493779    0.02849331    0.20576167
     atom   20 type  1   force =    -0.24230941    1.41349921    9.69385450
     atom   21 type  1   force =     0.26707465   -1.31620612   -9.26313052
     atom   22 type  1   force =    -0.00557410    0.02827156    0.19485050
     atom   23 type  1   force =    -0.30177110    1.39227500    9.74721710
     atom   24 type  1   force =     0.27903377   -1.25575299   -9.37367097
     atom   25 type  2   force =    -0.57825163    0.10682301    1.39547891
     atom   26 type  2   force =     0.48530302    0.33144478    1.62404440
     atom   27 type  2   force =    -0.07719052    0.52717282   -2.03398678
     atom   28 type  2   force =     0.18428983   -1.08424501   -1.82047889
     atom   29 type  2   force =    -0.69835890    0.06917193   -2.01000979
     atom   30 type  2   force =     0.82162512   -0.61142451   -1.89057711
     atom   31 type  2   force =    -0.58101029   -0.79402655   -1.91651495
     atom   32 type  2   force =     0.69137687    0.23898020   -1.95143917
     atom   33 type  2   force =    -0.64155324   -0.37285093    1.76905797
     atom   34 type  2   force =     0.51885210    0.84794758    1.63121627
     atom   35 type  2   force =     0.77353679    0.25530904    0.56382832
     atom   36 type  2   force =    -0.78153705   -0.09274039    0.59202221
     The local contribution  to forces
     atom    1 type  1   force =     0.00558005   -0.02778417   -0.20191807
     atom    2 type  1   force =     0.29907620   -1.32549318   -9.70295904
     atom    3 type  1   force =    -0.20749388    1.28885808    9.38030250
     atom    4 type  1   force =     0.00708232   -0.02898739   -0.19836075
     atom    5 type  1   force =     0.28653486   -1.37452776   -9.61022385
     atom    6 type  1   force =    -0.20924605    1.37736141    9.36657318
     atom    7 type  1   force =     0.00498814   -0.02614798   -0.18778315
     atom    8 type  1   force =     0.26082551   -1.35199046   -9.55529561
     atom    9 type  1   force =    -0.34506399    1.29324161    9.35348239
     atom   10 type  1   force =     0.00572498   -0.02859593   -0.18844481
     atom   11 type  1   force =     0.28786651   -1.35579214   -9.63474393
     atom   12 type  1   force =    -0.34425416    1.36723764    9.33708853
     atom   13 type  1   force =     0.00516090   -0.02660405   -0.19350588
     atom   14 type  1   force =     0.32969892   -1.38819443   -9.63302673
     atom   15 type  1   force =    -0.28088533    1.40816994    9.34758021
     atom   16 type  1   force =     0.00681581   -0.02597347   -0.18338728
     atom   17 type  1   force =     0.26701626   -1.37982722   -9.61112985
     atom   18 type  1   force =    -0.27055085    1.32048284    9.27842078
     atom   19 type  1   force =     0.00510881   -0.02870986   -0.20597662
     atom   20 type  1   force =     0.24146296   -1.41336474   -9.69397813
     atom   21 type  1   force =    -0.26739434    1.31586770    9.26114753
     atom   22 type  1   force =     0.00532985   -0.02810714   -0.19487969
     atom   23 type  1   force =     0.30264537   -1.39344919   -9.74778945
     atom   24 type  1   force =    -0.27886355    1.25433152    9.37350458
     atom   25 type  2   force =     0.54005594   -0.12003637   -1.44376898
     atom   26 type  2   force =    -0.44738284   -0.31741979   -1.57585200
     atom   27 type  2   force =     0.06286345   -0.46673364    2.02820429
     atom   28 type  2   force =    -0.16965139    1.02332456    1.82632580
     atom   29 type  2   force =     0.63950034   -0.04787256    2.00686532
     atom   30 type  2   force =    -0.76282851    0.59003836    1.89330396
     atom   31 type  2   force =     0.53595312    0.75072170    1.91242367
     atom   32 type  2   force =    -0.64647811   -0.19530174    1.95571860
     atom   33 type  2   force =     0.59810284    0.32720017   -1.76533594
     atom   34 type  2   force =    -0.47633990   -0.80278305   -1.63547601
     atom   35 type  2   force =    -0.71238879   -0.24126030   -0.56614852
     atom   36 type  2   force =     0.72103745    0.07883272   -0.58995877
     The core correction contribution to forces
     atom    1 type  1   force =    -0.00000546    0.00000421   -0.00004344
     atom    2 type  1   force =    -0.00002169    0.00002475   -0.00008167
     atom    3 type  1   force =     0.00003677   -0.00003463    0.00001423
     atom    4 type  1   force =     0.00001295   -0.00001121    0.00001787
     atom    5 type  1   force =     0.00001119   -0.00000568    0.00000731
     atom    6 type  1   force =     0.00001640    0.00004169    0.00002395
     atom    7 type  1   force =    -0.00000828    0.00000969   -0.00001964
     atom    8 type  1   force =     0.00001645    0.00005369    0.00018419
     atom    9 type  1   force =    -0.00003566   -0.00003833   -0.00001225
     atom   10 type  1   force =     0.00000618   -0.00000504    0.00003764
     atom   11 type  1   force =    -0.00000971   -0.00000848    0.00002888
     atom   12 type  1   force =    -0.00003419    0.00003177   -0.00000047
     atom   13 type  1   force =    -0.00001194    0.00001119   -0.00002852
     atom   14 type  1   force =    -0.00000693    0.00003835    0.00006336
     atom   15 type  1   force =     0.00001553    0.00001916   -0.00001372
     atom   16 type  1   force =     0.00000429   -0.00000564    0.00004796
     atom   17 type  1   force =    -0.00002245   -0.00003073    0.00005370
     atom   18 type  1   force =    -0.00000359    0.00001432   -0.00001497
     atom   19 type  1   force =    -0.00000623    0.00000480   -0.00005222
     atom   20 type  1   force =    -0.00002123   -0.00000205   -0.00007516
     atom   21 type  1   force =     0.00000137   -0.00002327   -0.00007190
     atom   22 type  1   force =     0.00000911   -0.00001055    0.00002555
     atom   23 type  1   force =     0.00005310   -0.00006150   -0.00009049
     atom   24 type  1   force =    -0.00000108   -0.00001793    0.00003054
     atom   25 type  2   force =     0.00000000    0.00000000    0.00000000
     atom   26 type  2   force =     0.00000000    0.00000000    0.00000000
     atom   27 type  2   force =     0.00000000    0.00000000    0.00000000
     atom   28 type  2   force =     0.00000000    0.00000000    0.00000000
     atom   29 type  2   force =     0.00000000    0.00000000    0.00000000
     atom   30 type  2   force =     0.00000000    0.00000000    0.00000000
     atom   31 type  2   force =     0.00000000    0.00000000    0.00000000
     atom   32 type  2   force =     0.00000000    0.00000000    0.00000000
     atom   33 type  2   force =     0.00000000    0.00000000    0.00000000
     atom   34 type  2   force =     0.00000000    0.00000000    0.00000000
     atom   35 type  2   force =     0.00000000    0.00000000    0.00000000
     atom   36 type  2   force =     0.00000000    0.00000000    0.00000000
     The Hubbard contrib.    to forces
     atom    1 type  1   force =     0.00000000    0.00000000    0.00000000
     atom    2 type  1   force =     0.00000000    0.00000000    0.00000000
     atom    3 type  1   force =     0.00000000    0.00000000    0.00000000
     atom    4 type  1   force =     0.00000000    0.00000000    0.00000000
     atom    5 type  1   force =     0.00000000    0.00000000    0.00000000
     atom    6 type  1   force =     0.00000000    0.00000000    0.00000000
     atom    7 type  1   force =     0.00000000    0.00000000    0.00000000
     atom    8 type  1   force =     0.00000000    0.00000000    0.00000000
     atom    9 type  1   force =     0.00000000    0.00000000    0.00000000
     atom   10 type  1   force =     0.00000000    0.00000000    0.00000000
     atom   11 type  1   force =     0.00000000    0.00000000    0.00000000
     atom   12 type  1   force =     0.00000000    0.00000000    0.00000000
     atom   13 type  1   force =     0.00000000    0.00000000    0.00000000
     atom   14 type  1   force =     0.00000000    0.00000000    0.00000000
     atom   15 type  1   force =     0.00000000    0.00000000    0.00000000
     atom   16 type  1   force =     0.00000000    0.00000000    0.00000000
     atom   17 type  1   force =     0.00000000    0.00000000    0.00000000
     atom   18 type  1   force =     0.00000000    0.00000000    0.00000000
     atom   19 type  1   force =     0.00000000    0.00000000    0.00000000
     atom   20 type  1   force =     0.00000000    0.00000000    0.00000000
     atom   21 type  1   force =     0.00000000    0.00000000    0.00000000
     atom   22 type  1   force =     0.00000000    0.00000000    0.00000000
     atom   23 type  1   force =     0.00000000    0.00000000    0.00000000
     atom   24 type  1   force =     0.00000000    0.00000000    0.00000000
     atom   25 type  2   force =     0.00000000    0.00000000    0.00000000
     atom   26 type  2   force =     0.00000000    0.00000000    0.00000000
     atom   27 type  2   force =     0.00000000    0.00000000    0.00000000
     atom   28 type  2   force =     0.00000000    0.00000000    0.00000000
     atom   29 type  2   force =     0.00000000    0.00000000    0.00000000
     atom   30 type  2   force =     0.00000000    0.00000000    0.00000000
     atom   31 type  2   force =     0.00000000    0.00000000    0.00000000
     atom   32 type  2   force =     0.00000000    0.00000000    0.00000000
     atom   33 type  2   force =     0.00000000    0.00000000    0.00000000
     atom   34 type  2   force =     0.00000000    0.00000000    0.00000000
     atom   35 type  2   force =     0.00000000    0.00000000    0.00000000
     atom   36 type  2   force =     0.00000000    0.00000000    0.00000000
     The SCF correction term to forces
     atom    1 type  1   force =     0.00000039   -0.00000697   -0.00004522
     atom    2 type  1   force =    -0.00000152   -0.00000501    0.00000514
     atom    3 type  1   force =    -0.00000493   -0.00000164   -0.00003770
     atom    4 type  1   force =     0.00000053   -0.00000616   -0.00004571
     atom    5 type  1   force =     0.00000147   -0.00000083    0.00000178
     atom    6 type  1   force =    -0.00000452   -0.00000939   -0.00003633
     atom    7 type  1   force =     0.00000223   -0.00000647   -0.00004525
     atom    8 type  1   force =     0.00000171   -0.00000085    0.00000194
     atom    9 type  1   force =     0.00000733   -0.00000154   -0.00003649
     atom   10 type  1   force =     0.00000235   -0.00000601   -0.00004549
     atom   11 type  1   force =    -0.00000192   -0.00000302    0.00000232
     atom   12 type  1   force =     0.00000676   -0.00000867   -0.00003585
     atom   13 type  1   force =     0.00000089   -0.00000677   -0.00004546
     atom   14 type  1   force =    -0.00000407    0.00000279    0.00000188
     atom   15 type  1   force =     0.00000093   -0.00001227   -0.00003532
     atom   16 type  1   force =     0.00000119   -0.00000735   -0.00004523
     atom   17 type  1   force =     0.00000209    0.00000332    0.00000168
     atom   18 type  1   force =     0.00000054   -0.00000410   -0.00003245
     atom   19 type  1   force =     0.00000158   -0.00000562   -0.00004541
     atom   20 type  1   force =     0.00000367    0.00000503    0.00000347
     atom   21 type  1   force =     0.00000110   -0.00000483   -0.00003231
     atom   22 type  1   force =     0.00000150   -0.00000633   -0.00004508
     atom   23 type  1   force =    -0.00000217    0.00000218    0.00000730
     atom   24 type  1   force =     0.00000126    0.00000189   -0.00003756
     atom   25 type  2   force =    -0.00000047    0.00000137    0.00001411
     atom   26 type  2   force =     0.00000072    0.00000198    0.00001623
     atom   27 type  2   force =     0.00000044    0.00000168    0.00001205
     atom   28 type  2   force =    -0.00000149    0.00000169    0.00001240
     atom   29 type  2   force =     0.00000114    0.00000241    0.00001166
     atom   30 type  2   force =    -0.00000155    0.00000114    0.00001196
     atom   31 type  2   force =    -0.00000061    0.00000286    0.00001230
     atom   32 type  2   force =    -0.00000020    0.00000026    0.00001147
     atom   33 type  2   force =    -0.00000151    0.00000141    0.00001534
     atom   34 type  2   force =     0.00000004    0.00000333    0.00001514
     atom   35 type  2   force =    -0.00000310    0.00000182    0.00001725
     atom   36 type  2   force =     0.00000218    0.00000352    0.00001718

     Total force =     0.003726     Total SCF correction =     0.000174


     Computing stress (Cartesian axis) and pressure

          total   stress  (Ry/bohr**3)                   (kbar)     P=       -0.04
   0.00000210   0.00000028   0.00000357            0.31        0.04        0.53
   0.00000028  -0.00000005  -0.00000238            0.04       -0.01       -0.35
   0.00000357  -0.00000238  -0.00000286            0.53       -0.35       -0.42


     Writing all to output data dir ../../results/server/6h2_abs/6H2abs_C.save/
 
     init_run     :      1.40s CPU      1.64s WALL (       2 calls)
     electrons    :    648.89s CPU    693.17s WALL (      29 calls)
     update_pot   :      6.00s CPU      6.39s WALL (      27 calls)
     forces       :      7.86s CPU      9.22s WALL (      29 calls)
     stress       :     83.71s CPU     85.93s WALL (      29 calls)

     Called by init_run:
     wfcinit      :      0.94s CPU      1.04s WALL (       2 calls)
     potinit      :      0.13s CPU      0.15s WALL (       2 calls)
     hinit0       :      0.22s CPU      0.27s WALL (       2 calls)

     Called by electrons:
     c_bands      :    562.60s CPU    591.53s WALL (     560 calls)
     sum_band     :     68.05s CPU     74.01s WALL (     560 calls)
     v_of_rho     :      0.97s CPU      1.97s WALL (     580 calls)
     newd         :      5.80s CPU      7.17s WALL (     580 calls)
     mix_rho      :      6.32s CPU      9.95s WALL (     560 calls)

     Called by c_bands:
     init_us_2    :      4.32s CPU      5.34s WALL (   21240 calls)
     init_us_2:cp :      4.25s CPU      5.23s WALL (   21240 calls)
     cegterg      :    502.91s CPU    528.20s WALL (   10083 calls)

     Called by *egterg:
     cdiaghg      :    176.30s CPU    185.75s WALL (   41365 calls)
     h_psi        :    251.79s CPU    264.87s WALL (   42052 calls)
     s_psi        :     13.18s CPU     13.53s WALL (   42052 calls)
     g_psi        :      0.86s CPU      0.92s WALL (   31933 calls)

     Called by h_psi:
     h_psi:calbec :     28.88s CPU     30.95s WALL (   42052 calls)
     vloc_psi     :    207.61s CPU    217.84s WALL (   42052 calls)
     add_vuspsi   :     13.79s CPU     14.32s WALL (   42052 calls)

     General routines
     calbec       :     48.81s CPU     51.95s WALL (   54742 calls)
     fft          :      2.73s CPU      4.02s WALL (    3690 calls)
     ffts         :      2.06s CPU      2.73s WALL (   14174 calls)
     fftw         :    210.61s CPU    220.83s WALL ( 4061046 calls)
     interpolate  :      0.30s CPU      0.67s WALL (     580 calls)
 
     Parallel routines
 
     PWSCF        :  12m29.75s CPU  13m20.53s WALL

 
   This run was terminated on:  22: 9:21   2Sep2024            

=------------------------------------------------------------------------------=
   JOB DONE.
=------------------------------------------------------------------------------=
