
     Program PWSCF v.7.2 starts on  2Sep2024 at 20:28:14 

     This program is part of the open-source Quantum ESPRESSO suite
     for quantum simulation of materials; please cite
         "P. Giannozzi et al., J. Phys.:Condens. Matter 21 395502 (2009);
         "P. Giannozzi et al., J. Phys.:Condens. Matter 29 465901 (2017);
         "P. Giannozzi et al., J. Chem. Phys. 152 154105 (2020);
          URL http://www.quantum-espresso.org", 
     in publications or presentations arising from this work. More details at
     http://www.quantum-espresso.org/quote

     Parallel version (MPI & OpenMP), running on      96 processor cores
     Number of MPI processes:                96
     Threads/MPI process:                     1

     MPI processes distributed on     2 nodes
     366341 MiB available memory on the printing compute node when the environment starts
 
     Reading input from hydrogen_absorption4.in

     Current dimensions of program PWSCF are:
     Max number of different atomic species (ntypx) = 10
     Max number of k-points (npk) =  40000
     Max angular momentum in pseudopotentials (lmaxx) =  4

     IMPORTANT: XC functional enforced from input :
     Exchange-correlation= LDA
                           (   1   1   0   0   0   0   0)
     Any further DFT definition will be discarded
     Please, verify this is what you really want

 
     K-points division:     npool     =       2
     R & G space division:  proc/nbgrp/npool/nimage =      48
     Subspace diagonalization in iterative solution of the eigenvalue problem:
     a serial algorithm will be used

 
     Parallelization info
     --------------------
     sticks:   dense  smooth     PW     G-vecs:    dense   smooth      PW
     Min          48      19      5                 4706     1190     187
     Max          49      20      6                 4725     1207     203
     Sum        2347     955    283               226635    57431    9381
 
     Using Slab Decomposition
 

     Title: 
     4H2_absorption_C                                                           


     bravais-lattice index     =            0
     lattice parameter (alat)  =       8.0000  a.u.
     unit-cell volume          =    1678.0455 (a.u.)^3
     number of atoms/cell      =           32
     number of atomic types    =            2
     number of electrons       =       104.00
     number of Kohn-Sham states=           62
     kinetic-energy cutoff     =      40.0000  Ry
     charge density cutoff     =     400.0000  Ry
     scf convergence threshold =      1.0E-06
     mixing beta               =       0.0500
     number of iterations used =            8  local-TF  mixing
     energy convergence thresh.=      1.0E-04
     force convergence thresh. =      1.0E-03
     press convergence thresh. =      5.0E-01
     Exchange-correlation= LDA
                           (   1   1   0   0   0   0   0)
     nstep                     =           50


     celldm(1)=   8.000004  celldm(2)=   0.000000  celldm(3)=   0.000000
     celldm(4)=   0.000000  celldm(5)=   0.000000  celldm(6)=   0.000000

     crystal axes: (cart. coord. in units of alat)
               a(1) = (   1.155262   0.000711  -0.020733 )  
               a(2) = (  -0.580104   0.994089  -0.101177 )  
               a(3) = (  -0.033377  -0.285508   2.885434 )  

     reciprocal axes: (cart. coord. in units 2 pi/alat)
               b(1) = (  0.866378  0.511752  0.060658 )  
               b(2) = (  0.001180  1.016877  0.100631 )  
               b(3) = (  0.006267  0.039334  0.350533 )  


     PseudoPot. # 1 for C  read from file:
     ../../potentials/C.pz-n-rrkjus_psl.0.1.UPF
     MD5 check sum: a3cecbabebb5b3a1aff122f23eb09bb0
     Pseudo is Ultrasoft + core correction, Zval =  4.0
     Generated using "atomic" code by A. Dal Corso  v.5.0.2 svn rev. 9415
     Using radial grid of 1073 points,  4 beta functions with: 
                l(1) =   0
                l(2) =   0
                l(3) =   1
                l(4) =   1
     Q(r) pseudized with 0 coefficients 


     PseudoPot. # 2 for H  read from file:
     ../../potentials/H.pz-rrkjus_psl.0.1.UPF
     MD5 check sum: 1467ebfaa2880178e80d097b970df8c7
     Pseudo is Ultrasoft, Zval =  1.0
     Generated using "atomic" code by A. Dal Corso  v.5.0.2 svn rev. 9415
     Using radial grid of  929 points,  2 beta functions with: 
                l(1) =   0
                l(2) =   0
     Q(r) pseudized with 0 coefficients 


     atomic species   valence    mass     pseudopotential
        C              4.00    12.01100     C ( 1.00)
        H              1.00     1.00784     H ( 1.00)

     No symmetry found



   Cartesian axes

     site n.     atom                  positions (alat units)
         1           C   tau(   1) = (  -0.0262708  -0.1339992   0.4852635  )
         2           C   tau(   2) = (  -0.0190587  -0.0540430   1.2612354  )
         3           C   tau(   3) = (  -0.0068274  -0.2324142   2.5649021  )
         4           C   tau(   4) = (  -0.0271020   0.1974445   0.4477758  )
         5           C   tau(   5) = (   0.2693420   0.1119030   1.2374970  )
         6           C   tau(   6) = (  -0.0076473   0.0991019   2.5276532  )
         7           C   tau(   7) = (   0.5513615  -0.1336490   0.4749032  )
         8           C   tau(   8) = (   0.5586456  -0.0536883   1.2508237  )
         9           C   tau(   9) = (   0.5708636  -0.2320393   2.5544717  )
        10           C   tau(  10) = (   0.5505277   0.1978000   0.4374148  )
        11           C   tau(  11) = (   0.8470099   0.1122339   1.2270465  )
        12           C   tau(  12) = (   0.5700266   0.0994437   2.5173180  )
        13           C   tau(  13) = (  -0.3163223   0.3630330   0.4346098  )
        14           C   tau(  14) = (  -0.3090594   0.4429654   1.2107475  )
        15           C   tau(  15) = (  -0.2968689   0.2646771   2.5146238  )
        16           C   tau(  16) = (  -0.3171574   0.6944982   0.3973183  )
        17           C   tau(  17) = (  -0.0206221   0.6089538   1.1870740  )
        18           C   tau(  18) = (  -0.2976765   0.5960662   2.4769524  )
        19           C   tau(  19) = (   0.2613083   0.3633876   0.4241800  )
        20           C   tau(  20) = (   0.2685583   0.4433249   1.2001899  )
        21           C   tau(  21) = (   0.2807302   0.2650548   2.5039361  )
        22           C   tau(  22) = (   0.2604750   0.6948559   0.3868949  )
        23           C   tau(  23) = (   0.5569576   0.6092560   1.1767730  )
        24           C   tau(  24) = (   0.2799889   0.5964735   2.4667164  )
        25           H   tau(  25) = (   0.2294063   0.7892626   1.8088107  )
        26           H   tau(  26) = (   0.3696900   0.9052921   1.7932800  )
        27           H   tau(  27) = (  -0.1133315   0.3932348   1.8605233  )
        28           H   tau(  28) = (   0.0611087   0.3398548   1.8525470  )
        29           H   tau(  29) = (   0.5310950   0.4148449   1.8399943  )
        30           H   tau(  30) = (   0.5765221   0.2394245   1.8634447  )
        31           H   tau(  31) = (   0.1752064   0.0219951   1.7631360  )
        32           H   tau(  32) = (   0.3311420   0.0320354   1.7592215  )

     number of k points=    36  Gaussian smearing, width (Ry)=  0.0100
                       cart. coord. in units 2pi/alat
        k(    1) = (   0.0738633   0.1372191   0.1010740), wk =   0.0555556
        k(    2) = (   0.0707299   0.1175523  -0.0741924), wk =   0.0555556
        k(    3) = (   0.0740600   0.3066986   0.1178459), wk =   0.0555556
        k(    4) = (   0.0709266   0.2870318  -0.0574205), wk =   0.0555556
        k(    5) = (   0.0742568   0.4761781   0.1346178), wk =   0.0555556
        k(    6) = (   0.0711234   0.4565113  -0.0406486), wk =   0.0555556
        k(    7) = (   0.0732730  -0.3712193   0.0507583), wk =   0.0555556
        k(    8) = (   0.0701396  -0.3908861  -0.1245081), wk =   0.0555556
        k(    9) = (   0.0734698  -0.2017399   0.0675302), wk =   0.0555556
        k(   10) = (   0.0703364  -0.2214066  -0.1077362), wk =   0.0555556
        k(   11) = (   0.0736665  -0.0322604   0.0843021), wk =   0.0555556
        k(   12) = (   0.0705331  -0.0519271  -0.0909643), wk =   0.0555556
        k(   13) = (   0.2182597   0.2225111   0.1111837), wk =   0.0555556
        k(   14) = (   0.2151263   0.2028443  -0.0640826), wk =   0.0555556
        k(   15) = (   0.2184564   0.3919906   0.1279556), wk =   0.0555556
        k(   16) = (   0.2153230   0.3723238  -0.0473107), wk =   0.0555556
        k(   17) = (   0.2186532   0.5614701   0.1447275), wk =   0.0555556
        k(   18) = (   0.2155198   0.5418033  -0.0305388), wk =   0.0555556
        k(   19) = (   0.2176694  -0.2859274   0.0608680), wk =   0.0555556
        k(   20) = (   0.2145360  -0.3055941  -0.1143984), wk =   0.0555556
        k(   21) = (   0.2178662  -0.1164479   0.0776399), wk =   0.0555556
        k(   22) = (   0.2147328  -0.1361147  -0.0976265), wk =   0.0555556
        k(   23) = (   0.2180629   0.0530316   0.0944118), wk =   0.0555556
        k(   24) = (   0.2149295   0.0333648  -0.0808545), wk =   0.0555556
        k(   25) = (   0.3626561   0.3078031   0.1212935), wk =   0.0555556
        k(   26) = (   0.3595227   0.2881363  -0.0539729), wk =   0.0555556
        k(   27) = (   0.3628528   0.4772826   0.1380654), wk =   0.0555556
        k(   28) = (   0.3597194   0.4576158  -0.0372010), wk =   0.0555556
        k(   29) = (   0.3630496   0.6467621   0.1548373), wk =   0.0555556
        k(   30) = (   0.3599162   0.6270953  -0.0204291), wk =   0.0555556
        k(   31) = (   0.3620658  -0.2006354   0.0709777), wk =   0.0555556
        k(   32) = (   0.3589324  -0.2203022  -0.1042886), wk =   0.0555556
        k(   33) = (   0.3622626  -0.0311559   0.0877496), wk =   0.0555556
        k(   34) = (   0.3591292  -0.0508227  -0.0875167), wk =   0.0555556
        k(   35) = (   0.3624593   0.1383236   0.1045216), wk =   0.0555556
        k(   36) = (   0.3593259   0.1186568  -0.0707448), wk =   0.0555556

     Dense  grid:   226635 G-vectors     FFT dimensions: (  60,  60, 150)

     Smooth grid:    57431 G-vectors     FFT dimensions: (  40,  40,  96)

     Estimated max dynamical RAM per process >      12.18 MB

     Estimated total dynamical RAM >       1.09 GB

     Check: negative core charge=   -0.000002

     Initial potential from superposition of free atoms

     starting charge     103.9991, renormalised to     104.0000
     Starting wfcs are  104 randomized atomic wfcs

     total cpu time spent up to now is        0.9 secs

     Self-consistent Calculation

     iteration #  1     ecut=    40.00 Ry     beta= 0.05
     Davidson diagonalization with overlap
     ethr =  1.00E-02,  avg # of iterations =  3.4

     total cpu time spent up to now is        2.2 secs

     total energy              =    -297.12495334 Ry
     estimated scf accuracy    <       1.93175965 Ry

     iteration #  2     ecut=    40.00 Ry     beta= 0.05
     Davidson diagonalization with overlap
     ethr =  1.86E-03,  avg # of iterations =  3.4

     total cpu time spent up to now is        3.3 secs

     total energy              =    -298.01723586 Ry
     estimated scf accuracy    <       2.39354430 Ry

     iteration #  3     ecut=    40.00 Ry     beta= 0.05
     Davidson diagonalization with overlap
     ethr =  1.86E-03,  avg # of iterations =  1.0

     total cpu time spent up to now is        4.0 secs

     total energy              =    -296.06814961 Ry
     estimated scf accuracy    <       3.63123480 Ry

     iteration #  4     ecut=    40.00 Ry     beta= 0.05
     Davidson diagonalization with overlap
     ethr =  1.86E-03,  avg # of iterations =  2.0

     total cpu time spent up to now is        4.7 secs

     total energy              =    -296.19182585 Ry
     estimated scf accuracy    <       0.28323785 Ry

     iteration #  5     ecut=    40.00 Ry     beta= 0.05
     Davidson diagonalization with overlap
     ethr =  2.72E-04,  avg # of iterations =  5.8

     total cpu time spent up to now is        6.3 secs

     total energy              =    -296.25172074 Ry
     estimated scf accuracy    <       0.10661600 Ry

     iteration #  6     ecut=    40.00 Ry     beta= 0.05
     Davidson diagonalization with overlap
     c_bands:  1 eigenvalues not converged
     ethr =  1.03E-04,  avg # of iterations =  8.8

     total cpu time spent up to now is        8.2 secs

     total energy              =    -296.24477887 Ry
     estimated scf accuracy    <       0.04238429 Ry

     iteration #  7     ecut=    40.00 Ry     beta= 0.05
     Davidson diagonalization with overlap
     c_bands:  1 eigenvalues not converged
     ethr =  4.08E-05,  avg # of iterations = 10.3

     total cpu time spent up to now is       10.4 secs

     total energy              =    -296.26860710 Ry
     estimated scf accuracy    <       0.02772511 Ry

     iteration #  8     ecut=    40.00 Ry     beta= 0.05
     Davidson diagonalization with overlap
     ethr =  2.67E-05,  avg # of iterations =  2.2

     total cpu time spent up to now is       11.4 secs

     total energy              =    -296.26211876 Ry
     estimated scf accuracy    <       0.01508359 Ry

     iteration #  9     ecut=    40.00 Ry     beta= 0.05
     Davidson diagonalization with overlap
     ethr =  1.45E-05,  avg # of iterations =  6.1

     total cpu time spent up to now is       13.0 secs

     total energy              =    -296.27391878 Ry
     estimated scf accuracy    <       0.01038891 Ry

     iteration # 10     ecut=    40.00 Ry     beta= 0.05
     Davidson diagonalization with overlap
     ethr =  9.99E-06,  avg # of iterations =  3.9

     total cpu time spent up to now is       14.2 secs

     total energy              =    -296.27296776 Ry
     estimated scf accuracy    <       0.02213011 Ry

     iteration # 11     ecut=    40.00 Ry     beta= 0.05
     Davidson diagonalization with overlap
     ethr =  9.99E-06,  avg # of iterations =  1.0

     total cpu time spent up to now is       14.8 secs

     total energy              =    -296.26458745 Ry
     estimated scf accuracy    <       0.01946654 Ry

     iteration # 12     ecut=    40.00 Ry     beta= 0.05
     Davidson diagonalization with overlap
     ethr =  9.99E-06,  avg # of iterations =  3.1

     total cpu time spent up to now is       15.7 secs

     total energy              =    -296.26425594 Ry
     estimated scf accuracy    <       0.00491211 Ry

     iteration # 13     ecut=    40.00 Ry     beta= 0.05
     Davidson diagonalization with overlap
     c_bands:  1 eigenvalues not converged
     ethr =  4.72E-06,  avg # of iterations =  4.9

     total cpu time spent up to now is       16.7 secs

     total energy              =    -296.26398717 Ry
     estimated scf accuracy    <       0.00317583 Ry

     iteration # 14     ecut=    40.00 Ry     beta= 0.05
     Davidson diagonalization with overlap
     ethr =  3.05E-06,  avg # of iterations =  3.6

     total cpu time spent up to now is       17.6 secs

     total energy              =    -296.26304645 Ry
     estimated scf accuracy    <       0.00192383 Ry

     iteration # 15     ecut=    40.00 Ry     beta= 0.05
     Davidson diagonalization with overlap
     ethr =  1.85E-06,  avg # of iterations =  6.3

     total cpu time spent up to now is       19.2 secs

     total energy              =    -296.26368988 Ry
     estimated scf accuracy    <       0.00010388 Ry

     iteration # 16     ecut=    40.00 Ry     beta= 0.05
     Davidson diagonalization with overlap
     ethr =  9.99E-08,  avg # of iterations =  6.2

     total cpu time spent up to now is       20.7 secs

     total energy              =    -296.26381883 Ry
     estimated scf accuracy    <       0.00009096 Ry

     iteration # 17     ecut=    40.00 Ry     beta= 0.05
     Davidson diagonalization with overlap
     ethr =  8.75E-08,  avg # of iterations =  4.2

     total cpu time spent up to now is       21.9 secs

     total energy              =    -296.26530644 Ry
     estimated scf accuracy    <       0.00029220 Ry

     iteration # 18     ecut=    40.00 Ry     beta= 0.05
     Davidson diagonalization with overlap
     ethr =  8.75E-08,  avg # of iterations =  9.8

     total cpu time spent up to now is       24.6 secs

     total energy              =    -296.26427967 Ry
     estimated scf accuracy    <       0.00443363 Ry

     iteration # 19     ecut=    40.00 Ry     beta= 0.05
     Davidson diagonalization with overlap
     ethr =  8.75E-08,  avg # of iterations =  6.2

     total cpu time spent up to now is       26.2 secs

     total energy              =    -296.26332081 Ry
     estimated scf accuracy    <       0.00158607 Ry

     iteration # 20     ecut=    40.00 Ry     beta= 0.05
     Davidson diagonalization with overlap
     c_bands:  1 eigenvalues not converged
     ethr =  8.75E-08,  avg # of iterations =  8.8

     total cpu time spent up to now is       28.7 secs

     total energy              =    -296.26367129 Ry
     estimated scf accuracy    <       0.00038502 Ry

     iteration # 21     ecut=    40.00 Ry     beta= 0.05
     Davidson diagonalization with overlap
     ethr =  8.75E-08,  avg # of iterations =  5.0

     total cpu time spent up to now is       30.1 secs

     total energy              =    -296.26386346 Ry
     estimated scf accuracy    <       0.00006299 Ry

     iteration # 22     ecut=    40.00 Ry     beta= 0.05
     Davidson diagonalization with overlap
     ethr =  6.06E-08,  avg # of iterations =  5.6

     total cpu time spent up to now is       31.7 secs

     total energy              =    -296.26371587 Ry
     estimated scf accuracy    <       0.00050832 Ry

     iteration # 23     ecut=    40.00 Ry     beta= 0.05
     Davidson diagonalization with overlap
     ethr =  6.06E-08,  avg # of iterations =  4.7

     total cpu time spent up to now is       33.1 secs

     total energy              =    -296.26384422 Ry
     estimated scf accuracy    <       0.00011290 Ry

     iteration # 24     ecut=    40.00 Ry     beta= 0.05
     Davidson diagonalization with overlap
     ethr =  6.06E-08,  avg # of iterations =  4.0

     total cpu time spent up to now is       34.2 secs

     total energy              =    -296.26367061 Ry
     estimated scf accuracy    <       0.00030322 Ry

     iteration # 25     ecut=    40.00 Ry     beta= 0.05
     Davidson diagonalization with overlap
     ethr =  6.06E-08,  avg # of iterations =  5.0

     total cpu time spent up to now is       35.8 secs

     total energy              =    -296.26371218 Ry
     estimated scf accuracy    <       0.00001146 Ry

     iteration # 26     ecut=    40.00 Ry     beta= 0.05
     Davidson diagonalization with overlap
     ethr =  1.10E-08,  avg # of iterations =  5.0

     total cpu time spent up to now is       37.3 secs

     total energy              =    -296.26371573 Ry
     estimated scf accuracy    <       0.00002094 Ry

     iteration # 27     ecut=    40.00 Ry     beta= 0.05
     Davidson diagonalization with overlap
     ethr =  1.10E-08,  avg # of iterations =  1.0

     total cpu time spent up to now is       38.0 secs

     total energy              =    -296.26371225 Ry
     estimated scf accuracy    <       0.00001355 Ry

     iteration # 28     ecut=    40.00 Ry     beta= 0.05
     Davidson diagonalization with overlap
     ethr =  1.10E-08,  avg # of iterations =  5.0

     total cpu time spent up to now is       39.4 secs

     total energy              =    -296.26371156 Ry
     estimated scf accuracy    <       0.00002841 Ry

     iteration # 29     ecut=    40.00 Ry     beta= 0.05
     Davidson diagonalization with overlap
     ethr =  1.10E-08,  avg # of iterations =  2.0

     total cpu time spent up to now is       40.2 secs

     total energy              =    -296.26371317 Ry
     estimated scf accuracy    <       0.00000944 Ry

     iteration # 30     ecut=    40.00 Ry     beta= 0.05
     Davidson diagonalization with overlap
     ethr =  9.08E-09,  avg # of iterations =  1.0

     total cpu time spent up to now is       40.8 secs

     total energy              =    -296.26371648 Ry
     estimated scf accuracy    <       0.00000944 Ry

     iteration # 31     ecut=    40.00 Ry     beta= 0.05
     Davidson diagonalization with overlap
     ethr =  9.08E-09,  avg # of iterations =  1.0

     total cpu time spent up to now is       41.5 secs

     total energy              =    -296.26371290 Ry
     estimated scf accuracy    <       0.00001536 Ry

     iteration # 32     ecut=    40.00 Ry     beta= 0.05
     Davidson diagonalization with overlap
     ethr =  9.08E-09,  avg # of iterations =  1.0

     total cpu time spent up to now is       42.3 secs

     total energy              =    -296.26370980 Ry
     estimated scf accuracy    <       0.00000887 Ry

     iteration # 33     ecut=    40.00 Ry     beta= 0.05
     Davidson diagonalization with overlap
     ethr =  8.53E-09,  avg # of iterations =  3.1

     total cpu time spent up to now is       43.4 secs

     total energy              =    -296.26371023 Ry
     estimated scf accuracy    <       0.00000511 Ry

     iteration # 34     ecut=    40.00 Ry     beta= 0.05
     Davidson diagonalization with overlap
     ethr =  4.91E-09,  avg # of iterations =  3.7

     total cpu time spent up to now is       44.5 secs

     End of self-consistent calculation

          k = 0.0739 0.1372 0.1011 (  7171 PWs)   bands (ev):

   -13.8290 -13.7096 -13.5702  -9.4797  -9.4726  -9.3881  -9.3807  -9.2863
    -9.2846  -8.4034  -8.3548  -8.2598  -7.5727  -7.5337  -7.4590  -6.5835
    -6.5770  -6.5103  -6.5047  -6.4296  -6.4285  -4.1587  -2.5667  -1.9465
    -1.3537  -1.3178  -1.2809  -0.9184  -0.8668  -0.8645  -0.8317  -0.8297
    -0.8050  -0.8042  -0.0105   0.6928   1.3688   2.1571   2.1786   2.2066
     2.2512   2.3142   2.3621   2.3870   2.4077   2.7745   2.8450   2.9934
     3.1823   3.2296   3.4060   3.7971   6.8948   7.2740   7.6182   7.6686
     7.7019   7.9441   8.0112   8.3347   8.3547   9.9467

          k = 0.0707 0.1176-0.0742 (  7180 PWs)   bands (ev):

   -13.8304 -13.7067 -13.5718  -9.4793  -9.4720  -9.3890  -9.3819  -9.2859
    -9.2841  -8.4039  -8.3539  -8.2602  -7.5737  -7.5322  -7.4594  -6.5831
    -6.5765  -6.5112  -6.5057  -6.4292  -6.4280  -4.1427  -2.7196  -1.6417
    -1.3541  -1.3175  -1.2811  -1.1071  -0.8673  -0.8651  -0.8317  -0.8299
    -0.8051  -0.8042   0.0027   0.6911   1.3634   2.1570   2.1787   2.2066
     2.2983   2.3551   2.3626   2.3870   2.4077   2.7024   2.8153   2.9826
     3.2044   3.2214   3.4238   3.7987   6.8644   7.3261   7.6214   7.6626
     7.7038   7.9239   8.0135   8.3335   8.3628   9.9688

          k = 0.0741 0.3067 0.1178 (  7174 PWs)   bands (ev):

   -13.4129 -13.2982 -13.1605 -10.9659 -10.8627 -10.7503 -10.0178  -9.9203
    -9.8172  -8.6631  -8.5799  -8.4844  -6.6755  -6.6080  -6.5313  -5.4020
    -5.3360  -5.2662  -4.5056  -4.4432  -4.3760  -3.8208  -2.6119  -2.5680
    -2.5202  -2.0195  -1.6684  -1.6285  -1.6151  -1.5891  -0.7487  -0.4585
    -0.4244  -0.3974  -0.2350   0.3331   0.6953   0.7812   0.8105   0.8452
     1.1317   1.5953   1.6239   1.6466   1.7112   1.8674   2.0546   2.5593
     2.9173   3.1177   3.5743   4.0622   7.1280   7.3818   7.7249   8.4561
     8.7498   9.1071   9.6294   9.9364  10.2711  10.3922

          k = 0.0709 0.2870-0.0574 (  7171 PWs)   bands (ev):

   -13.4154 -13.2929 -13.1632 -10.9650 -10.8644 -10.7494 -10.0163  -9.9235
    -9.8156  -8.6628  -8.5804  -8.4842  -6.6760  -6.6069  -6.5319  -5.4015
    -5.3370  -5.2657  -4.5050  -4.4444  -4.3754  -3.8004  -2.6124  -2.5668
    -2.5208  -2.2635  -1.6679  -1.6273  -1.5900  -1.1991  -0.8276  -0.4588
    -0.4245  -0.3978  -0.3753   0.2933   0.7725   0.7868   0.8109   0.8454
     1.2760   1.4541   1.5956   1.6240   1.6466   1.8889   2.1985   2.3732
     3.0221   3.1180   3.5941   4.0457   7.1053   7.4216   7.7122   8.4706
     8.7503   9.0965   9.6413   9.9639  10.3316  10.5232

          k = 0.0743 0.4762 0.1346 (  7166 PWs)   bands (ev):

   -12.6699 -12.5602 -12.4288 -12.1801 -12.0668 -11.9466 -10.2547 -10.1563
   -10.0498  -8.8734  -8.7875  -8.6901  -5.4800  -5.4232  -5.3827  -4.2596
    -4.2055  -4.1695  -3.9007  -3.8569  -3.8209  -3.4632  -2.7202  -2.6807
    -2.6517  -2.2997  -2.2501  -2.1999  -1.5659  -1.2081  -1.1670  -1.1200
    -0.8902  -0.7833  -0.6930   0.0158   0.2373   0.2699   0.2954   0.3923
     0.6271   0.6673   0.6986   0.7158   0.7245   1.3529   1.6205   2.3762
     2.8197   3.1123   3.6024   4.1668   7.4478   7.6480   7.8581   9.0925
     9.2969   9.4964  10.9799  11.3321  11.9230  12.1277

          k = 0.0711 0.4565-0.0406 (  7169 PWs)   bands (ev):

   -12.6723 -12.5552 -12.4314 -12.1780 -12.0711 -11.9444 -10.2537 -10.1582
   -10.0489  -8.8738  -8.7866  -8.6905  -5.4797  -5.4240  -5.3823  -4.2592
    -4.2065  -4.1688  -3.9012  -3.8558  -3.8216  -3.4587  -2.7205  -2.6799
    -2.6522  -2.2989  -2.2516  -2.1992  -1.4776  -1.3469  -1.2070  -1.1660
    -1.1201  -0.5562  -0.1657  -0.0402   0.1041   0.2355   0.2688   0.2949
     0.3039   0.6674   0.6989   0.7238   0.9593   1.3924   1.6916   2.2152
     2.9060   3.0804   3.6629   4.1371   7.4373   7.6802   7.8367   9.0860
     9.3258   9.4745  11.2052  11.3701  11.9497  12.0805

          k = 0.0733-0.3712 0.0508 (  7168 PWs)   bands (ev):

   -13.0843 -12.9640 -12.8371 -11.6092 -11.5051 -11.3841 -10.1748 -10.0785
    -9.9707  -8.8002  -8.7165  -8.6209  -6.0393  -5.9758  -5.9072  -4.7764
    -4.7163  -4.6551  -3.6292  -3.3998  -3.3485  -3.3149  -3.2895  -3.2691
    -3.2220  -2.2380  -2.1953  -2.1537  -1.8700  -1.2420  -0.4582  -0.3631
    -0.1666  -0.1434  -0.1296  -0.1096  -0.0930  -0.0831   0.0188   0.3481
     0.6327   1.1278   1.1596   1.1835   1.2071   1.6002   1.7821   2.3586
     2.9287   3.1594   3.5684   4.0643   7.3682   7.5641   7.7868   8.8271
     9.0843   9.3696  10.7995  10.9448  11.1377  11.1797

          k = 0.0701-0.3909-0.1245 (  7166 PWs)   bands (ev):

   -13.0817 -12.9694 -12.8343 -11.6106 -11.5022 -11.3856 -10.1749 -10.0783
    -9.9707  -8.8012  -8.7143  -8.6220  -6.0400  -5.9743  -5.9080  -4.7763
    -4.7165  -4.6550  -3.6420  -3.4018  -3.3461  -3.3155  -3.2910  -3.2684
    -3.2223  -2.2375  -2.1965  -2.1531  -1.7142  -1.2555  -0.8874  -0.1676
    -0.1441  -0.1310  -0.1098  -0.0944  -0.0837  -0.0781  -0.0037   0.2348
     0.8496   1.1297   1.1604   1.1837   1.3606   1.4554   1.7177   2.3607
     2.9266   3.1117   3.6378   4.0430   7.3595   7.5571   7.8004   8.8218
     9.0837   9.3739  10.5952  10.8167  10.9964  11.1643

          k = 0.0735-0.2017 0.0675 (  7172 PWs)   bands (ev):

   -13.6642 -13.5408 -13.4081 -10.2508 -10.1540 -10.0463  -9.7821  -9.6901
    -9.5835  -8.4781  -8.4068  -8.3302  -7.2442  -7.1818  -7.1131  -6.0134
    -5.9428  -5.8685  -5.5683  -5.5026  -5.4264  -4.0036  -2.5429  -1.9273
    -1.8856  -1.8469  -1.4030  -1.1860  -1.1497  -1.1140  -1.0099  -0.7020
    -0.6672  -0.6401  -0.1119   0.4735   1.1440   1.5774   1.6042   1.6280
     1.6651   2.0239   2.0376   2.0515   2.0717   2.1485   2.5467   2.8008
     3.1587   3.2151   3.4625   3.7386   7.0894   7.4319   7.5120   7.9481
     8.3451   8.5379   8.7862   8.8577   9.3019  10.2015

          k = 0.0703-0.2214-0.1077 (  7180 PWs)   bands (ev):

   -13.6623 -13.5449 -13.4060 -10.2508 -10.1539 -10.0463  -9.7831  -9.6881
    -9.5845  -8.4791  -8.4048  -8.3312  -7.2440  -7.1820  -7.1130  -6.0127
    -5.9444  -5.8677  -5.5693  -5.5006  -5.4274  -4.0233  -2.3343  -1.9277
    -1.8867  -1.8472  -1.8246  -1.1856  -1.1501  -1.1137  -0.7522  -0.7017
    -0.6674  -0.6400  -0.1211   0.4794   1.1883   1.5291   1.5788   1.6044
     1.6281   1.9700   2.0247   2.0515   2.0717   2.2875   2.6527   2.7485
     3.1191   3.1976   3.4572   3.7511   7.1693   7.3055   7.5589   7.9604
     8.3290   8.5070   8.7777   8.8786   9.3161  10.0722

          k = 0.0737-0.0323 0.0843 (  7196 PWs)   bands (ev):

   -13.9132 -13.7905 -13.6532  -9.1045  -9.0202  -8.9180  -8.7002  -8.6925
    -8.6214  -8.6159  -8.5448  -8.5424  -7.4575  -7.4516  -7.3947  -7.3892
    -7.3199  -7.3183  -7.0757  -7.0013  -6.9219  -4.2262  -2.7701  -1.8486
    -1.1049  -0.9507  -0.9483  -0.9149  -0.9130  -0.8881  -0.8874  -0.7843
    -0.7520  -0.7208   0.1519   0.8055   1.3786   2.4693   2.4948   2.5163
     2.5233   2.5438   2.5661   2.5912   2.8783   2.9081   2.9810   3.1122
     3.2572   3.4426   3.4495   3.5469   7.1426   7.1668   7.1992   7.3916
     7.3978   7.6668   7.7096   7.7425   8.0776   9.8732

          k = 0.0705-0.0519-0.0910 (  7177 PWs)   bands (ev):

   -13.9128 -13.7913 -13.6528  -9.1058  -9.0175  -8.9193  -8.6992  -8.6918
    -8.6235  -8.6174  -8.5436  -8.5416  -7.4587  -7.4527  -7.3922  -7.3870
    -7.3212  -7.3193  -7.0744  -7.0038  -6.9206  -4.2305  -2.7310  -1.9265
    -1.0557  -0.9506  -0.9482  -0.9150  -0.9130  -0.8881  -0.8873  -0.7842
    -0.7520  -0.7207   0.1490   0.8058   1.3781   2.4692   2.4947   2.5025
     2.5164   2.5436   2.5661   2.5912   2.8601   2.9042   3.0315   3.1629
     3.2085   3.4129   3.4527   3.5635   7.1126   7.1285   7.2120   7.4918
     7.5471   7.5809   7.6418   7.6608   8.1141   9.8866

          k = 0.2183 0.2225 0.1112 (  7159 PWs)   bands (ev):

   -13.4130 -13.2978 -13.1607 -10.9662 -10.8615 -10.7509 -10.0176  -9.9218
    -9.8165  -8.6626  -8.5813  -8.4837  -6.6754  -6.6067  -6.5319  -5.4008
    -5.3349  -5.2660  -4.5059  -4.4435  -4.3761  -3.7665  -2.6120  -2.5681
    -2.5201  -2.0327  -1.6706  -1.6299  -1.6036  -1.5886  -0.9039  -0.4572
    -0.4226  -0.3983  -0.3763   0.2408   0.6675   0.7810   0.8102   0.8450
     1.5560   1.5967   1.6245   1.6463   1.7305   1.8297   2.0438   2.6502
     2.9430   3.1276   3.5585   4.0405   7.1064   7.4345   7.7199   8.4576
     8.7476   9.1181   9.5938   9.8317  10.0262  10.3699

          k = 0.2151 0.2028-0.0641 (  7178 PWs)   bands (ev):

   -13.4152 -13.2933 -13.1631 -10.9643 -10.8654 -10.7489 -10.0173  -9.9225
    -9.8162  -8.6636  -8.5793  -8.4847  -6.6748  -6.6079  -6.5313  -5.4000
    -5.3367  -5.2651  -4.5056  -4.4440  -4.3758  -3.7470  -2.6125  -2.5669
    -2.5207  -2.2554  -1.6694  -1.6286  -1.5900  -1.2393  -0.9177  -0.5518
    -0.4573  -0.4224  -0.3981   0.2303   0.7808   0.8103   0.8448   0.8764
     1.2116   1.5932   1.6239   1.6463   1.6543   2.0479   2.2174   2.4128
     3.0268   3.1225   3.5692   4.0480   7.1371   7.3852   7.7349   8.4720
     8.7514   9.0992   9.6171   9.8359  10.0319  10.3685

          k = 0.2185 0.3920 0.1280 (  7177 PWs)   bands (ev):

   -12.8345 -12.7238 -12.5910 -11.3729 -11.3655 -11.2658 -11.2580 -11.1483
   -11.1464  -7.5668  -7.5230  -7.4343  -6.7932  -6.7659  -6.7049  -4.2203
    -4.1709  -4.1163  -3.4513  -3.3272  -3.3099  -3.2763  -3.2574  -3.2256
    -3.2217  -1.5798  -1.1037  -1.0663  -1.0627  -1.0301  -1.0266  -0.9949
    -0.9943  -0.8837  -0.5159  -0.4916  -0.4481  -0.4313   0.2012   0.2359
     0.3606   0.4785   0.5026   0.5312   1.1650   1.2652   1.5688   1.6114
     2.2676   4.1825   4.5398   4.9638   6.5385   6.5675   6.6962  10.4677
    10.6506  10.6987  10.8222  10.8937  11.0882  11.1693

          k = 0.2153 0.3723-0.0473 (  7138 PWs)   bands (ev):

   -12.8370 -12.7185 -12.5937 -11.3712 -11.3641 -11.2691 -11.2610 -11.1466
   -11.1449  -7.5677  -7.5214  -7.4348  -6.7945  -6.7640  -6.7054  -4.2211
    -4.1693  -4.1171  -3.4439  -3.3268  -3.3071  -3.2770  -3.2581  -3.2254
    -3.2197  -1.5957  -1.3488  -1.0681  -1.0648  -1.0284  -1.0271  -0.9961
    -0.9948  -0.6738  -0.5138  -0.4900  -0.4472  -0.1468  -0.0137   0.3740
     0.4764   0.5024   0.5299   0.5452   0.8224   0.9166   1.7101   1.7842
     2.2966   4.1989   4.5031   4.9868   6.5278   6.5856   6.6867  10.4985
    10.6346  10.7013  10.8940  10.9227  11.1128  11.1571

          k = 0.2187 0.5615 0.1447 (  7151 PWs)   bands (ev):

   -12.4262 -12.3107 -12.1888 -11.9343 -11.8287 -11.7046 -11.4492 -11.3434
   -11.2264  -7.4294  -7.3647  -7.2940  -6.4777  -6.4223  -6.3891  -4.8277
    -4.7850  -4.7475  -3.3106  -2.8550  -2.8151  -2.7867  -2.3065  -2.2668
    -2.2145  -1.4316  -1.3937  -1.3766  -1.3555  -1.3228  -1.3128  -1.2852
    -1.0973  -0.8769  -0.6354  -0.6037  -0.5695  -0.1888  -0.1163  -0.0855
    -0.0620   0.1847   0.2125   0.3394   0.4253   1.0232   1.2533   1.6109
     2.1845   4.5820   4.8765   5.1950   6.1628   6.3581   6.4927  10.8573
    11.1395  11.1874  11.3627  11.4696  11.7177  11.9671

          k = 0.2155 0.5418-0.0305 (  7141 PWs)   bands (ev):

   -12.4238 -12.3158 -12.1862 -11.9361 -11.8250 -11.7065 -11.4488 -11.3442
   -11.2260  -7.4298  -7.3638  -7.2944  -6.4781  -6.4210  -6.3899  -4.8270
    -4.7866  -4.7467  -3.3146  -2.8554  -2.8147  -2.7869  -2.3071  -2.2658
    -2.2149  -1.4316  -1.4054  -1.3822  -1.3616  -1.3446  -1.3134  -1.2857
    -1.0196  -0.6396  -0.6069  -0.5727  -0.5613  -0.4453  -0.3385  -0.1159
    -0.0852  -0.0621   0.2447   0.6217   0.8272   0.9484   1.0317   1.6468
     2.1792   4.5850   4.8679   5.2000   6.1457   6.3765   6.4936  10.8634
    11.0629  11.2259  11.3163  11.4334  11.7203  11.9382

          k = 0.2177-0.2859 0.0609 (  7169 PWs)   bands (ev):

   -13.1667 -13.0464 -12.9182 -11.2060 -11.1037 -10.9863 -10.7274 -10.6281
   -10.5158  -8.0523  -7.9826  -7.9111  -6.8476  -6.7924  -6.7220  -4.3728
    -4.3158  -4.2471  -3.9181  -3.8586  -3.7953  -3.6027  -3.4186  -3.3733
    -3.3236  -1.9667  -1.4125  -1.3729  -1.3343  -1.1804  -0.6975  -0.6870
    -0.6568  -0.6221  -0.4674   0.0598   0.1916   0.2215   0.2478   0.5511
     1.0187   1.0853   1.1065   1.1125   1.1361   1.6340   1.8133   1.9714
     2.5399   3.7734   4.0256   4.3451   6.8633   6.9599   7.2625   9.4737
     9.7859  10.1281  10.1780  10.3307  10.6092  10.8593

          k = 0.2145-0.3056-0.1144 (  7169 PWs)   bands (ev):

   -13.1645 -13.0511 -12.9158 -11.2068 -11.1019 -10.9873 -10.7279 -10.6269
   -10.5163  -8.0523  -7.9826  -7.9111  -6.8487  -6.7903  -6.7231  -4.3735
    -4.3143  -4.2479  -3.9180  -3.8591  -3.7954  -3.6165  -3.4205  -3.3719
    -3.3245  -1.7669  -1.4140  -1.3806  -1.3650  -1.3338  -0.9061  -0.6908
    -0.6564  -0.6225  -0.2642   0.1256   0.1915   0.2216   0.2481   0.4374
     1.0004   1.0839   1.1119   1.1360   1.2967   1.4682   1.8166   2.2008
     2.3724   3.7679   4.0499   4.3227   6.8382   7.0071   7.2471   9.4745
     9.7630  10.0862  10.1982  10.3483  10.5367  10.7963

          k = 0.2179-0.1164 0.0776 (  7180 PWs)   bands (ev):

   -13.5805 -13.4592 -13.3257 -10.6447 -10.5474 -10.4330  -9.2538  -9.2467
    -9.1637  -9.1566  -9.0650  -9.0624  -6.3894  -6.3829  -6.3211  -6.3147
    -6.2393  -6.2375  -5.0612  -4.9949  -4.9255  -3.9041  -2.4082  -1.8438
    -1.8398  -1.8015  -1.7992  -1.7614  -1.7609  -1.4232  -0.9327  -0.5080
    -0.4526  -0.4239  -0.3936   0.5809   1.1508   1.2646   1.2958   1.3238
     1.3770   1.7989   1.9145   1.9385   1.9646   2.4300   2.5454   2.6363
     3.0364   3.1612   3.4695   3.5648   7.5766   7.5988   7.8228   7.8433
     8.2430   8.2654   9.0151   9.3705   9.8585  10.0568

          k = 0.2147-0.1361-0.0976 (  7167 PWs)   bands (ev):

   -13.5796 -13.4613 -13.3246 -10.6463 -10.5440 -10.4347  -9.2531  -9.2462
    -9.1651  -9.1576  -9.0642  -9.0619  -6.3905  -6.3838  -6.3190  -6.3129
    -6.2403  -6.2384  -5.0604  -4.9963  -4.9247  -3.9145  -2.2976  -1.8443
    -1.8395  -1.8023  -1.7999  -1.7614  -1.7606  -1.6520  -0.7892  -0.5061
    -0.4530  -0.4236  -0.3937   0.5855   1.0002   1.2652   1.2960   1.3240
     1.4832   1.9099   1.9311   1.9395   1.9646   2.3331   2.5710   2.6345
     2.9937   3.1442   3.4836   3.5795   7.5428   7.5539   7.8562   7.9086
     8.2438   8.2539   9.0122   9.3899   9.8003  10.0425

          k = 0.2181 0.0530 0.0944 (  7174 PWs)   bands (ev):

   -13.6628 -13.5436 -13.4066 -10.2513 -10.1523 -10.0471  -9.7819  -9.6908
    -9.5831  -8.4813  -8.4064  -8.3312  -7.2422  -7.1780  -7.1136  -6.0132
    -5.9425  -5.8685  -5.5692  -5.5023  -5.4271  -3.9739  -2.4135  -1.9286
    -1.8868  -1.8471  -1.6978  -1.1860  -1.1502  -1.1137  -0.8353  -0.7004
    -0.6654  -0.6408  -0.5032   0.5303   1.4255   1.5756   1.6053   1.6272
     1.7549   2.0229   2.0312   2.0513   2.0717   2.2505   2.5352   2.6527
     3.1218   3.2795   3.5050   3.8093   7.1039   7.3799   7.5029   7.9379
     8.3762   8.5244   8.7858   8.8581   9.2862   9.8198

          k = 0.2149 0.0334-0.0809 (  7177 PWs)   bands (ev):

   -13.6636 -13.5421 -13.4075 -10.2498 -10.1553 -10.0456  -9.7835  -9.6875
    -9.5848  -8.4820  -8.4048  -8.3321  -7.2411  -7.1803  -7.1124  -6.0122
    -5.9444  -5.8676  -5.5695  -5.5017  -5.4274  -3.9658  -2.4908  -1.9283
    -1.8871  -1.8469  -1.5474  -1.1864  -1.1501  -1.1138  -0.9251  -0.7013
    -0.6658  -0.6407  -0.4986   0.5253   1.5496   1.5787   1.6054   1.6272
     1.6888   1.9698   2.0250   2.0512   2.0717   2.1242   2.6096   2.7501
     3.0997   3.2500   3.5381   3.7895   7.1291   7.3231   7.5334   7.9813
     8.3126   8.5192   8.7905   8.8677   9.2970   9.8367

          k = 0.3627 0.3078 0.1213 (  7171 PWs)   bands (ev):

   -12.6698 -12.5601 -12.4288 -12.1801 -12.0669 -11.9467 -10.2549 -10.1564
   -10.0498  -8.8737  -8.7878  -8.6899  -5.4751  -5.4257  -5.3808  -4.2527
    -4.2073  -4.1673  -3.9035  -3.8604  -3.8199  -3.2570  -2.7191  -2.6835
    -2.6498  -2.3005  -2.2506  -2.2006  -1.9156  -1.2084  -1.1675  -1.1206
    -1.0741  -0.7455  -0.6954  -0.0563   0.2378   0.2713   0.2946   0.4294
     0.5081   0.6681   0.6961   0.7006   0.7234   1.5173   1.9533   2.6154
     2.7798   3.1520   3.5784   4.1711   7.4587   7.6176   7.8750   9.1053
     9.2796   9.5101  10.0663  11.2550  12.0156  12.0769

          k = 0.3595 0.2881-0.0540 (  7176 PWs)   bands (ev):

   -12.6722 -12.5551 -12.4314 -12.1781 -12.0711 -11.9445 -10.2539 -10.1585
   -10.0488  -8.8743  -8.7868  -8.6905  -5.4748  -5.4264  -5.3805  -4.2522
    -4.2083  -4.1668  -3.9040  -3.8593  -3.8205  -3.2500  -2.7199  -2.6815
    -2.6508  -2.2995  -2.2521  -2.1998  -1.9066  -1.3385  -1.2079  -1.1664
    -1.1205  -0.5846  -0.2661  -0.0572   0.0369   0.2374   0.2707   0.2903
     0.2963   0.6679   0.7002   0.7233   0.9548   1.5479   2.0715   2.3095
     2.9412   3.0923   3.6925   4.1208   7.4421   7.6643   7.8451   9.0948
     9.3030   9.4968  10.0715  11.6430  11.9694  12.0867

          k = 0.3629 0.4773 0.1381 (  7150 PWs)   bands (ev):

   -12.4254 -12.3121 -12.1881 -11.9343 -11.8291 -11.7045 -11.4500 -11.3418
   -11.2272  -7.4327  -7.3639  -7.2952  -6.4703  -6.4257  -6.3864  -4.8281
    -4.7888  -4.7462  -3.1677  -2.8563  -2.8194  -2.7855  -2.3070  -2.2672
    -2.2150  -1.8055  -1.4299  -1.3944  -1.3664  -1.3510  -1.3129  -1.2874
    -0.9828  -0.7175  -0.6319  -0.6014  -0.5692  -0.1172  -0.0946  -0.0842
    -0.0629   0.0358   0.1192   0.2031   0.5600   1.1764   1.3135   1.4595
     2.4272   4.6087   4.8977   5.2125   6.1349   6.3141   6.5070  10.5748
    10.9494  11.1350  11.2964  11.6342  11.7443  11.9486

          k = 0.3597 0.4576-0.0372 (  7140 PWs)   bands (ev):

   -12.4244 -12.3141 -12.1870 -11.9364 -11.8248 -11.7067 -11.4480 -11.3459
   -11.2251  -7.4323  -7.3648  -7.2947  -6.4704  -6.4254  -6.3866  -4.8281
    -4.7886  -4.7464  -3.1691  -2.8564  -2.8192  -2.7856  -2.3074  -2.2666
    -2.2152  -1.8096  -1.4292  -1.3960  -1.3655  -1.3512  -1.3130  -1.2873
    -0.9219  -0.6460  -0.6064  -0.5829  -0.5632  -0.4477  -0.2073  -0.1157
    -0.0838  -0.0631   0.3623   0.6658   0.7185   0.8367   0.9471   1.7225
     2.4265   4.5978   4.9216   5.2005   6.1061   6.3628   6.4864  10.5669
    10.9574  11.1182  11.3116  11.6712  11.7182  11.8882

          k = 0.3630 0.6468 0.1548 (  7164 PWs)   bands (ev):

   -12.3473 -12.3395 -12.2349 -12.2260 -12.1081 -12.1056 -10.8878 -10.7880
   -10.6737  -8.1483  -8.0694  -7.9823  -5.9091  -5.8710  -5.7953  -4.5208
    -4.4912  -4.4346  -3.4955  -3.4618  -3.3980  -3.2242  -2.1624  -2.1359
    -2.0902  -1.8097  -1.7591  -1.7482  -1.7153  -1.7087  -1.6715  -1.6711
    -0.9749  -0.8379  -0.3181  -0.0910   0.0915   0.0943   0.1240   0.1250
     0.1543   0.1560   0.3247   0.5639   0.7399   0.9659   1.4476   1.9742
     2.4525   3.8832   4.3272   4.7370   6.5831   6.9064   7.3101   9.9351
    10.1967  10.5534  10.7961  11.4616  12.0058  12.4666

          k = 0.3599 0.6271-0.0204 (  7161 PWs)   bands (ev):

   -12.3463 -12.3387 -12.2368 -12.2277 -12.1071 -12.1047 -10.8887 -10.7860
   -10.6748  -8.1489  -8.0681  -7.9829  -5.9095  -5.8703  -5.7955  -4.5212
    -4.4907  -4.4347  -3.4956  -3.4618  -3.3980  -3.2272  -2.1630  -2.1352
    -2.0905  -1.8264  -1.7595  -1.7481  -1.7150  -1.7114  -1.6716  -1.6707
    -0.8753  -0.7688  -0.4268  -0.1156   0.0895   0.0943   0.1233   0.1247
     0.1541   0.1559   0.1634   0.6506   0.8059   0.8624   1.5699   2.1177
     2.2914   3.8935   4.3009   4.7550   6.5912   6.8830   7.3247   9.9476
    10.1741  10.5663  10.7966  11.4310  11.8809  12.1583

          k = 0.3621-0.2006 0.0710 (  7156 PWs)   bands (ev):

   -12.9185 -12.8010 -12.6736 -11.9333 -11.8273 -11.7030  -9.5590  -9.5520
    -9.4668  -9.4594  -9.3634  -9.3609  -5.1390  -5.1317  -5.0845  -5.0777
    -5.0112  -5.0098  -3.4241  -3.0969  -3.0920  -3.0522  -3.0499  -3.0040
    -3.0025  -2.8592  -2.8057  -2.7529  -1.8213  -1.5047  -0.6624  -0.6220
    -0.5873  -0.5664  -0.2943  -0.0499   0.1646   0.1853   0.2013   0.2298
     0.5216   1.0143   1.0435   1.0720   1.1728   1.6425   2.3265   2.4291
     2.9118   3.0623   3.4427   3.5642   8.0642   8.0738   8.3534   8.3741
     8.7533   8.7641  10.4435  11.3565  11.4949  11.6180

          k = 0.3589-0.2203-0.1043 (  7171 PWs)   bands (ev):

   -12.9170 -12.8041 -12.6721 -11.9350 -11.8239 -11.7048  -9.5587  -9.5518
    -9.4673  -9.4597  -9.3632  -9.3607  -5.1398  -5.1323  -5.0831  -5.0766
    -5.0118  -5.0103  -3.4314  -3.0956  -3.0918  -3.0548  -3.0507  -3.0030
    -3.0022  -2.8584  -2.8074  -2.7522  -1.7884  -1.4073  -0.8146  -0.6618
    -0.6210  -0.5813  -0.4560   0.0795   0.1690   0.1997   0.2297   0.3848
     0.6591   0.9749   1.0155   1.0437   1.0720   1.6484   2.3451   2.4307
     2.8721   3.0612   3.4657   3.5630   8.0700   8.0796   8.3344   8.3548
     8.7674   8.7772  10.3981  11.2207  11.4251  11.7661

          k = 0.3623-0.0312 0.0877 (  7184 PWs)   bands (ev):

   -13.1656 -13.0488 -12.9170 -11.2055 -11.1050 -10.9857 -10.7282 -10.6260
   -10.5168  -8.0554  -7.9811  -7.9127  -6.8456  -6.7894  -6.7221  -4.3727
    -4.3150  -4.2476  -3.9150  -3.8566  -3.7948  -3.5315  -3.4234  -3.3736
    -3.3253  -1.9149  -1.4540  -1.4077  -1.3680  -1.3339  -0.9363  -0.6914
    -0.6570  -0.6224  -0.1996   0.0430   0.1915   0.2237   0.2469   0.6586
     0.9369   1.0013   1.0850   1.1121   1.1357   1.7393   1.9356   2.1640
     2.3462   3.8129   4.1111   4.3633   6.8491   6.9351   7.2413   9.4645
     9.7234  10.0724  10.1789  10.2610  10.5468  10.8400

          k = 0.3591-0.0508-0.0875 (  7169 PWs)   bands (ev):

   -13.1656 -13.0486 -12.9171 -11.2075 -11.1008 -10.9879 -10.7268 -10.6287
   -10.5153  -8.0546  -7.9831  -7.9116  -6.8464  -6.7878  -6.7229  -4.3730
    -4.3143  -4.2478  -3.9146  -3.8572  -3.7946  -3.5314  -3.4213  -3.3769
    -3.3240  -1.8982  -1.4987  -1.4067  -1.3713  -1.3331  -0.8793  -0.6917
    -0.6570  -0.6225  -0.2315   0.0730   0.1919   0.2243   0.2469   0.3978
     1.0846   1.1120   1.1176   1.1357   1.4354   1.5087   1.6879   2.1214
     2.4840   3.8269   4.0880   4.3738   6.8448   6.9278   7.2522   9.4670
     9.7265  10.0408  10.1848  10.3157  10.5132  10.8326

          k = 0.3625 0.1383 0.1045 (  7177 PWs)   bands (ev):

   -13.0822 -12.9684 -12.8349 -11.6109 -11.5014 -11.3860 -10.1743 -10.0801
    -9.9699  -8.8015  -8.7159  -8.6214  -6.0375  -5.9733  -5.9075  -4.7744
    -4.7155  -4.6550  -3.4929  -3.3958  -3.3455  -3.3150  -3.2906  -3.2692
    -3.2222  -2.2380  -2.1969  -2.1529  -1.8120  -1.5158  -0.9708  -0.1709
    -0.1545  -0.1350  -0.1264  -0.1073  -0.0935  -0.0836  -0.0512   0.1529
     1.0485   1.1300   1.1613   1.1832   1.2530   1.6566   2.0283   2.3649
     2.9479   3.1516   3.6841   4.0627   7.3523   7.5347   7.8055   8.8363
     9.0567   9.3922   9.9442  10.8122  10.9221  11.1215

          k = 0.3593 0.1187-0.0707 (  7167 PWs)   bands (ev):

   -13.0838 -12.9650 -12.8366 -11.6088 -11.5058 -11.3838 -10.1757 -10.0770
    -9.9714  -8.8016  -8.7157  -8.6215  -6.0367  -5.9750  -5.9066  -4.7739
    -4.7164  -4.6545  -3.4845  -3.3941  -3.3451  -3.3139  -3.2905  -3.2692
    -3.2219  -2.2384  -2.1959  -2.1533  -1.8993  -1.5612  -0.7250  -0.2291
    -0.1664  -0.1435  -0.1288  -0.1083  -0.0935  -0.0839  -0.0220   0.3177
     0.5487   1.1302   1.1613   1.1832   1.5246   1.5635   2.0575   2.5243
     2.8448   3.1930   3.6119   4.0899   7.3542   7.5485   7.7910   8.8287
     9.0953   9.3511   9.9650  10.8439  11.1057  11.2615

     the Fermi energy is     5.6649 ev

!    total energy              =    -296.26371088 Ry
     estimated scf accuracy    <       0.00000096 Ry
     smearing contrib. (-TS)   =      -0.00000001 Ry
     internal energy E=F+TS    =    -296.26371087 Ry

     The total energy is F=E-TS. E is the sum of the following terms:
     one-electron contribution =    -171.55880229 Ry
     hartree contribution      =     133.18937186 Ry
     xc contribution           =    -105.10752590 Ry
     ewald contribution        =    -152.78675455 Ry

     convergence has been achieved in  34 iterations

     Forces acting on atoms (cartesian axes, Ry/au):

     atom    1 type  1   force =     0.00020916   -0.00028309    0.00001443
     atom    2 type  1   force =    -0.00256421   -0.00072524   -0.01057677
     atom    3 type  1   force =     0.00028715   -0.00007866   -0.00012135
     atom    4 type  1   force =    -0.00000321   -0.00015061    0.00030239
     atom    5 type  1   force =     0.00048523    0.00286071   -0.01955143
     atom    6 type  1   force =    -0.00002669   -0.00007671   -0.00030422
     atom    7 type  1   force =     0.00001856   -0.00024157    0.00001018
     atom    8 type  1   force =    -0.00025261    0.00031443   -0.00638292
     atom    9 type  1   force =    -0.00023583   -0.00004994   -0.00017461
     atom   10 type  1   force =    -0.00003530   -0.00018757    0.00029005
     atom   11 type  1   force =     0.00087431   -0.00048593    0.00081943
     atom   12 type  1   force =     0.00003236   -0.00007002   -0.00059482
     atom   13 type  1   force =     0.00014478   -0.00015173    0.00020368
     atom   14 type  1   force =     0.00002106    0.00330535   -0.00025913
     atom   15 type  1   force =     0.00005211    0.00048403   -0.00058592
     atom   16 type  1   force =     0.00000712   -0.00005481   -0.00008558
     atom   17 type  1   force =    -0.00268581    0.00207082    0.00008378
     atom   18 type  1   force =     0.00008410    0.00038345    0.00002868
     atom   19 type  1   force =     0.00011652   -0.00025864    0.00023504
     atom   20 type  1   force =     0.00014902   -0.00339179    0.00126964
     atom   21 type  1   force =    -0.00001415   -0.00004530   -0.00066502
     atom   22 type  1   force =     0.00000111   -0.00007700    0.00012000
     atom   23 type  1   force =     0.00187746    0.00246685   -0.00105558
     atom   24 type  1   force =    -0.00015114    0.00047567    0.00002224
     atom   25 type  2   force =    -0.00167710    0.00051371   -0.00015727
     atom   26 type  2   force =    -0.00308142    0.00104626    0.00078698
     atom   27 type  2   force =    -0.00491047    0.00975931    0.00240762
     atom   28 type  2   force =    -0.00952429    0.01609828    0.00493940
     atom   29 type  2   force =     0.01101708    0.01110054    0.00353193
     atom   30 type  2   force =     0.01610627    0.02000614    0.00565919
     atom   31 type  2   force =    -0.18112938   -0.04449891    0.01466518
     atom   32 type  2   force =     0.17480819   -0.02005807    0.00512478
     The non-local contrib.  to forces
     atom    1 type  1   force =     0.00000174   -0.00026124    0.00014342
     atom    2 type  1   force =    -0.00522313   -0.00243917   -0.01590394
     atom    3 type  1   force =     0.00132917    0.00074228    0.00077450
     atom    4 type  1   force =    -0.00005601    0.00022629    0.00036735
     atom    5 type  1   force =     0.00155724    0.00462026   -0.02527831
     atom    6 type  1   force =     0.00098219   -0.00017170    0.00024350
     atom    7 type  1   force =     0.00016957   -0.00016811    0.00019692
     atom    8 type  1   force =     0.00181609   -0.00086471   -0.00936211
     atom    9 type  1   force =    -0.00066949    0.00090351    0.00031743
     atom   10 type  1   force =    -0.00000131    0.00016635    0.00034245
     atom   11 type  1   force =     0.00025067   -0.00040625    0.00245651
     atom   12 type  1   force =    -0.00146759   -0.00021087   -0.00050851
     atom   13 type  1   force =     0.00007936   -0.00028249    0.00057455
     atom   14 type  1   force =     0.00009549    0.00193714   -0.00039241
     atom   15 type  1   force =     0.00019148   -0.00036993    0.00136313
     atom   16 type  1   force =     0.00002109   -0.00002390   -0.00002299
     atom   17 type  1   force =    -0.00079213    0.00130839    0.00178045
     atom   18 type  1   force =    -0.00006971    0.00182681    0.00144820
     atom   19 type  1   force =     0.00010669   -0.00019800    0.00028415
     atom   20 type  1   force =     0.00024050   -0.00189984    0.00265378
     atom   21 type  1   force =     0.00050010   -0.00190301   -0.00059594
     atom   22 type  1   force =    -0.00002434   -0.00003974    0.00035902
     atom   23 type  1   force =    -0.00004988    0.00088798   -0.00011967
     atom   24 type  1   force =    -0.00055347    0.00035008    0.00181396
     atom   25 type  2   force =     0.04811226    0.04003579   -0.00552616
     atom   26 type  2   force =    -0.04793270   -0.03948485    0.00487940
     atom   27 type  2   force =     0.06021146   -0.01827796   -0.00269828
     atom   28 type  2   force =    -0.05984203    0.01753617    0.00221012
     atom   29 type  2   force =     0.01561331   -0.06019932    0.00805098
     atom   30 type  2   force =    -0.01690979    0.05958243   -0.00905534
     atom   31 type  2   force =     0.08510785    0.00576521   -0.00118120
     atom   32 type  2   force =    -0.08479323   -0.00549238    0.00329834
     The ionic contribution  to forces
     atom    1 type  1   force =    -0.00190097   -0.01057132   -0.08430171
     atom    2 type  1   force =    -0.03868376    0.43021508    4.36443540
     atom    3 type  1   force =    -0.02701840   -0.51798964   -4.75151509
     atom    4 type  1   force =    -0.00174423   -0.00927038   -0.09305567
     atom    5 type  1   force =     0.09785290    0.54666782    4.21405586
     atom    6 type  1   force =    -0.05047504   -0.56719449   -4.70754532
     atom    7 type  1   force =    -0.00116924   -0.01007218   -0.08398693
     atom    8 type  1   force =     0.19120128    0.43869322    4.41823230
     atom    9 type  1   force =    -0.14023567   -0.51398947   -4.76359007
     atom   10 type  1   force =    -0.00141747   -0.00957687   -0.09310745
     atom   11 type  1   force =     0.06034140    0.53787479    4.50411090
     atom   12 type  1   force =    -0.11876378   -0.57338710   -4.71565531
     atom   13 type  1   force =    -0.00170032   -0.01051590   -0.08431053
     atom   14 type  1   force =     0.08160773    0.52700659    4.60051449
     atom   15 type  1   force =    -0.08625311   -0.51239864   -4.66799272
     atom   16 type  1   force =    -0.00137720   -0.01053876   -0.08802315
     atom   17 type  1   force =     0.07790386    0.48625039    4.57696525
     atom   18 type  1   force =    -0.08490134   -0.47150113   -4.78427237
     atom   19 type  1   force =    -0.00122156   -0.01033155   -0.08861252
     atom   20 type  1   force =     0.08316554    0.60523650    4.47799079
     atom   21 type  1   force =    -0.08059701   -0.57559446   -4.68292054
     atom   22 type  1   force =    -0.00151258   -0.01053913   -0.08910007
     atom   23 type  1   force =     0.08230099    0.45925860    4.56276233
     atom   24 type  1   force =    -0.08701803   -0.50327228   -4.68240976
     atom   25 type  2   force =    -0.65635910   -0.50970851    0.11368024
     atom   26 type  2   force =     0.57997713    0.43567380    0.01218690
     atom   27 type  2   force =    -0.85784213    0.39803335    0.06998545
     atom   28 type  2   force =     0.61353603    0.00459012    0.14673537
     atom   29 type  2   force =    -0.06220995    0.92434200   -0.01080476
     atom   30 type  2   force =     0.37808563   -0.64071721    0.22791729
     atom   31 type  2   force =    -1.09307331   -0.22520191    1.12279775
     atom   32 type  2   force =     1.14950169   -0.10147133    1.05883366
     The local contribution  to forces
     atom    1 type  1   force =     0.00209987    0.01054217    0.08410471
     atom    2 type  1   force =     0.04119686   -0.42861400   -4.35979066
     atom    3 type  1   force =     0.02604994    0.51720228    4.75083559
     atom    4 type  1   force =     0.00178637    0.00885756    0.09286365
     atom    5 type  1   force =    -0.09888525   -0.54834357   -4.20919518
     atom    6 type  1   force =     0.04953788    0.56726771    4.70720724
     atom    7 type  1   force =     0.00101105    0.01002092    0.08373050
     atom    8 type  1   force =    -0.19317054   -0.43757945   -4.41579292
     atom    9 type  1   force =     0.14060333    0.51307346    4.76330417
     atom   10 type  1   force =     0.00138565    0.00919546    0.09292503
     atom   11 type  1   force =    -0.05976152   -0.53793879   -4.50596179
     atom   12 type  1   force =     0.12018035    0.57350945    4.71576677
     atom   13 type  1   force =     0.00174695    0.01062449    0.08387539
     atom   14 type  1   force =    -0.08167718   -0.52566344   -4.60059544
     atom   15 type  1   force =     0.08609745    0.51329382    4.66632660
     atom   16 type  1   force =     0.00135412    0.01050436    0.08782821
     atom   17 type  1   force =    -0.07982512   -0.48554711   -4.57881922
     atom   18 type  1   force =     0.08507750    0.47018323    4.78301136
     atom   19 type  1   force =     0.00125124    0.01024007    0.08849249
     atom   20 type  1   force =    -0.08323796   -0.60675938   -4.47963228
     atom   21 type  1   force =     0.08012514    0.57738966    4.68307415
     atom   22 type  1   force =     0.00155505    0.01051427    0.08872919
     atom   23 type  1   force =    -0.08038930   -0.45777603   -4.56389670
     atom   24 type  1   force =     0.08740416    0.50345515    4.68084555
     atom   25 type  2   force =     0.60655421    0.47017521   -0.10826224
     atom   26 type  2   force =    -0.53514628   -0.39515509   -0.01622465
     atom   27 type  2   force =     0.79268552   -0.36995799   -0.06483322
     atom   28 type  2   force =    -0.56323637   -0.00597415   -0.14394724
     atom   29 type  2   force =     0.05762661   -0.85299551    0.00633151
     atom   30 type  2   force =    -0.34503815    0.60116012   -0.21314796
     atom   31 type  2   force =     0.82682954    0.17492236   -1.10685016
     atom   32 type  2   force =    -0.88986195    0.08689273   -1.05690608
     The core correction contribution to forces
     atom    1 type  1   force =     0.00001003   -0.00000410   -0.00003694
     atom    2 type  1   force =     0.00009965    0.00009064    0.00038469
     atom    3 type  1   force =    -0.00002752   -0.00002152    0.00000005
     atom    4 type  1   force =    -0.00001002    0.00000051    0.00002654
     atom    5 type  1   force =    -0.00002763   -0.00004878    0.00053112
     atom    6 type  1   force =    -0.00002523    0.00001709    0.00002895
     atom    7 type  1   force =     0.00000961   -0.00000618   -0.00003741
     atom    8 type  1   force =    -0.00005482    0.00004520    0.00026514
     atom    9 type  1   force =     0.00002524   -0.00000583    0.00001232
     atom   10 type  1   force =    -0.00000902    0.00000254    0.00002642
     atom   11 type  1   force =     0.00001241    0.00001401   -0.00003103
     atom   12 type  1   force =     0.00003627    0.00000428    0.00003293
     atom   13 type  1   force =     0.00000946   -0.00000143   -0.00003575
     atom   14 type  1   force =    -0.00001940   -0.00003471   -0.00001128
     atom   15 type  1   force =     0.00000125    0.00000522   -0.00004493
     atom   16 type  1   force =    -0.00001061    0.00000214    0.00002103
     atom   17 type  1   force =     0.00002098   -0.00000949   -0.00007430
     atom   18 type  1   force =    -0.00000871   -0.00003125    0.00003682
     atom   19 type  1   force =     0.00000909   -0.00000246   -0.00002577
     atom   20 type  1   force =    -0.00001276    0.00000948    0.00001660
     atom   21 type  1   force =    -0.00001266    0.00004547    0.00001638
     atom   22 type  1   force =    -0.00001009    0.00000493    0.00002086
     atom   23 type  1   force =     0.00001284   -0.00000850   -0.00003782
     atom   24 type  1   force =     0.00001036   -0.00000089   -0.00000039
     atom   25 type  2   force =     0.00000000    0.00000000    0.00000000
     atom   26 type  2   force =     0.00000000    0.00000000    0.00000000
     atom   27 type  2   force =     0.00000000    0.00000000    0.00000000
     atom   28 type  2   force =     0.00000000    0.00000000    0.00000000
     atom   29 type  2   force =     0.00000000    0.00000000    0.00000000
     atom   30 type  2   force =     0.00000000    0.00000000    0.00000000
     atom   31 type  2   force =     0.00000000    0.00000000    0.00000000
     atom   32 type  2   force =     0.00000000    0.00000000    0.00000000
     The Hubbard contrib.    to forces
     atom    1 type  1   force =     0.00000000    0.00000000    0.00000000
     atom    2 type  1   force =     0.00000000    0.00000000    0.00000000
     atom    3 type  1   force =     0.00000000    0.00000000    0.00000000
     atom    4 type  1   force =     0.00000000    0.00000000    0.00000000
     atom    5 type  1   force =     0.00000000    0.00000000    0.00000000
     atom    6 type  1   force =     0.00000000    0.00000000    0.00000000
     atom    7 type  1   force =     0.00000000    0.00000000    0.00000000
     atom    8 type  1   force =     0.00000000    0.00000000    0.00000000
     atom    9 type  1   force =     0.00000000    0.00000000    0.00000000
     atom   10 type  1   force =     0.00000000    0.00000000    0.00000000
     atom   11 type  1   force =     0.00000000    0.00000000    0.00000000
     atom   12 type  1   force =     0.00000000    0.00000000    0.00000000
     atom   13 type  1   force =     0.00000000    0.00000000    0.00000000
     atom   14 type  1   force =     0.00000000    0.00000000    0.00000000
     atom   15 type  1   force =     0.00000000    0.00000000    0.00000000
     atom   16 type  1   force =     0.00000000    0.00000000    0.00000000
     atom   17 type  1   force =     0.00000000    0.00000000    0.00000000
     atom   18 type  1   force =     0.00000000    0.00000000    0.00000000
     atom   19 type  1   force =     0.00000000    0.00000000    0.00000000
     atom   20 type  1   force =     0.00000000    0.00000000    0.00000000
     atom   21 type  1   force =     0.00000000    0.00000000    0.00000000
     atom   22 type  1   force =     0.00000000    0.00000000    0.00000000
     atom   23 type  1   force =     0.00000000    0.00000000    0.00000000
     atom   24 type  1   force =     0.00000000    0.00000000    0.00000000
     atom   25 type  2   force =     0.00000000    0.00000000    0.00000000
     atom   26 type  2   force =     0.00000000    0.00000000    0.00000000
     atom   27 type  2   force =     0.00000000    0.00000000    0.00000000
     atom   28 type  2   force =     0.00000000    0.00000000    0.00000000
     atom   29 type  2   force =     0.00000000    0.00000000    0.00000000
     atom   30 type  2   force =     0.00000000    0.00000000    0.00000000
     atom   31 type  2   force =     0.00000000    0.00000000    0.00000000
     atom   32 type  2   force =     0.00000000    0.00000000    0.00000000
     The SCF correction term to forces
     atom    1 type  1   force =    -0.00000206    0.00001137    0.00010566
     atom    2 type  1   force =     0.00004561    0.00002219    0.00029844
     atom    3 type  1   force =    -0.00004659   -0.00001208   -0.00021569
     atom    4 type  1   force =     0.00002014    0.00003538    0.00010123
     atom    5 type  1   force =    -0.00001258   -0.00003505    0.00033579
     atom    6 type  1   force =    -0.00004704    0.00000464   -0.00023788
     atom    7 type  1   force =    -0.00000299   -0.00001605    0.00010782
     atom    8 type  1   force =    -0.00004518    0.00002015    0.00027539
     atom    9 type  1   force =     0.00004021   -0.00003163   -0.00021774
     atom   10 type  1   force =     0.00000630    0.00002493    0.00010431
     atom   11 type  1   force =     0.00003080   -0.00002972    0.00024556
     atom   12 type  1   force =     0.00004654    0.00001419   -0.00023000
     atom   13 type  1   force =     0.00000878    0.00002356    0.00010073
     atom   14 type  1   force =     0.00001386    0.00005975    0.00022622
     atom   15 type  1   force =     0.00001449   -0.00004646   -0.00023729
     atom   16 type  1   force =     0.00001916    0.00000132    0.00011202
     atom   17 type  1   force =     0.00000605    0.00006861    0.00023232
     atom   18 type  1   force =    -0.00001420   -0.00009423   -0.00019463
     atom   19 type  1   force =    -0.00002949    0.00003327    0.00009740
     atom   20 type  1   force =    -0.00000686    0.00002142    0.00024146
     atom   21 type  1   force =    -0.00003027    0.00001700   -0.00023837
     atom   22 type  1   force =    -0.00000749   -0.00001737    0.00011171
     atom   23 type  1   force =     0.00000225    0.00010478    0.00023699
     atom   24 type  1   force =     0.00000528   -0.00005642   -0.00022642
     atom   25 type  2   force =     0.00001497    0.00001119   -0.00004841
     atom   26 type  2   force =     0.00001988    0.00001236   -0.00005396
     atom   27 type  2   force =     0.00003413   -0.00003812   -0.00004562
     atom   28 type  2   force =     0.00001753   -0.00005388   -0.00005813
     atom   29 type  2   force =    -0.00001344   -0.00004665   -0.00004509
     atom   30 type  2   force =    -0.00003197   -0.00001923   -0.00005409
     atom   31 type  2   force =     0.00000598    0.00001540   -0.00010050
     atom   32 type  2   force =    -0.00003888    0.00001288   -0.00010044

     Total force =     0.260870     Total SCF correction =     0.001077


     Computing stress (Cartesian axis) and pressure

          total   stress  (Ry/bohr**3)                   (kbar)     P=       18.67
   0.00020260   0.00002899   0.00000675           29.80        4.26        0.99
   0.00002899   0.00008264   0.00000706            4.26       12.16        1.04
   0.00000675   0.00000706   0.00009557            0.99        1.04       14.06


     BFGS Geometry Optimization
     Energy error            =      0.0E+00 Ry
     Gradient error          =      1.8E-01 Ry/Bohr
     Cell gradient error     =      3.0E+01 kbar

     number of scf cycles    =   1
     number of bfgs steps    =   0

     enthalpy           new  =    -296.2637108837 Ry

     new trust radius        =       0.1870910787 bohr
     new conv_thr            =       0.0000010000 Ry

     new unit-cell volume =   1694.06605 a.u.^3 (   251.03469 Ang^3 )
     density =      1.96014 g/cm^3

CELL_PARAMETERS (alat=  8.00000437)
   1.161110264   0.001545706  -0.020587687
  -0.582339130   0.995704583  -0.101340860
  -0.033265326  -0.285612447   2.892272538

ATOMIC_POSITIONS (crystal)
C            -0.0618948707       -0.0874947343        0.1646648523
C             0.0319315173        0.0717166969        0.4393901315
C             0.0307544440        0.0217536356        0.8898922211
C             0.1047156576        0.2457896990        0.1645689277
C             0.3657705298        0.2387584218        0.4390304329
C             0.1974033337        0.3551132020        0.8898615650
C             0.4380860837       -0.0874940719        0.1646667596
C             0.5323406992        0.0718968808        0.4395654807
C             0.5307573943        0.0217700481        0.8898684089
C             0.6047090659        0.2457856416        0.1645701732
C             0.8657674961        0.2385560758        0.4398767344
C             0.6974401412        0.3550998712        0.8898596962
C            -0.0619017430        0.4125051963        0.1646503068
C             0.0325797434        0.5723325981        0.4398981529
C             0.0308133355        0.5218979370        0.8899850117
C             0.1047297022        0.7458194692        0.1645985851
C             0.3656149698        0.7389276340        0.4399431537
C             0.1974192211        0.8550829546        0.8898360517
C             0.4380841063        0.4124849032        0.1646290008
C             0.5321558879        0.5714856247        0.4398654757
C             0.5307361452        0.5218201319        0.8898670478
C             0.6047282832        0.7458159119        0.1645877194
C             0.8660582364        0.7389167564        0.4399193518
C             0.6974639850        0.8551605948        0.8898841064
H             0.7122288315        0.9849400660        0.6665238568
H             0.8920930306        1.1016098646        0.6665656929
H             0.2160177403        0.5882348222        0.6670810834
H             0.3392728662        0.5341941349        0.6634171342
H             0.7859679517        0.6090914938        0.6648417839
H             0.7381126882        0.4342835224        0.6665876846
H             0.2476488349        0.1945015083        0.6202819037
H             0.4276870093        0.2075406869        0.6202628661



     Writing config-only to output data dir ../../results/server/4h2_abs/4H2abs_C.save/
     NEW-OLD atomic charge density approx. for the potential

     Check: negative core charge=   -0.000002
     extrapolated charge  104.98350, renormalised to  104.00000

     total cpu time spent up to now is       47.6 secs

     Self-consistent Calculation

     iteration #  1     ecut=    40.00 Ry     beta= 0.05
     Davidson diagonalization with overlap
     c_bands:  1 eigenvalues not converged
     c_bands:  1 eigenvalues not converged
     c_bands:  3 eigenvalues not converged
     c_bands:  4 eigenvalues not converged
     c_bands:  2 eigenvalues not converged
     c_bands:  2 eigenvalues not converged
     c_bands:  2 eigenvalues not converged
     c_bands:  2 eigenvalues not converged
     c_bands:  2 eigenvalues not converged
     c_bands:  3 eigenvalues not converged
     c_bands:  1 eigenvalues not converged
     c_bands:  1 eigenvalues not converged
     c_bands:  2 eigenvalues not converged
     c_bands:  2 eigenvalues not converged
     c_bands:  4 eigenvalues not converged
     c_bands:  4 eigenvalues not converged
     c_bands:  3 eigenvalues not converged
     c_bands:  3 eigenvalues not converged
     ethr =  1.00E-06,  avg # of iterations = 19.9

     total cpu time spent up to now is       52.1 secs

     total energy              =    -296.26586602 Ry
     estimated scf accuracy    <       0.03182978 Ry

     iteration #  2     ecut=    40.00 Ry     beta= 0.05
     Davidson diagonalization with overlap
     c_bands:  1 eigenvalues not converged
     ethr =  3.06E-05,  avg # of iterations = 12.6

     total cpu time spent up to now is       54.2 secs

     total energy              =    -296.27783197 Ry
     estimated scf accuracy    <       0.01013656 Ry

     iteration #  3     ecut=    40.00 Ry     beta= 0.05
     Davidson diagonalization with overlap
     ethr =  9.75E-06,  avg # of iterations =  4.7

     total cpu time spent up to now is       55.3 secs

     total energy              =    -296.27518321 Ry
     estimated scf accuracy    <       0.00919747 Ry

     iteration #  4     ecut=    40.00 Ry     beta= 0.05
     Davidson diagonalization with overlap
     ethr =  8.84E-06,  avg # of iterations =  2.0

     total cpu time spent up to now is       56.0 secs

     total energy              =    -296.27470777 Ry
     estimated scf accuracy    <       0.00189330 Ry

     iteration #  5     ecut=    40.00 Ry     beta= 0.05
     Davidson diagonalization with overlap
     c_bands:  1 eigenvalues not converged
     ethr =  1.82E-06,  avg # of iterations =  8.8

     total cpu time spent up to now is       57.8 secs

     total energy              =    -296.27500218 Ry
     estimated scf accuracy    <       0.00010821 Ry

     iteration #  6     ecut=    40.00 Ry     beta= 0.05
     Davidson diagonalization with overlap
     ethr =  1.04E-07,  avg # of iterations =  5.5

     total cpu time spent up to now is       59.5 secs

     total energy              =    -296.27504411 Ry
     estimated scf accuracy    <       0.00011967 Ry

     iteration #  7     ecut=    40.00 Ry     beta= 0.05
     Davidson diagonalization with overlap
     ethr =  1.04E-07,  avg # of iterations =  1.0

     total cpu time spent up to now is       60.2 secs

     total energy              =    -296.27502278 Ry
     estimated scf accuracy    <       0.00007996 Ry

     iteration #  8     ecut=    40.00 Ry     beta= 0.05
     Davidson diagonalization with overlap
     ethr =  7.69E-08,  avg # of iterations =  2.3

     total cpu time spent up to now is       61.0 secs

     total energy              =    -296.27502764 Ry
     estimated scf accuracy    <       0.00002880 Ry

     iteration #  9     ecut=    40.00 Ry     beta= 0.05
     Davidson diagonalization with overlap
     ethr =  2.77E-08,  avg # of iterations =  1.4

     total cpu time spent up to now is       61.7 secs

     total energy              =    -296.27502293 Ry
     estimated scf accuracy    <       0.00002502 Ry

     iteration # 10     ecut=    40.00 Ry     beta= 0.05
     Davidson diagonalization with overlap
     ethr =  2.41E-08,  avg # of iterations =  1.9

     total cpu time spent up to now is       62.5 secs

     total energy              =    -296.27502187 Ry
     estimated scf accuracy    <       0.00001232 Ry

     iteration # 11     ecut=    40.00 Ry     beta= 0.05
     Davidson diagonalization with overlap
     ethr =  1.18E-08,  avg # of iterations =  2.3

     total cpu time spent up to now is       63.2 secs

     total energy              =    -296.27502311 Ry
     estimated scf accuracy    <       0.00000807 Ry

     iteration # 12     ecut=    40.00 Ry     beta= 0.05
     Davidson diagonalization with overlap
     ethr =  7.76E-09,  avg # of iterations =  1.2

     total cpu time spent up to now is       63.9 secs

     total energy              =    -296.27502307 Ry
     estimated scf accuracy    <       0.00000734 Ry

     iteration # 13     ecut=    40.00 Ry     beta= 0.05
     Davidson diagonalization with overlap
     ethr =  7.06E-09,  avg # of iterations =  1.7

     total cpu time spent up to now is       64.5 secs

     total energy              =    -296.27502143 Ry
     estimated scf accuracy    <       0.00000634 Ry

     iteration # 14     ecut=    40.00 Ry     beta= 0.05
     Davidson diagonalization with overlap
     ethr =  6.10E-09,  avg # of iterations =  2.2

     total cpu time spent up to now is       65.3 secs

     total energy              =    -296.27502196 Ry
     estimated scf accuracy    <       0.00000234 Ry

     iteration # 15     ecut=    40.00 Ry     beta= 0.05
     Davidson diagonalization with overlap
     ethr =  2.25E-09,  avg # of iterations =  1.9

     total cpu time spent up to now is       65.9 secs

     total energy              =    -296.27502149 Ry
     estimated scf accuracy    <       0.00000185 Ry

     iteration # 16     ecut=    40.00 Ry     beta= 0.05
     Davidson diagonalization with overlap
     ethr =  1.78E-09,  avg # of iterations =  1.9

     total cpu time spent up to now is       66.6 secs

     total energy              =    -296.27502107 Ry
     estimated scf accuracy    <       0.00000115 Ry

     iteration # 17     ecut=    40.00 Ry     beta= 0.05
     Davidson diagonalization with overlap
     ethr =  1.10E-09,  avg # of iterations =  3.0

     total cpu time spent up to now is       67.4 secs

     End of self-consistent calculation

          k = 0.0734 0.1369 0.1008 (  7171 PWs)   bands (ev):

   -13.8381 -13.7177 -13.5794  -9.5318  -9.4983  -9.4374  -9.4059  -9.3401
    -9.3062  -8.4652  -8.4165  -8.3189  -7.5995  -7.5592  -7.4824  -6.6318
    -6.6185  -6.5578  -6.5429  -6.4791  -6.4641  -4.0244  -2.5661  -1.9499
    -1.4162  -1.3756  -1.3358  -0.9612  -0.9262  -0.9232  -0.9096  -0.8959
    -0.8680  -0.8376   0.1374   0.5330   1.6291   2.0531   2.0836   2.1154
     2.1718   2.2618   2.2898   2.2966   2.3180   2.6922   2.8163   2.9503
     3.0916   3.1754   3.4046   3.7320   6.8019   7.1619   7.5151   7.5646
     7.6003   7.8407   7.9056   8.2219   8.2347   9.5050

          k = 0.0703 0.1173-0.0740 (  7180 PWs)   bands (ev):

   -13.8394 -13.7149 -13.5809  -9.5305  -9.4986  -9.4400  -9.4052  -9.3387
    -9.3066  -8.4656  -8.4158  -8.3192  -7.6005  -7.5578  -7.4829  -6.6319
    -6.6176  -6.5575  -6.5448  -6.4793  -6.4631  -4.0039  -2.7305  -1.6360
    -1.4164  -1.3754  -1.3359  -1.1072  -0.9612  -0.9261  -0.9120  -0.8960
    -0.8680  -0.8377   0.1431   0.5323   1.6140   2.0530   2.0836   2.1154
     2.2227   2.2628   2.2903   2.3180   2.3555   2.6157   2.7967   2.9175
     3.1148   3.1610   3.4391   3.7263   6.7666   7.2220   7.5154   7.5585
     7.6031   7.8168   7.9040   8.2227   8.2524   9.5012

          k = 0.0734 0.3060 0.1175 (  7174 PWs)   bands (ev):

   -13.4236 -13.3077 -13.1711 -10.9836 -10.8791 -10.7670 -10.0662  -9.9674
    -9.8644  -8.7218  -8.6374  -8.5415  -6.7080  -6.6383  -6.5618  -5.4591
    -5.3914  -5.3224  -4.5544  -4.4883  -4.4194  -3.6504  -2.6707  -2.6227
    -2.5727  -1.9974  -1.7170  -1.6696  -1.6351  -1.6260  -0.7086  -0.5526
    -0.5188  -0.4891  -0.2981   0.2365   0.6615   0.6938   0.7340   0.7734
     1.2201   1.4967   1.5224   1.5495   1.6543   1.9107   2.1012   2.5825
     2.8398   3.0640   3.5197   3.9871   7.0309   7.2796   7.6208   8.3348
     8.6290   8.9795   9.5105   9.8077  10.0989  10.2160

          k = 0.0704 0.2864-0.0573 (  7171 PWs)   bands (ev):

   -13.4259 -13.3027 -13.1737 -10.9828 -10.8807 -10.7662 -10.0648  -9.9703
    -9.8629  -8.7215  -8.6379  -8.5413  -6.7085  -6.6373  -6.5623  -5.4587
    -5.3922  -5.3220  -4.5538  -4.4894  -4.4189  -3.6223  -2.6711  -2.6217
    -2.5731  -2.2808  -1.7170  -1.6693  -1.6280  -1.1218  -0.8576  -0.5528
    -0.5188  -0.4894  -0.4277   0.2099   0.6926   0.7283   0.7342   0.7736
     1.2819   1.4966   1.5223   1.5495   1.5797   1.8637   2.1622   2.4285
     2.9525   3.0700   3.5503   3.9664   7.0090   7.3158   7.6120   8.3544
     8.6221   8.9711   9.5218   9.8412  10.0802  10.2329

          k = 0.0735 0.4751 0.1342 (  7166 PWs)   bands (ev):

   -12.6833 -12.5723 -12.4418 -12.1937 -12.0795 -11.9598 -10.2994 -10.1997
   -10.0934  -8.9326  -8.8451  -8.7476  -5.5190  -5.4611  -5.4209  -4.3122
    -4.2598  -4.2233  -3.9523  -3.9016  -3.8635  -3.2139  -2.7798  -2.7304
    -2.6967  -2.3638  -2.3090  -2.2548  -1.5923  -1.2760  -1.2277  -1.1769
    -0.9359  -0.8093  -0.7221  -0.0243   0.1435   0.1748   0.2031   0.3384
     0.5411   0.5681   0.5980   0.6260   0.6650   1.4160   1.7804   2.4047
     2.7677   3.0612   3.5350   4.0879   7.3431   7.5505   7.7544   8.9634
     9.1706   9.3728  10.7181  10.9114  11.7928  11.9866

          k = 0.0704 0.4555-0.0406 (  7169 PWs)   bands (ev):

   -12.6856 -12.5675 -12.4443 -12.1918 -12.0836 -11.9577 -10.2985 -10.2014
   -10.0925  -8.9330  -8.8442  -8.7481  -5.5188  -5.4618  -5.4205  -4.3119
    -4.2606  -4.2228  -3.9527  -3.9006  -3.8642  -3.2068  -2.7800  -2.7299
    -2.6969  -2.3632  -2.3100  -2.2543  -1.5236  -1.3732  -1.2752  -1.2271
    -1.1769  -0.5503  -0.2107  -0.1008   0.0640   0.1428   0.1743   0.2030
     0.2213   0.5678   0.5979   0.6261   0.9040   1.4661   1.8218   2.2442
     2.8593   3.0199   3.6130   4.0515   7.3324   7.5871   7.7286   8.9539
     9.2109   9.3421  10.7168  11.2059  11.8098  11.9471

          k = 0.0732-0.3705 0.0507 (  7168 PWs)   bands (ev):

   -13.0952 -12.9741 -12.8478 -11.6264 -11.5208 -11.4005 -10.2177 -10.1199
   -10.0123  -8.8643  -8.7788  -8.6835  -6.0832  -6.0181  -5.9511  -4.8211
    -4.7589  -4.6981  -3.4760  -3.4166  -3.3885  -3.3442  -3.3283  -3.3024
    -3.2528  -2.3074  -2.2595  -2.2148  -1.8887  -1.2257  -0.4883  -0.4102
    -0.2514  -0.2400  -0.2084  -0.2019  -0.1791  -0.1612  -0.0286   0.2544
     0.5942   1.0374   1.0646   1.0909   1.3069   1.5466   1.8974   2.3941
     2.8828   3.1084   3.4826   3.9747   7.2706   7.4698   7.6826   8.7074
     8.9593   9.2467  10.4350  10.6964  10.9685  11.0423

          k = 0.0701-0.3901-0.1242 (  7166 PWs)   bands (ev):

   -13.0927 -12.9792 -12.8451 -11.6276 -11.5182 -11.4019 -10.2178 -10.1197
   -10.0124  -8.8652  -8.7769  -8.6845  -6.0838  -6.0168  -5.9518  -4.8211
    -4.7590  -4.6980  -3.4789  -3.4284  -3.3858  -3.3474  -3.3351  -3.2995
    -3.2544  -2.3070  -2.2605  -2.2143  -1.6846  -1.2812  -0.9388  -0.2520
    -0.2403  -0.2086  -0.2027  -0.1791  -0.1617  -0.1113  -0.0526   0.1637
     0.8287   1.0376   1.0647   1.0910   1.3122   1.5058   1.8572   2.3916
     2.8813   3.0371   3.5749   3.9462   7.2617   7.4598   7.6997   8.6982
     8.9658   9.2481  10.4017  10.5673  10.6930  10.9775

          k = 0.0732-0.2014 0.0674 (  7172 PWs)   bands (ev):

   -13.6733 -13.5492 -13.4173 -10.2728 -10.1744 -10.0671  -9.8249  -9.7313
    -9.6249  -8.5571  -8.4840  -8.4077  -7.2709  -7.2080  -7.1423  -6.0578
    -5.9850  -5.9105  -5.6090  -5.5400  -5.4621  -3.8494  -2.5556  -1.9688
    -1.9208  -1.8782  -1.3851  -1.2542  -1.2132  -1.1742  -1.0048  -0.7988
    -0.7639  -0.7339  -0.0924   0.3803   1.2699   1.4711   1.5167   1.5465
     1.7179   1.9341   1.9543   1.9788   1.9949   2.1507   2.4926   2.8165
     3.0683   3.1843   3.3739   3.6426   6.9918   7.3447   7.4188   7.8421
     8.2200   8.4306   8.6733   8.7453   9.1860   9.7394

          k = 0.0702-0.2210-0.1075 (  7180 PWs)   bands (ev):

   -13.6715 -13.5531 -13.4153 -10.2729 -10.1743 -10.0671  -9.8258  -9.7294
    -9.6259  -8.5579  -8.4822  -8.4086  -7.2707  -7.2084  -7.1422  -6.0571
    -5.9864  -5.9098  -5.6098  -5.5383  -5.4630  -3.8750  -2.3277  -1.9689
    -1.9214  -1.8781  -1.8308  -1.2540  -1.2136  -1.1740  -0.7987  -0.7641
    -0.7416  -0.7335  -0.0953   0.3826   1.3599   1.4692   1.5163   1.5417
     1.5466   1.9097   1.9351   1.9546   1.9789   2.2918   2.6033   2.7936
     3.0372   3.1309   3.3763   3.6550   7.0758   7.2137   7.4652   7.8514
     8.2143   8.4003   8.6540   8.7655   9.2002   9.7289

          k = 0.0733-0.0323 0.0841 (  7196 PWs)   bands (ev):

   -13.9218 -13.7983 -13.6619  -9.1503  -9.0647  -8.9624  -8.7680  -8.7242
    -8.6905  -8.6425  -8.6154  -8.5687  -7.4917  -7.4845  -7.4251  -7.4209
    -7.3534  -7.3482  -7.1167  -7.0407  -6.9612  -4.0954  -2.7770  -1.8485
    -1.1083  -1.0455  -1.0101  -0.9925  -0.9797  -0.9488  -0.9183  -0.8497
    -0.8125  -0.7776   0.2786   0.7273   1.6338   2.3660   2.3944   2.4227
     2.4409   2.4632   2.4714   2.5008   2.7782   2.8478   2.9344   3.0233
     3.2392   3.3475   3.3846   3.5566   7.0365   7.0672   7.1054   7.2910
     7.3035   7.5654   7.6001   7.6439   7.9677   9.4028

          k = 0.0702-0.0519-0.0908 (  7177 PWs)   bands (ev):

   -13.9215 -13.7990 -13.6616  -9.1515  -9.0623  -8.9636  -8.7673  -8.7234
    -8.6920  -8.6442  -8.6146  -8.5677  -7.4925  -7.4858  -7.4230  -7.4187
    -7.3546  -7.3492  -7.1155  -7.0431  -6.9600  -4.1008  -2.7356  -1.9269
    -1.0621  -1.0455  -1.0102  -0.9924  -0.9797  -0.9488  -0.9183  -0.8497
[...]
     atom    4 type  1   force =     0.00015700    0.00000698    0.00030726
     atom    5 type  1   force =    -0.00014676   -0.00000739   -0.00023079
     atom    6 type  1   force =    -0.00015655    0.00013321   -0.00022620
     atom    7 type  1   force =     0.00014753    0.00004222    0.00008245
     atom    8 type  1   force =     0.00031413   -0.00003519   -0.00002662
     atom    9 type  1   force =    -0.00001068   -0.00004249   -0.00014276
     atom   10 type  1   force =     0.00002425   -0.00003027    0.00038126
     atom   11 type  1   force =    -0.00032413   -0.00019412    0.00015856
     atom   12 type  1   force =     0.00009052    0.00013156   -0.00024792
     atom   13 type  1   force =     0.00014525    0.00016050    0.00042830
     atom   14 type  1   force =    -0.00029844    0.00013683   -0.00017222
     atom   15 type  1   force =    -0.00017820   -0.00000307   -0.00025268
     atom   16 type  1   force =     0.00011022   -0.00013612    0.00020427
     atom   17 type  1   force =     0.00031698   -0.00006722   -0.00014693
     atom   18 type  1   force =    -0.00014164   -0.00006269   -0.00014259
     atom   19 type  1   force =     0.00013634   -0.00007530    0.00026086
     atom   20 type  1   force =    -0.00024751   -0.00014339   -0.00006232
     atom   21 type  1   force =    -0.00012623    0.00024747   -0.00023459
     atom   22 type  1   force =     0.00017472    0.00003873   -0.00010391
     atom   23 type  1   force =     0.00027002   -0.00007759   -0.00015088
     atom   24 type  1   force =    -0.00007985   -0.00008198   -0.00014922
     atom   25 type  2   force =    -0.00020546    0.00067358   -0.00020624
     atom   26 type  2   force =     0.00018761   -0.00080139    0.00010032
     atom   27 type  2   force =     0.00029611   -0.00019639    0.00017221
     atom   28 type  2   force =     0.00028739    0.00041620    0.00002670
     atom   29 type  2   force =     0.00011129   -0.00017461   -0.00003911
     atom   30 type  2   force =    -0.00043828    0.00025076   -0.00012383
     atom   31 type  2   force =    -0.00038311    0.00065297    0.00032055
     atom   32 type  2   force =    -0.00016146   -0.00045088    0.00041782
     The non-local contrib.  to forces
     atom    1 type  1   force =    -0.00012987    0.00007835    0.00027048
     atom    2 type  1   force =    -0.00016829   -0.00111734   -0.00094464
     atom    3 type  1   force =    -0.00019569    0.00010879    0.00025787
     atom    4 type  1   force =     0.00020336   -0.00006468    0.00019677
     atom    5 type  1   force =     0.00012061   -0.00031049   -0.00184421
     atom    6 type  1   force =    -0.00048803   -0.00024323    0.00071396
     atom    7 type  1   force =     0.00007156    0.00019863    0.00026403
     atom    8 type  1   force =     0.00107715   -0.00026712   -0.00044543
     atom    9 type  1   force =     0.00049733    0.00058564    0.00058689
     atom   10 type  1   force =    -0.00002618   -0.00013811    0.00023549
     atom   11 type  1   force =    -0.00093139   -0.00099586   -0.00072672
     atom   12 type  1   force =     0.00024611   -0.00006896    0.00010828
     atom   13 type  1   force =     0.00003080    0.00028577    0.00028278
     atom   14 type  1   force =    -0.00094851    0.00013367   -0.00190933
     atom   15 type  1   force =    -0.00029963   -0.00062398    0.00100856
     atom   16 type  1   force =     0.00012940   -0.00026903    0.00022151
     atom   17 type  1   force =     0.00085677    0.00053303   -0.00127544
     atom   18 type  1   force =    -0.00056459    0.00056476    0.00126389
     atom   19 type  1   force =     0.00004404   -0.00001017    0.00031368
     atom   20 type  1   force =     0.00015794    0.00039730   -0.00101794
     atom   21 type  1   force =     0.00041826    0.00003199    0.00125906
     atom   22 type  1   force =     0.00021452    0.00001776    0.00012333
     atom   23 type  1   force =    -0.00010780    0.00020703   -0.00033969
     atom   24 type  1   force =     0.00004750    0.00065157    0.00070362
     atom   25 type  2   force =     0.02387735    0.05712213   -0.00778260
     atom   26 type  2   force =    -0.02391683   -0.05711430    0.00771668
     atom   27 type  2   force =     0.05412991   -0.03204176    0.00355500
     atom   28 type  2   force =    -0.05413241    0.03201154   -0.00353701
     atom   29 type  2   force =     0.00937218   -0.06129676    0.00720659
     atom   30 type  2   force =    -0.00934400    0.06129132   -0.00727749
     atom   31 type  2   force =     0.06182582    0.00931853   -0.00099233
     atom   32 type  2   force =    -0.06184447   -0.00929890    0.00108099
     The ionic contribution  to forces
     atom    1 type  1   force =     0.00069454    0.01277271    0.10506119
     atom    2 type  1   force =     0.05170530    0.55259060    4.60000466
     atom    3 type  1   force =    -0.04933078   -0.55986593   -4.70828167
     atom    4 type  1   force =     0.00192196    0.01084216    0.09391286
     atom    5 type  1   force =     0.05664940    0.56099126    4.61006405
     atom    6 type  1   force =    -0.05005910   -0.56346041   -4.71768377
     atom    7 type  1   force =     0.00139197    0.01318214    0.10369907
     atom    8 type  1   force =     0.06246569    0.55648349    4.60062206
     atom    9 type  1   force =    -0.06289943   -0.56555124   -4.71438120
     atom   10 type  1   force =     0.00090157    0.01054109    0.09275779
     atom   11 type  1   force =     0.05114970    0.55185464    4.61019261
     atom   12 type  1   force =    -0.06449985   -0.56668985   -4.70876457
     atom   13 type  1   force =     0.00112837    0.01255116    0.09647468
     atom   14 type  1   force =     0.05185565    0.54345399    4.60332586
     atom   15 type  1   force =    -0.05222470   -0.56004581   -4.70014555
     atom   16 type  1   force =     0.00147740    0.01047884    0.09648976
     atom   17 type  1   force =     0.06310489    0.54798311    4.60390171
     atom   18 type  1   force =    -0.05387924   -0.55902581   -4.71847194
     atom   19 type  1   force =     0.00139039    0.01192816    0.10055465
     atom   20 type  1   force =     0.05709882    0.55015579    4.61428345
     atom   21 type  1   force =    -0.06109135   -0.56841505   -4.71473362
     atom   22 type  1   force =     0.00198301    0.01206437    0.10214443
     atom   23 type  1   force =     0.05056303    0.54592538    4.60866052
     atom   24 type  1   force =    -0.06146957   -0.56710605   -4.70692307
     atom   25 type  2   force =    -0.30084273   -0.72258242    0.06049620
     atom   26 type  2   force =     0.30232668    0.71057351   -0.12170553
     atom   27 type  2   force =    -0.67494393    0.40289805   -0.02996484
     atom   28 type  2   force =     0.68289351   -0.39855609    0.05184377
     atom   29 type  2   force =    -0.11771799    0.75212341   -0.13810444
     atom   30 type  2   force =     0.11038266   -0.76216651    0.04091933
     atom   31 type  2   force =    -0.76673547   -0.10028545    0.11250379
     atom   32 type  2   force =     0.76460959    0.12435678    0.07124775
     The local contribution  to forces
     atom    1 type  1   force =    -0.00054563   -0.01288260   -0.10531179
     atom    2 type  1   force =    -0.05130117   -0.55167917   -4.59913364
     atom    3 type  1   force =     0.04938285    0.55966680    4.70785919
     atom    4 type  1   force =    -0.00195586   -0.01079014   -0.09389201
     atom    5 type  1   force =    -0.05692409   -0.56067853   -4.60841129
     atom    6 type  1   force =     0.05038112    0.56382546    4.71669958
     atom    7 type  1   force =    -0.00132448   -0.01332765   -0.10389821
     atom    8 type  1   force =    -0.06319679   -0.55625595   -4.60018818
     atom    9 type  1   force =     0.06240196    0.56493049    4.71363616
     atom   10 type  1   force =    -0.00084632   -0.01045598   -0.09270462
     atom   11 type  1   force =    -0.05057083   -0.55106732   -4.60926147
     atom   12 type  1   force =     0.06435682    0.56688236    4.70836307
     atom   13 type  1   force =    -0.00102395   -0.01266470   -0.09636479
     atom   14 type  1   force =    -0.05122764   -0.54344365   -4.60159223
     atom   15 type  1   force =     0.05233859    0.56065459    4.69889322
     atom   16 type  1   force =    -0.00148667   -0.01037249   -0.09658990
     atom   17 type  1   force =    -0.06362359   -0.54856208   -4.60273548
     atom   18 type  1   force =     0.05429471    0.55839569    4.71702716
     atom   19 type  1   force =    -0.00130752   -0.01199244   -0.10063211
     atom   20 type  1   force =    -0.05750740   -0.55068653   -4.61330836
     atom   21 type  1   force =     0.06054995    0.56863691    4.71323483
     atom   22 type  1   force =    -0.00200890   -0.01205582   -0.10244183
     atom   23 type  1   force =    -0.05017928   -0.54619301   -4.60841440
     atom   24 type  1   force =     0.06134439    0.56637262    4.70603492
     atom   25 type  2   force =     0.27675992    0.66613544   -0.05290198
     atom   26 type  2   force =    -0.27822172   -0.65425787    0.11410685
     atom   27 type  2   force =     0.62111003   -0.37105032    0.02659975
     atom   28 type  2   force =    -0.62847312    0.36696270   -0.04826229
     atom   29 type  2   force =     0.10845732   -0.69099884    0.13087647
     atom   30 type  2   force =    -0.10147666    0.70112786   -0.03374788
     atom   31 type  2   force =     0.70452651    0.09162200   -0.11117321
     atom   32 type  2   force =    -0.70292608   -0.11550662   -0.07189318
     The core correction contribution to forces
     atom    1 type  1   force =     0.00001565   -0.00001345   -0.00004717
     atom    2 type  1   force =    -0.00000286    0.00003046    0.00002350
     atom    3 type  1   force =     0.00000616   -0.00000171   -0.00000657
     atom    4 type  1   force =    -0.00001366    0.00001221    0.00002968
     atom    5 type  1   force =     0.00000377   -0.00000476   -0.00000670
     atom    6 type  1   force =     0.00000959    0.00001345    0.00002425
     atom    7 type  1   force =     0.00000825   -0.00001770   -0.00004325
     atom    8 type  1   force =    -0.00003333    0.00000783    0.00001680
     atom    9 type  1   force =    -0.00001080   -0.00001411   -0.00000292
     atom   10 type  1   force =    -0.00000517    0.00001542    0.00003228
     atom   11 type  1   force =     0.00003283    0.00002136   -0.00001342
     atom   12 type  1   force =    -0.00001318    0.00000636    0.00002623
     atom   13 type  1   force =     0.00000914   -0.00001936   -0.00002446
     atom   14 type  1   force =     0.00002679   -0.00000440    0.00003602
     atom   15 type  1   force =     0.00001043    0.00001254   -0.00002816
     atom   16 type  1   force =    -0.00001090    0.00001924    0.00002260
     atom   17 type  1   force =    -0.00002232   -0.00002165   -0.00000460
     atom   18 type  1   force =     0.00001058   -0.00000172    0.00001931
     atom   19 type  1   force =     0.00000915   -0.00000810   -0.00003572
     atom   20 type  1   force =    -0.00000082   -0.00000929    0.00001316
     atom   21 type  1   force =    -0.00000644   -0.00000612   -0.00001405
     atom   22 type  1   force =    -0.00001443    0.00000561    0.00000954
     atom   23 type  1   force =    -0.00000371   -0.00001285   -0.00002486
     atom   24 type  1   force =    -0.00000583   -0.00000494    0.00001662
     atom   25 type  2   force =     0.00000000    0.00000000    0.00000000
     atom   26 type  2   force =     0.00000000    0.00000000    0.00000000
     atom   27 type  2   force =     0.00000000    0.00000000    0.00000000
     atom   28 type  2   force =     0.00000000    0.00000000    0.00000000
     atom   29 type  2   force =     0.00000000    0.00000000    0.00000000
     atom   30 type  2   force =     0.00000000    0.00000000    0.00000000
     atom   31 type  2   force =     0.00000000    0.00000000    0.00000000
     atom   32 type  2   force =     0.00000000    0.00000000    0.00000000
     The Hubbard contrib.    to forces
     atom    1 type  1   force =     0.00000000    0.00000000    0.00000000
     atom    2 type  1   force =     0.00000000    0.00000000    0.00000000
     atom    3 type  1   force =     0.00000000    0.00000000    0.00000000
     atom    4 type  1   force =     0.00000000    0.00000000    0.00000000
     atom    5 type  1   force =     0.00000000    0.00000000    0.00000000
     atom    6 type  1   force =     0.00000000    0.00000000    0.00000000
     atom    7 type  1   force =     0.00000000    0.00000000    0.00000000
     atom    8 type  1   force =     0.00000000    0.00000000    0.00000000
     atom    9 type  1   force =     0.00000000    0.00000000    0.00000000
     atom   10 type  1   force =     0.00000000    0.00000000    0.00000000
     atom   11 type  1   force =     0.00000000    0.00000000    0.00000000
     atom   12 type  1   force =     0.00000000    0.00000000    0.00000000
     atom   13 type  1   force =     0.00000000    0.00000000    0.00000000
     atom   14 type  1   force =     0.00000000    0.00000000    0.00000000
     atom   15 type  1   force =     0.00000000    0.00000000    0.00000000
     atom   16 type  1   force =     0.00000000    0.00000000    0.00000000
     atom   17 type  1   force =     0.00000000    0.00000000    0.00000000
     atom   18 type  1   force =     0.00000000    0.00000000    0.00000000
     atom   19 type  1   force =     0.00000000    0.00000000    0.00000000
     atom   20 type  1   force =     0.00000000    0.00000000    0.00000000
     atom   21 type  1   force =     0.00000000    0.00000000    0.00000000
     atom   22 type  1   force =     0.00000000    0.00000000    0.00000000
     atom   23 type  1   force =     0.00000000    0.00000000    0.00000000
     atom   24 type  1   force =     0.00000000    0.00000000    0.00000000
     atom   25 type  2   force =     0.00000000    0.00000000    0.00000000
     atom   26 type  2   force =     0.00000000    0.00000000    0.00000000
     atom   27 type  2   force =     0.00000000    0.00000000    0.00000000
     atom   28 type  2   force =     0.00000000    0.00000000    0.00000000
     atom   29 type  2   force =     0.00000000    0.00000000    0.00000000
     atom   30 type  2   force =     0.00000000    0.00000000    0.00000000
     atom   31 type  2   force =     0.00000000    0.00000000    0.00000000
     atom   32 type  2   force =     0.00000000    0.00000000    0.00000000
     The SCF correction term to forces
     atom    1 type  1   force =     0.00000102    0.00000722    0.00006031
     atom    2 type  1   force =    -0.00000226   -0.00000851   -0.00003179
     atom    3 type  1   force =     0.00000005    0.00000294    0.00001830
     atom    4 type  1   force =     0.00000123    0.00000745    0.00005996
     atom    5 type  1   force =     0.00000358   -0.00000484   -0.00003264
     atom    6 type  1   force =    -0.00000010   -0.00000204    0.00001979
     atom    7 type  1   force =     0.00000026    0.00000681    0.00006081
     atom    8 type  1   force =     0.00000144   -0.00000343   -0.00003187
     atom    9 type  1   force =     0.00000029    0.00000674    0.00001831
     atom   10 type  1   force =     0.00000039    0.00000732    0.00006032
     atom   11 type  1   force =    -0.00000440   -0.00000692   -0.00003245
     atom   12 type  1   force =     0.00000065    0.00000167    0.00001907
     atom   13 type  1   force =     0.00000092    0.00000764    0.00006008
     atom   14 type  1   force =    -0.00000470   -0.00000276   -0.00003254
     atom   15 type  1   force =    -0.00000287   -0.00000040    0.00001926
     atom   16 type  1   force =     0.00000103    0.00000734    0.00006030
     atom   17 type  1   force =     0.00000126    0.00000038   -0.00003313
     atom   18 type  1   force =    -0.00000307    0.00000441    0.00001898
     atom   19 type  1   force =     0.00000031    0.00000728    0.00006036
     atom   20 type  1   force =     0.00000398   -0.00000064   -0.00003264
     atom   21 type  1   force =     0.00000338   -0.00000024    0.00001919
     atom   22 type  1   force =     0.00000055    0.00000683    0.00006063
     atom   23 type  1   force =    -0.00000218   -0.00000413   -0.00003244
     atom   24 type  1   force =     0.00000370    0.00000484    0.00001869
     atom   25 type  2   force =     0.00000003   -0.00000155   -0.00001787
     atom   26 type  2   force =    -0.00000049   -0.00000270   -0.00001769
     atom   27 type  2   force =     0.00000014   -0.00000234   -0.00001770
     atom   28 type  2   force =    -0.00000056   -0.00000193   -0.00001776
     atom   29 type  2   force =    -0.00000018   -0.00000240   -0.00001773
     atom   30 type  2   force =    -0.00000024   -0.00000190   -0.00001779
     atom   31 type  2   force =     0.00000006   -0.00000209   -0.00001770
     atom   32 type  2   force =    -0.00000047   -0.00000212   -0.00001774

     Total force =     0.002285     Total SCF correction =     0.000209


     Computing stress (Cartesian axis) and pressure

          total   stress  (Ry/bohr**3)                   (kbar)     P=        0.03
   0.00000037   0.00000021   0.00000270            0.06        0.03        0.40
   0.00000021  -0.00000012   0.00000111            0.03       -0.02        0.16
   0.00000270   0.00000111   0.00000039            0.40        0.16        0.06


     Writing all to output data dir ../../results/server/4h2_abs/4H2abs_C.save/
 
     init_run     :      1.19s CPU      1.42s WALL (       2 calls)
     electrons    :    817.75s CPU    896.44s WALL (      46 calls)
     update_pot   :      8.07s CPU      8.76s WALL (      44 calls)
     forces       :     10.81s CPU     12.71s WALL (      46 calls)
     stress       :    104.95s CPU    108.23s WALL (      46 calls)

     Called by init_run:
     wfcinit      :      0.78s CPU      0.86s WALL (       2 calls)
     potinit      :      0.11s CPU      0.13s WALL (       2 calls)
     hinit0       :      0.19s CPU      0.26s WALL (       2 calls)

     Called by electrons:
     c_bands      :    713.08s CPU    763.18s WALL (     801 calls)
     sum_band     :     79.05s CPU     89.64s WALL (     801 calls)
     v_of_rho     :      1.69s CPU      3.48s WALL (     842 calls)
     newd         :      8.18s CPU     10.52s WALL (     842 calls)
     mix_rho      :      8.02s CPU     15.78s WALL (     801 calls)

     Called by c_bands:
     init_us_2    :      4.63s CPU      6.53s WALL (   30528 calls)
     init_us_2:cp :      4.53s CPU      6.36s WALL (   30528 calls)
     cegterg      :    635.79s CPU    677.53s WALL (   14420 calls)

     Called by *egterg:
     cdiaghg      :    241.04s CPU    256.52s WALL (   62753 calls)
     h_psi        :    304.19s CPU    325.25s WALL (   63673 calls)
     s_psi        :     15.52s CPU     16.03s WALL (   63673 calls)
     g_psi        :      1.14s CPU      1.22s WALL (   49217 calls)

     Called by h_psi:
     h_psi:calbec :     36.92s CPU     40.34s WALL (   63673 calls)
     vloc_psi     :    248.42s CPU    264.59s WALL (   63673 calls)
     add_vuspsi   :     16.96s CPU     18.07s WALL (   63673 calls)

     General routines
     calbec       :     57.45s CPU     62.64s WALL (   82231 calls)
     fft          :      4.32s CPU      6.72s WALL (    5377 calls)
     ffts         :      2.56s CPU      4.00s WALL (   16681 calls)
     fftw         :    246.26s CPU    262.58s WALL ( 5714450 calls)
     interpolate  :      0.45s CPU      1.07s WALL (     842 calls)
 
     Parallel routines
 
     PWSCF        :  15m45.50s CPU  17m13.93s WALL

 
   This run was terminated on:  20:45:28   2Sep2024            

=------------------------------------------------------------------------------=
   JOB DONE.
=------------------------------------------------------------------------------=
