LAMMPS data file via write_data, version 29 Aug 2024, timestep = 150000, units = real

770 atoms
2 atom types
676 bonds
1 bond types
1268 angles
1 angle types
2394 dihedrals
1 dihedral types
396 impropers
1 improper types

-30 30 xlo xhi
-30 30 ylo yhi
-15 15 zlo zhi

Masses

1 12.0107
2 2.016

Bond Coeffs # harmonic

1 469 1.4

Angle Coeffs # harmonic

1 63 120

Dihedral Coeffs # opls

1 0 7.25 0 0

Improper Coeffs # harmonic

1 5 180

Atoms # molecular

6 1 1 -10.234501467103708 -12.60429394302197 -7.742752045717854 0 0 0
3 2 1 -11.377542475090957 -11.836119631268032 -7.934244269293805 0 0 0
1 3 1 -11.42126599216496 -10.46497830397093 -7.815965162053778 0 0 0
12 5 1 -7.806876377612499 -12.551721213465743 -7.432794854327559 0 0 0
9 6 1 -9.043043248710283 -11.897320250155257 -7.448664204135373 0 0 0
7 7 1 -9.022156330758431 -10.514960991760734 -7.67329527214858 0 0 0
18 9 1 -5.376561534412402 -12.583505208098638 -7.345711611390564 0 0 0
15 10 1 -6.5788591652676445 -11.927155812543845 -7.086529939407004 0 0 0
14 11 1 -6.642208420984335 -10.544354184941776 -7.337882392388416 0 0 0
21 14 1 -4.215802491801249 -11.837021120301126 -7.3653207168938035 0 0 0
20 15 1 -4.179189446313498 -10.460356257515038 -7.12042358843577 0 0 0
24 13 1 -3.0310120100673523 -12.529596620548404 -7.138450629038506 0 0 0
28 17 1 -0.5910853613345888 -12.582398814988206 -7.140948865524671 0 0 0
27 18 1 -1.7709164431157542 -11.859266958353848 -7.019204684616108 0 0 0
26 19 1 -1.7670270174241187 -10.520790850178866 -7.525571448619089 0 0 0
278 241 1 -10.330526053531834 -11.169791905982446 6.9767644977182215 0 0 0
276 242 1 -11.520982497831868 -10.43049905313588 6.941257641714412 0 0 0
282 245 1 -7.889575500467829 -11.12813312089749 7.406079843947374 0 0 0
280 246 1 -9.198887647919516 -10.552447887622556 7.497390871189728 0 0 0
286 249 1 -5.434377835591854 -11.136306206498489 7.13791168670984 0 0 0
284 250 1 -6.669612974576466 -10.447994248785163 7.1667051105873325 0 0 0
288 254 1 -4.254501238701113 -10.454628532014011 7.441220192327828 0 0 0
290 253 1 -3.0732451234970446 -11.131240294476667 7.169398107497954 0 0 0
293 257 1 -0.645854089149593 -11.182446722567219 7.200030030608798 0 0 0
292 258 1 -1.83713260201775 -10.472511463096975 7.032531472584681 0 0 0
7975 0 2 -4.9956230926612095 -20.004654449829065 14.165695484523129 0 0 0
8169 0 2 -25.828027870753786 -22.580030291333472 10.15137821465481 0 0 0
8154 0 2 -2.2264286485850495 -21.193161466268077 8.774927415297762 0 0 0
8124 0 2 -3.5410273368469056 -19.367285788250022 -0.16692514321112026 0 0 0
1134 0 2 -7.50321443885621 -14.22903579050797 6.269362788185874 0 0 0
724 0 2 -13.274604390363862 -14.410167322932548 -8.694143953969643 0 0 0
8224 0 2 -19.809371884158256 -18.92882186899594 13.296158868601179 0 0 0
8190 0 2 -25.530540760509737 -28.820779358292967 5.717936893901992 0 0 0
4648 0 2 -12.798683085700972 -13.054863496168126 5.483050220694691 0 0 0
8032 0 2 -15.640041151842528 -12.340053327554388 -14.877586388632931 0 0 1
8220 0 2 -27.905701727309072 -22.34519839673615 -13.131656563574582 0 0 0
2043 0 2 -7.796581780252759 -13.443992843283645 -10.43372468144113 0 0 0
531 0 2 -3.5736938183471665 -11.322352520414222 -4.145049302242738 0 0 0
1173 0 2 -8.476159482586148 -15.696702689521423 -6.421133315719419 0 0 0
8264 0 2 -17.290438566811993 -27.16950350003536 -8.966313907313044 0 0 0
7750 0 2 -9.409743307807359 -16.52796498576898 -14.811720306298726 0 0 0
8257 0 2 -7.205045381642554 -23.645568208367532 8.231860226708358 0 0 0
8233 0 2 -23.64232170919502 -24.507295024572173 -8.877883680203507 0 0 0
1452 0 2 -3.7293295893055785 -15.483928530712413 -8.029248951714193 0 0 0
8221 0 2 -12.833388450453462 -23.53237484126283 -13.629528098038248 0 0 0
7484 0 2 -11.157104163061783 -10.919716300745641 10.80192327257008 0 0 0
8231 0 2 -20.059514807427178 -16.490328820801945 -7.539386777285205 0 0 0
7569 0 2 -2.699057253898731 -13.749798881635243 14.662681841023058 0 0 0
7851 0 2 -11.936243531472142 -13.532440567255962 -3.3867790412284036 0 0 0
609 0 2 -2.21553320695382 -14.065372161776923 6.040825845553892 0 0 0
8181 0 2 -3.0612699794062888 -25.493972133349608 -1.52341663258884 0 0 0
8126 0 2 -5.38259888797675 -29.110192082015452 4.8038724143501055 0 0 0
8282 0 2 -20.488248922350945 -25.937886480042057 -3.7014904364770462 0 0 0
1659 0 2 -6.564720802586108 -10.47681433872867 10.430428325016742 0 0 0
8252 0 2 -16.697375900045554 -25.825277537411267 3.447049219573707 0 0 0
8294 0 2 -12.841526412049236 -21.784199592339128 8.06130422426303 0 0 0
8281 0 2 -24.97359297817703 -27.023060006212727 1.0292400838411377 0 0 0
260 0 2 -0.22597788014112197 -12.8659257540851 -10.338044719439864 0 0 0
4 4 1 -10.223648533082796 -9.745913547661864 -7.601123768267087 0 0 0
10 8 1 -7.85567603984128 -9.812796923426152 -7.45030193812208 0 0 0
17 12 1 -5.4234228912058935 -9.770091002236803 -7.055108352053251 0 0 0
5 41 1 -10.237697963865976 -8.357815991186087 -7.794904345020306 0 0 0
2 42 1 -11.408884732540514 -7.6824568481373845 -7.593695454624341 0 0 0
64 43 1 -11.47145505479235 -6.24105540598837 -7.568124727344905 0 0 0
69 44 1 -10.295674950130206 -5.561561536742539 -7.682605315217888 0 0 0
11 45 1 -7.873359949150457 -8.408171631780831 -7.594443576054163 0 0 0
8 46 1 -9.066089069240926 -7.6867934881796405 -7.531462694983855 0 0 0
74 47 1 -9.08844987922739 -6.271041646863483 -7.507784160717491 0 0 0
79 48 1 -7.853580655717797 -5.605523600320464 -7.744369085864098 0 0 0
16 49 1 -5.408026454620289 -8.386239222620722 -7.3771849029827905 0 0 0
13 50 1 -6.655303161735119 -7.692126500670108 -7.357637770822749 0 0 0
88 51 1 -6.613126945043923 -6.334231818874686 -7.709140104921292 0 0 0
89 52 1 -5.408649991935966 -5.641479114806202 -7.458819359436302 0 0 0
19 54 1 -4.1919002199410285 -7.715758618358889 -7.20568108376553 0 0 0
96 55 1 -4.148684879363568 -6.32193826091147 -7.422152759212615 0 0 0
22 16 1 -3.0005849643035822 -9.802043701031298 -7.387284453236823 0 0 0
29 20 1 -0.5593929984967559 -9.79649657408609 -7.2967099601475445 0 0 0
23 53 1 -2.9685592071736933 -8.445361028917949 -7.1127894385509 0 0 0
99 56 1 -2.9517841349052825 -5.597911953926543 -7.2832139861572465 0 0 0
30 57 1 -0.5535735208354166 -8.376059737062182 -7.486694091730276 0 0 0
25 58 1 -1.7787335086289284 -7.71663371720317 -7.408853871845367 0 0 0
104 59 1 -1.731142067804413 -6.296051563328365 -7.167529151836481 0 0 0
109 60 1 -0.5687973284900054 -5.569695974217492 -7.409797875617586 0 0 0
73 81 1 -10.232441412206883 -4.203420761108074 -7.352728523070242 0 0 0
66 82 1 -11.442076819869182 -3.487037601739348 -7.362925024397579 0 0 0
68 83 1 -11.563396429962811 -2.0787730910714908 -7.413627473582594 0 0 0
71 84 1 -10.302074076585257 -1.4716958282120112 -7.277804687646474 0 0 0
80 85 1 -7.831986346291339 -4.193308369289365 -7.758934416287687 0 0 0
76 86 1 -9.042265499630897 -3.5068038610900127 -7.672647009700301 0 0 0
77 87 1 -9.050392316126096 -2.12127299472095 -7.362201606615501 0 0 0
83 88 1 -7.8378131378752185 -1.412398631239795 -7.6035263373637 0 0 0
90 89 1 -5.39807769994911 -4.285179780328355 -7.6973151792778065 0 0 0
85 90 1 -6.645267345547935 -3.540476553015191 -7.503804713195119 0 0 0
86 91 1 -6.63568345608388 -2.110454799397937 -7.6662673779885795 0 0 0
93 92 1 -5.456298916620577 -1.413510885991002 -7.420146079967916 0 0 0
95 94 1 -4.179648860538251 -3.569691779093923 -7.490711943502687 0 0 0
97 95 1 -4.239174534013291 -2.1124436365733397 -7.660947847609141 0 0 0
70 121 1 -10.20431657132239 -0.06878289424802125 -7.61827045907528 0 0 0
67 122 1 -11.406949296398635 0.6467283029625532 -7.596582523160187 0 0 0
65 123 1 -11.336161697284464 2.0470280441186333 -7.481885684550247 0 0 0
72 124 1 -10.185978146675813 2.784302311475477 -7.202767863618749 0 0 0
82 125 1 -7.855405427566539 -0.04544581951263164 -7.3045086984762095 0 0 0
78 126 1 -9.00079808741202 0.6844965036689749 -7.53691406376918 0 0 0
75 127 1 -8.97922101210947 2.0660004293654888 -7.255787385914731 0 0 0
81 128 1 -7.849857935391078 2.8288016833189427 -7.498359083438667 0 0 0
92 129 1 -5.379132381775521 -0.02861991769481783 -7.3203260214891985 0 0 0
87 130 1 -6.636005490372475 0.6558168658527962 -7.469059827362226 0 0 0
84 131 1 -6.706394324967687 2.0950508072758622 -7.381425255144116 0 0 0
91 132 1 -5.436807738831504 2.7112920940586123 -7.6196927438165005 0 0 0
98 134 1 -4.198243112602051 0.6478089679902116 -7.586713477585337 0 0 0
94 135 1 -4.217697010944472 2.057404292897809 -7.3794514407345755 0 0 0
175 161 1 -10.236691059963398 4.140562960819952 -7.507578007612925 0 0 0
183 165 1 -7.832613469734331 4.242662572978934 -7.25798068674177 0 0 0
189 169 1 -5.4540010195616455 4.182244666152902 -7.423210218422858 0 0 0
100 93 1 -2.944212834232532 -4.227568968856773 -7.506194042062803 0 0 0
103 96 1 -2.9933593106328686 -1.3907286313668334 -7.5819103043824665 0 0 0
110 97 1 -0.5249903877441728 -4.152441990939198 -7.256482811706452 0 0 0
106 98 1 -1.7518432439407468 -3.4911340972622935 -7.4323434203845355 0 0 0
107 99 1 -1.8052844850479166 -2.087310877259623 -7.271504798942423 0 0 0
112 100 1 -0.5358675376182603 -1.3931530610562082 -7.4989891103610695 0 0 0
102 133 1 -2.990512537405995 0.008927872970965176 -7.350733670395027 0 0 0
101 136 1 -3.000013566656866 2.7607364373134833 -7.569652040941277 0 0 0
113 137 1 -0.5435006069234812 0.04735537259979832 -7.382655892439904 0 0 0
108 138 1 -1.7880246643587367 0.6882561920322505 -7.498367576311186 0 0 0
105 139 1 -1.7775219268175533 2.0619684901256528 -7.354690360896954 0 0 0
111 140 1 -0.6127181969853044 2.790487876056829 -7.586160579204759 0 0 0
198 173 1 -3.0426893125756203 4.158659375678675 -7.428884699060154 0 0 0
208 177 1 -0.5869998444902024 4.201926859253681 -7.455229438167156 0 0 0
171 162 1 -11.472536327734733 4.841874347306611 -7.587426608888906 0 0 0
170 163 1 -11.505392434699509 6.235662674994471 -7.671886389131025 0 0 0
174 164 1 -10.274165500100066 6.97562223841045 -7.7639621474861285 0 0 0
179 166 1 -9.068211899329961 4.934681459494368 -7.330593481795737 0 0 0
178 167 1 -9.052713499409316 6.293397093372899 -7.673396866783516 0 0 0
182 168 1 -7.840239651486453 6.979208713571501 -7.434296901923336 0 0 0
186 170 1 -6.64159862873071 4.900271906132974 -7.516949774497593 0 0 0
185 171 1 -6.623192379685502 6.2952639114259 -7.390611288988331 0 0 0
190 172 1 -5.396247912433603 6.981879406029107 -7.543172895849499 0 0 0
194 174 1 -4.241851430406063 4.866694632369995 -7.622608458791925 0 0 0
193 175 1 -4.219898186110834 6.260394924470452 -7.47150520674252 0 0 0
173 201 1 -10.318267069019695 8.330372236047346 -7.4969379250582096 0 0 0
169 202 1 -11.491620359191261 9.021301023134752 -7.7487172535518045 0 0 0
181 205 1 -7.872616312106713 8.419386498652772 -7.586230655138196 0 0 0
177 206 1 -9.123969428711257 9.100406072763409 -7.568160144332991 0 0 0
191 209 1 -5.433683871421998 8.394631002973771 -7.538181797587923 0 0 0
187 210 1 -6.637533025359731 9.081414412537963 -7.36473121189628 0 0 0
195 214 1 -4.214713610460877 9.086393465579697 -7.459757829319352 0 0 0
199 176 1 -3.044633706898255 6.989228247462999 -7.6495508980227624 0 0 0
203 178 1 -1.840613857040571 4.8752487207788135 -7.540005859711574 0 0 0
201 179 1 -1.853528197570154 6.26465367774099 -7.406085806891599 0 0 0
207 180 1 -0.6565377183440639 6.975967432511812 -7.643463078602747 0 0 0
197 213 1 -3.023417600586728 8.396465590144771 -7.386934486614716 0 0 0
206 217 1 -0.6023116309929579 8.367312045335082 -7.455257978607427 0 0 0
202 218 1 -1.8224620455071883 9.093783849657237 -7.312865527904993 0 0 0
275 243 1 -11.653654268427776 -9.050594718440532 7.2630058524970575 0 0 0
277 244 1 -10.424087338036792 -8.42389654083339 7.46138610274059 0 0 0
279 247 1 -9.188753554255097 -9.114753961116703 7.365305515789928 0 0 0
281 248 1 -7.9278719566991205 -8.409458495179628 7.588439303022134 0 0 0
283 251 1 -6.7204287047415905 -9.124163134469347 7.546610819729405 0 0 0
285 252 1 -5.491217498219003 -8.409514640335265 7.646698447224405 0 0 0
287 255 1 -4.284598609076653 -9.039925410037522 7.400264983748536 0 0 0
321 281 1 -10.408439033564818 -7.02741915856758 7.334810245704357 0 0 0
315 282 1 -11.609371789106106 -6.315204426904245 7.569655733411404 0 0 0
316 283 1 -11.584234671201065 -4.93575291971189 7.610975984681316 0 0 0
332 285 1 -7.91729391956478 -7.006793232974641 7.472944118482818 0 0 0
326 286 1 -9.167401512337563 -6.335851001473155 7.5583730651527565 0 0 0
327 287 1 -9.124020933286824 -4.905005875720236 7.4169219630963035 0 0 0
347 289 1 -5.4771141641282775 -7.026564766179531 7.460731163294101 0 0 0
341 290 1 -6.694142236934173 -6.31211465867473 7.636274620864087 0 0 0
342 291 1 -6.727263254597273 -4.960954525656439 7.470540828750169 0 0 0
348 294 1 -4.288419099493086 -6.288621360407903 7.652655919745632 0 0 0
351 295 1 -4.271823504326672 -4.890810296238205 7.410034082716243 0 0 0
289 256 1 -3.0437312378646424 -8.35095672982082 7.355086866436797 0 0 0
291 259 1 -1.8169122765119248 -9.117747831610393 7.401669369911276 0 0 0
294 260 1 -0.600080422558839 -8.393745006202163 7.569944271772589 0 0 0
358 293 1 -3.052978260079016 -6.990361630430279 7.720302966722787 0 0 0
365 297 1 -0.6713690959629346 -6.990470948318071 7.479171312884463 0 0 0
359 298 1 -1.8530252979653141 -6.279767179963057 7.781558148607094 0 0 0
360 299 1 -1.8520398063854837 -4.881480232380909 7.714199415308357 0 0 0
322 284 1 -10.406536906625568 -4.209998332732065 7.399593270466108 0 0 0
333 288 1 -7.906859673219479 -4.185726241335503 7.6432530441463395 0 0 0
343 292 1 -5.474702202790509 -4.237816882393349 7.315647143597961 0 0 0
325 321 1 -10.290841895480446 -2.8311284813222124 7.640631993417802 0 0 0
318 322 1 -11.456334291104922 -2.048550133016988 7.706365599657203 0 0 0
320 323 1 -11.53318921656133 -0.6597468115088494 7.61251114070826 0 0 0
323 324 1 -10.29827668694609 0.029629275788895754 7.4310948368631475 0 0 0
334 325 1 -7.834363489168591 -2.8161496018515857 7.353372297762301 0 0 0
329 326 1 -9.068276354011504 -2.1327517834523313 7.296390010825212 0 0 0
331 327 1 -9.095787987265942 -0.732699948876458 7.51050948397248 0 0 0
335 328 1 -7.8669804060698905 -0.01879835446636784 7.341715375185382 0 0 0
344 329 1 -5.426089205905241 -2.8355011008177997 7.541423101412697 0 0 0
337 330 1 -6.654084863688753 -2.1027365243828027 7.605007629343087 0 0 0
340 331 1 -6.652016062505079 -0.7228989402260572 7.341991773665428 0 0 0
345 332 1 -5.458490955374359 0.009594437703120065 7.388245504418073 0 0 0
349 334 1 -4.228691765524951 -2.1135591439439794 7.330453125407917 0 0 0
353 335 1 -4.233609247552623 -0.7192393413251436 7.529371738953672 0 0 0
324 361 1 -10.293932246628925 1.4361984176952505 7.70594671542226 0 0 0
319 362 1 -11.461642137112248 2.2009638227089554 7.793397166140645 0 0 0
317 363 1 -11.480073300438857 3.5547577007207294 7.451408350334669 0 0 0
434 364 1 -10.270783291333464 4.207841958509413 7.243014666394158 0 0 0
336 365 1 -7.830551734242302 1.4241375531166514 7.575374645010768 0 0 0
330 366 1 -9.059418361080986 2.1279814301971998 7.482260610246011 0 0 0
328 367 1 -9.05187912525645 3.53325385282025 7.55936940138997 0 0 0
443 368 1 -7.8539532631494415 4.262080864441451 7.441377156686075 0 0 0
346 369 1 -5.439857850316215 1.4393598316889424 7.593112196335428 0 0 0
339 370 1 -6.644882811461055 2.1388054176626583 7.392825462249025 0 0 0
338 371 1 -6.693530894115706 3.559660864314989 7.588017469830319 0 0 0
450 372 1 -5.482856689913679 4.254189742027702 7.523535462861976 0 0 0
352 374 1 -4.233902458875585 2.1376400961390014 7.474990789468766 0 0 0
350 375 1 -4.244888561705199 3.542799240971469 7.664104301153987 0 0 0
354 296 1 -3.0774931158438976 -4.172424499617334 7.610494794126683 0 0 0
366 300 1 -0.6247011028907998 -4.1706739384677824 7.451364649931141 0 0 0
355 333 1 -3.0334592457900658 -2.800208749382372 7.299879768089279 0 0 0
356 336 1 -2.996119354636483 0.02013960446390439 7.286066859156061 0 0 0
367 337 1 -0.5608896342496146 -2.7791774792060333 7.536590088129772 0 0 0
362 338 1 -1.7917308838887527 -2.0894777188686025 7.33020934653065 0 0 0
364 339 1 -1.800524385188883 -0.67260358810341 7.5036035688547145 0 0 0
369 340 1 -0.6027018678013077 -0.02221546258101725 7.333347883635944 0 0 0
357 373 1 -3.011885084829779 1.4570795170188315 7.563918999018201 0 0 0
460 376 1 -3.0428647471075307 4.237566359383801 7.484240791965761 0 0 0
368 377 1 -0.5848939306867526 1.4083195879370105 7.409723770284118 0 0 0
363 378 1 -1.8019103588168965 2.1465912559401175 7.391731324757858 0 0 0
361 379 1 -1.8297135468590764 3.538969325222764 7.48533457949004 0 0 0
471 380 1 -0.6080010130392309 4.206157327990333 7.251830232420203 0 0 0
433 401 1 -10.253193370369958 5.636624338126539 7.207227629939075 0 0 0
429 402 1 -11.4101414805782 6.372683464561218 7.412039778197104 0 0 0
428 403 1 -11.509946168462733 7.734756047025278 7.69210975377049 0 0 0
432 404 1 -10.26805474916345 8.440015704292803 7.6842247263832615 0 0 0
442 405 1 -7.851351094971646 5.667558929312567 7.420430119231377 0 0 0
438 406 1 -9.048315016012024 6.332941556239093 7.484648002627723 0 0 0
437 407 1 -9.084658220906066 7.739417388389045 7.3218310266928155 0 0 0
441 408 1 -7.857308420952208 8.45130001842244 7.320058949720025 0 0 0
449 409 1 -5.433393502432691 5.66385550610374 7.788276305536939 0 0 0
446 410 1 -6.670363034844208 6.3488967585472 7.644474496652125 0 0 0
445 411 1 -6.6644140940973475 7.7406195421159065 7.408642253964235 0 0 0
451 412 1 -5.442198693329533 8.431279384723005 7.679015852293772 0 0 0
455 414 1 -4.224569990521928 6.353273233926197 7.7217571857822636 0 0 0
454 415 1 -4.2537607412568015 7.726594838220784 7.8655330379337425 0 0 0
431 441 1 -10.29851838516217 9.819175305375511 7.351452148039498 0 0 0
440 445 1 -7.835605432580607 9.83235826188814 7.571439969025351 0 0 0
452 449 1 -5.428163146232836 9.855767696916558 7.443704309550953 0 0 0
459 413 1 -3.020061969202101 5.6080313126067365 7.731598979988532 0 0 0
461 416 1 -3.0469204394163163 8.420385234435434 7.694422022341985 0 0 0
470 417 1 -0.5849921301728469 5.624197265488092 7.463562653366073 0 0 0
465 418 1 -1.8782301508502535 6.3360315194312955 7.39312799968589 0 0 0
463 419 1 -1.8931368699386155 7.6811535875495744 7.667833152629728 0 0 0
469 420 1 -0.6769261215621395 8.429354806347565 7.489635200239409 0 0 0
458 453 1 -3.018634534451156 9.824341466045045 7.855759692406467 0 0 0
468 457 1 -0.5997583745518527 9.807675729327128 7.675042078886301 0 0 0
8273 0 2 -14.102502217996566 -0.8009274470685611 0.4847540563769738 0 0 0
270 0 2 -5.230180455893282 7.39758062608036 4.594897166182792 1 0 0
63 0 2 -9.314172060522568 3.1005896101025963 -10.431284998492552 0 0 0
262 0 2 -3.9817587310403484 -1.7187844797600529 -4.560296291684346 0 0 0
251 0 2 -1.3561787140091264 2.6380252871340417 -10.626881129560001 0 0 0
168 0 2 -12.540271303788257 -4.722991710549691 -4.492306062511645 0 0 0
925 0 2 -3.4963901621782996 -6.781026618544163 -4.182904367211043 0 0 0
694 0 2 -4.5205813595352256 -9.815279645400501 -10.367609358619733 0 0 0
1403 0 2 -14.400976595523336 -8.991293087851679 -7.557128581102468 0 0 0
8104 0 2 -18.858476831810677 1.2303792319115399 10.780961526695348 0 0 0
1857 0 2 -9.666349006793201 5.62014112761895 -4.051037699993529 0 0 0
426 0 2 -3.1488154367247994 -1.2961563520500337 10.477756879542612 0 0 0
264 0 2 -0.6300574576122435 -1.2998679364865864 4.008597073992176 0 0 0
1584 0 2 -2.9585546456103353 6.708099938247795 10.68217698908238 0 0 0
938 0 2 -10.391916611888858 4.30699090420908 10.615757700571205 0 0 0
1725 0 2 -14.283291917122133 6.851356117922818 -6.134980601526884 0 0 0
675 0 2 -5.602749160517662 0.04695945193232033 -10.443458408674317 0 0 0
536 0 2 -9.298420692916727 -0.06928531065073078 -4.30026424720011 0 0 0
3002 0 2 -5.295621264476741 -9.853273200053941 4.136767053645179 0 0 0
539 0 2 -14.222447144339151 5.1247293047043145 7.074067500241337 0 0 0
1665 0 2 -1.6906668377318514 8.321661947746453 -10.549324585955846 0 0 0
1193 0 2 -10.287113843834353 -6.04531312392516 10.558028331877484 0 0 0
682 0 2 -9.834889509020904 8.554439773396174 4.272461964895639 0 0 0
555 0 2 -10.144731732243615 -1.4996257955031167 -10.606303614534546 0 0 0
612 0 2 -8.327572098852356 -6.81202417254206 -10.624474820757394 0 0 0
744 0 2 -8.341078968884526 3.0935095382407374 4.237800138110478 0 0 0
1696 0 2 -14.746479919282553 -8.038381486914728 7.292494108016841 0 0 0
8158 0 2 -22.783846491457712 -9.565472928717833 -6.669632389396893 0 0 0
814 0 2 -7.567582543535061 7.397490578364708 10.570115937565985 0 0 0
8173 0 2 -24.912323853028578 0.43640508796302147 -8.000795661392232 0 0 0
901 0 2 -7.677479608329949 -4.4973806541520585 -4.614168218435683 0 0 0
3752 0 2 -12.779795034639232 1.6273516814786864 4.797032040980696 0 0 0
1644 0 2 -4.116451516922808 -4.7853115441074285 -10.686043542468772 0 0 0
699 0 2 -8.71437996682486 -1.4813129548886113 10.64066005279902 0 0 0
8287 0 2 -24.052280829315997 9.27504481094654 7.211100169082865 0 0 0
1488 0 2 -14.080610613452363 2.9850088637933347 -8.936101984150984 0 0 0
809 0 2 -13.462803923495262 0.825125165203109 9.95809918162477 0 0 0
791 0 2 -5.587284625251758 -0.9053190645292476 4.1963040790385735 0 0 0
8117 0 2 -3.230985108233587 9.333167286751912 -0.10218480694972296 0 0 0
855 0 2 -5.345593168669695 2.783203335360386 10.592237841453207 0 0 0
8197 0 2 -28.82592271605564 -8.85956550708116 13.878605101759842 0 0 0
8150 0 2 -20.25305165276482 0.33405771648705235 5.2652895100477375 0 0 0
995 0 2 -14.362827196514399 -3.478613546105114 7.940815468628669 0 0 0
1022 0 2 -5.134067925079777 2.9038325087416292 -4.186988729578416 0 0 0
951 0 2 -14.079345108906278 9.346484636019271 5.821338605178349 0 0 0
733 0 2 -5.903287021190892 -5.921387551681637 10.533816635015812 0 0 0
3783 0 2 -13.917736029692744 -4.038944633001389 -9.30253014720137 0 0 0
3157 0 2 -10.447242858392988 -2.7046583729741513 4.2086962032731545 0 0 0
1109 0 2 -7.155580662869649 -5.437608536266197 4.391177199562944 0 0 0
8127 0 2 -26.728744779807286 0.1648028656293235 -14.230743682175552 0 0 0
949 0 2 -2.927951096700614 2.946473691369104 4.463562137070703 0 0 0
1969 0 2 -10.106851820922667 8.649333770496627 -10.969032496144404 0 0 0
559 0 2 -9.04601030066627 -8.946770045468567 -4.387066847654051 0 0 0
6333 0 2 -9.372512076601508 -8.931994115350491 4.2158295360643265 0 0 0
1246 0 2 -2.698626123370355 -5.567656936372166 4.621779783726759 0 0 0
827 0 2 -0.43717662506194627 -4.897165458209896 10.935129237101272 0 0 0
1493 0 2 -14.079160090755266 -0.42952378430128263 -5.495302781852026 0 0 0
259 0 2 -4.293907423673929 7.408609443301356 -4.435706442381124 0 -1 0
268 0 2 -0.7816436265720005 7.6607681848080595 4.433005164418914 0 0 0
829 0 2 -5.68847190106009 5.506869165882126 -10.53794062306264 0 0 0
8168 0 2 -25.71667941186823 -9.019463099916884 7.28688623289933 0 0 0
8270 0 2 -24.545060179974847 8.584152944828555 14.361991111530031 0 0 0
7981 0 2 -15.473863206033803 -6.392734941540954 1.310223024219095 0 0 0
7802 0 2 -11.641028574943318 5.383986056196074 0.7450351782049415 0 0 0
272 0 2 -2.158548296061155 -9.692838867655878 10.668378025533768 0 0 0
8222 0 2 -18.25946654351073 -7.583214695434188 -3.355478932036377 0 0 0
8208 0 2 -22.259644506202093 -3.6680890269942954 -13.230046374010245 0 0 0
7915 0 2 -16.78070255101658 -3.355492009886624 14.829755780897894 0 0 0
265 0 2 -0.10638635558985607 -9.20615551271788 4.237972892168306 0 0 0
8278 0 2 -2.784532224871499 -7.631558305862924 -14.96344009218987 0 0 1
8283 0 2 -23.836754522437566 2.772493558681508 9.40955316594598 0 0 0
172 203 1 -11.439459800647686 10.446588622803958 -7.8040933688444065 0 0 0
176 204 1 -10.253580653452284 11.138837996051546 -7.398101531828975 0 0 0
180 207 1 -9.106737717371372 10.44618586319486 -7.193999839256011 0 0 0
184 208 1 -7.870857834479509 11.164685303417516 -7.336322056628727 0 0 0
188 211 1 -6.647525827810794 10.485902833143419 -7.565404333873359 0 0 0
192 212 1 -5.434450752100804 11.20190786109963 -7.390853116036081 0 0 0
196 215 1 -4.241896641235624 10.497205738066304 -7.18301413173289 0 0 0
200 216 1 -3.0365126422746007 11.160427503285476 -7.50260823235216 0 0 0
204 219 1 -1.850429080282142 10.447172752358178 -7.597290759259226 0 0 0
205 220 1 -0.6178847422887287 11.145784549190951 -7.70285058869153 0 0 0
427 442 1 -11.501063579442949 10.509071480370752 7.304999473686137 0 0 0
430 443 1 -11.488471367575036 11.888074163223317 7.47742430653284 0 0 0
435 444 1 -10.281238281809834 12.608844192837598 7.454709733528527 0 0 0
436 446 1 -9.090810872931629 10.519944387231025 7.525590015398759 0 0 0
439 447 1 -9.090128125278813 11.874166586057338 7.237202939931303 0 0 0
444 448 1 -7.895954155700944 12.617361947747021 7.322304523145002 0 0 0
447 450 1 -6.654941906342839 10.53433474788285 7.339898023565721 0 0 0
448 451 1 -6.688739820609642 11.931073324417099 7.623713045883546 0 0 0
453 452 1 -5.474332912633693 12.64875960964612 7.4050751722809665 0 0 0
456 454 1 -4.257016115493699 10.547546391200902 7.77889099079887 0 0 0
457 455 1 -4.277282220049402 11.914660362991869 7.473865374222453 0 0 0
462 456 1 -3.059371949812404 12.600018931822738 7.657139031202589 0 0 0
464 458 1 -1.8248604131206012 10.528812391562827 7.617178481490997 0 0 0
466 459 1 -1.8516064520702389 11.946042172467997 7.7837289636767215 0 0 0
467 460 1 -0.5751249835995571 12.61963936457477 7.626866413851501 0 0 0
1677 0 2 -4.914978528610589 12.657780869330672 4.244893725643501 0 0 0
533 0 2 -5.3121952831403 10.681096855889466 -10.773465256948413 0 0 0
6042 0 2 -6.918516399078269 15.2988391876056 8.850872763063967 0 0 0
8078 0 2 -17.45545709025221 13.328683573864302 -4.117331055389083 0 0 0
8062 0 2 -10.158813371277068 26.549424057508595 -13.437398308883568 0 0 0
8268 0 2 -5.189303302746886 18.456138685925712 -10.603531598591507 0 0 0
7994 0 2 -4.7065241159230675 27.662209499536548 12.01780499232074 0 0 0
7699 0 2 -16.210239326395264 12.516142423057502 9.441955111309465 0 0 0
1578 0 2 -10.817371513382344 11.765793893080593 10.709687293913465 0 0 0
630 0 2 -5.443142584169449 11.490421601343117 10.846777224621617 0 0 0
1508 0 2 -9.245046665300457 14.540393501013856 4.791859496896113 0 0 0
1590 0 2 -4.025223970933134 14.242712194276077 -6.974432137944502 0 0 0
8094 0 2 -18.158081900220655 29.309097936309463 -5.319011582520963 0 0 0
8064 0 2 -19.465665559637532 11.261571486216196 -10.954279481569754 0 0 0
8015 0 2 -23.045258888616058 18.948081677371587 4.967770906287707 0 0 0
8215 0 2 -14.413096124767534 10.573422900069868 -14.848883487600222 0 0 0
2212 0 2 -8.610364170335679 12.622982566261962 -3.6812834500129656 0 0 0
8299 0 2 -28.27778003751641 28.370822905676143 8.966198323671826 0 0 0
889 0 2 -2.209645010987894 15.643458337333557 7.949848192451329 0 0 0
7620 0 2 -4.9633446677876485 15.746423953380598 14.41706028004874 0 0 0
2366 0 2 -14.214736382357872 12.16739113287087 -8.722888488382791 0 0 0
8122 0 2 -24.479867823492604 16.812054031586204 -3.192607443708756 0 0 0
4353 0 2 -8.880166451303447 13.70954878920321 -9.080267798362643 0 0 0
8009 0 2 -21.205188227051885 23.03734156372253 13.590913508231717 0 0 0
7992 0 2 -15.610997113566254 24.414216863897575 12.032473056725777 0 0 0
8284 0 2 -8.540612241467944 24.669567624315466 -7.851266187752133 0 0 0
8238 0 2 -1.5158275787566495 28.524356105788254 -4.533772864291848 0 0 0
8110 0 2 -0.5237337823342706 16.90405362639831 -1.6361079127125113 0 0 0
8198 0 2 -15.21400272356387 20.73400040315182 -10.167409942554496 0 0 0
8213 0 2 -19.989440585201958 29.514779176512512 -14.679819885239032 0 0 0
8189 0 2 -15.086310453199282 22.732844885276155 -1.0894124853834404 0 0 0
8199 0 2 -18.31385161785668 24.362407108776527 -12.260935910239366 0 0 0
8203 0 2 -1.8083010425526347 24.055806266757592 9.997922913036906 0 0 0
8211 0 2 -7.7645412836077385 22.912639135436677 10.412842753556934 0 0 0
8276 0 2 -11.30862472273628 27.649251443746415 -3.6759497516166664 0 0 0
8271 0 2 -6.338592472979006 22.74541763394926 2.5412407597103446 0 0 0
8286 0 2 -26.73334702975608 20.752147397982693 -13.647684045476755 0 0 0
8297 0 2 -28.587810968202817 20.70172091127509 0.3625252889417054 0 0 0
36 21 1 1.7849844674142479 -12.597437701698917 -7.5020044276515625 0 0 0
33 22 1 0.6489114801701368 -11.861767405372737 -7.157174801065059 0 0 0
32 23 1 0.6341576260301537 -10.48959490642541 -7.482626187847771 0 0 0
39 26 1 3.0290752210763197 -11.92004142520887 -7.511754928820627 0 0 0
38 27 1 3.096354706257141 -10.505433867295517 -7.639423432291529 0 0 0
40 25 1 4.198529927956208 -12.620543053674973 -7.841363768769133 0 0 0
48 29 1 6.6649105679430525 -12.659382540569034 -7.790914336630854 0 0 0
45 30 1 5.478136532647178 -11.968633190502198 -7.969457179500965 0 0 0
43 31 1 5.480008552180895 -10.589217051946576 -7.66987150437519 0 0 0
52 33 1 9.10758029199283 -12.701678366939754 -7.635379049318644 0 0 0
49 34 1 7.871444376392482 -11.98008552431955 -7.859268237724058 0 0 0
51 35 1 7.870698269959274 -10.63003113985275 -7.6052292822176675 0 0 0
58 37 1 11.394592806024969 -12.81821714773037 -7.184553372014696 0 0 0
55 38 1 10.283199089747834 -11.99802048207506 -7.3901943591806605 0 0 0
57 39 1 10.29943403966242 -10.645585429246163 -7.771818365918429 0 0 0
298 261 1 1.838752968727671 -11.20786195696739 7.35926191101272 0 0 0
296 262 1 0.5798357787888235 -10.51763175402774 7.452238597659545 0 0 0
300 266 1 3.052411642680061 -10.527257040786182 7.59882483339164 0 0 0
301 265 1 4.317013573849922 -11.205494790318882 7.494975730329523 0 0 0
306 269 1 6.738512729342561 -11.120223447973386 7.433578643759421 0 0 0
304 270 1 5.511524999057478 -10.492082355834018 7.603890565735695 0 0 0
309 273 1 9.158093790054275 -11.038594328606537 7.312197387092052 0 0 0
307 274 1 7.925635140139488 -10.418901852422994 7.215477092650036 0 0 0
313 277 1 11.604344982697391 -11.183598414812348 7.656315972793234 0 0 0
311 278 1 10.42393711499891 -10.499172632088614 7.135317082377902 0 0 0
5435 0 2 11.454803240092074 -12.995734434198775 10.521386622312782 0 0 0
8266 0 2 21.862906785191136 -16.72488543140596 -8.58390368275149 0 0 0