LAMMPS data file via write_data, version 29 Aug 2024, timestep = 150000, units = real

652 atoms
2 atom types
338 bonds
1 bond types
634 angles
1 angle types
1197 dihedrals
1 dihedral types
198 impropers
1 improper types

-30 30 xlo xhi
-30 30 ylo yhi
-30 30 zlo zhi

Masses

1 12.0107
2 2.016

Bond Coeffs # harmonic

1 469 1.4

Angle Coeffs # harmonic

1 63 120

Dihedral Coeffs # opls

1 0 7.25 0 0

Improper Coeffs # harmonic

1 5 180

Atoms # molecular

10847 0 2 -2.679629103187518 -20.521258657402452 -21.64139776914613 0 0 0
10329 0 2 -20.77764476856415 -13.930416732410713 -26.854254889698257 0 0 0
10178 0 2 29.500032886864915 -26.87551504933058 -13.773282308542065 -1 0 0
10286 0 2 -20.462446826628273 -11.493309196839233 -19.076632191958886 0 0 0
10731 0 2 -26.821512942157952 -0.9616523807350993 -28.92514645954131 0 0 0
10789 0 2 -15.185922308055217 -12.071400673239578 -28.060566260524944 0 0 0
10884 0 2 -12.551605215247973 -23.25672958012647 -29.268049484495425 0 0 0
10970 0 2 -15.790554715393949 -24.074334910245724 -14.930705702640706 0 0 0
10742 0 2 -15.527937510362179 -5.161591747506666 -22.350977845729425 0 0 0
10830 0 2 16.953610054840762 -28.05401401590389 -13.732746001948305 0 0 0
10460 0 2 -22.525979480777146 -18.2309146908736 -11.360927871480746 0 0 0
10643 0 2 -11.960713152762766 -27.9498662547492 -12.678305155387564 0 0 0
10855 0 2 -26.174670868676674 -17.9672891732547 -14.498434024236682 0 0 0
10773 0 2 -23.863182344328095 -9.026893871878162 -13.63548544931912 0 0 0
10779 0 2 -13.703259626625954 -12.119725048834392 -19.99546243702149 0 0 0
10551 0 2 -6.475294958796983 -9.4464317534394 -22.278791534360373 0 0 0
11000 0 2 16.7572189864845 -20.20663500507277 -12.536243457346169 0 0 0
10905 0 2 26.579934265442184 -4.026093367288867 -11.277543313420235 0 0 0
10908 0 2 -23.146885211415565 -25.229109920933283 -17.574338235504598 0 0 0
10804 0 2 -16.49978486906939 -19.222676381930743 -21.8720313891709 0 0 0
10818 0 2 -29.322590511018284 -3.043837673499517 -23.31570055208828 0 0 0
10954 0 2 -11.219464685001155 -10.529273091580908 -12.192663731730878 0 0 0
10322 0 2 -5.742539491904773 -3.7650776045774905 -27.260906667784965 0 0 0
10924 0 2 0.7114693539467778 -14.926773782523535 -24.264954967431848 0 0 0
10972 0 2 -7.856086511313429 -12.12143582620375 -27.11082581900782 0 0 0
10911 0 2 0.7332025520636564 -25.544692423655793 -19.71404234609756 0 0 0
10784 0 2 4.762702749788846 -20.418904922204483 -22.267720986534588 0 0 0
10517 0 2 -6.150576554270303 -27.30239112581294 -15.149845198902153 0 0 0
10728 0 2 -6.055174464455247 -17.795680364735638 -16.058175176885964 0 0 0
10957 0 2 21.82769083844993 -16.83563826404556 -16.672376498409662 0 0 0
10782 0 2 21.50976479497855 -5.019488761941905 -27.645550754537858 0 0 0
10610 0 2 12.601445468580465 -25.024783628058124 -16.15098450268125 0 0 0
10758 0 2 26.469446488030787 -7.638890021072327 -27.614123660914363 0 0 0
10833 0 2 2.5120231459100086 -28.97651988457338 -14.032927228512998 0 0 0
11002 0 2 17.070196942005357 -21.148274702666534 -23.965739312371436 0 0 0
10761 0 2 23.607789987665143 -10.851915396275045 -16.847302528437584 0 0 0
10820 0 2 11.836406549379513 -15.883391181800516 -11.026808681857137 0 0 0
10386 0 2 25.077848164303017 -0.9027785808881605 -19.330501240815806 0 0 0
10976 0 2 18.94714820033362 -8.73541379898962 -13.009187006757676 0 0 0
10752 0 2 24.946655436865022 -25.864654524587753 -11.147297765390432 0 0 0
10800 0 2 29.24191857270236 -15.15674884705606 -18.69803468574873 0 0 0
10902 0 2 -19.74162618813599 -16.799119502589956 -15.127801068373397 0 0 0
10364 0 2 19.010985286288236 -13.174878712473529 -20.149650589302016 0 0 0
11006 0 2 0.8733604485998107 -5.4839645362780445 -27.621389187753877 0 0 0
10898 0 2 13.777116391810335 -7.339466377822849 -26.947611934225208 0 0 0
10934 0 2 0.06517435746557561 -4.181502228902504 -19.7205953469991 0 0 0
10808 0 2 3.966152553301473 -10.411614801340624 -14.380527557088364 0 0 0
10482 0 2 -1.933156515505231 -11.778165263232625 -29.645684610480753 0 0 1
10858 0 2 -22.43879487475845 -3.401136003188964 -24.800216217348545 0 0 0
10876 0 2 -13.141470202334062 -0.6564061584035791 -14.843266219700364 0 0 0
10880 0 2 11.112900654715737 -3.334461990735058 -19.240965726753195 0 0 0
10883 0 2 -28.44256672767707 -22.873351158168596 -26.57548118508756 0 0 0
10891 0 2 13.338408812900289 -24.655476686271903 -10.55377444718643 0 0 0
10979 0 2 -28.428477229973463 -8.540024568885668 -25.717245234497675 0 0 0
10981 0 2 -12.509626212185163 -26.477059979126242 -25.30135710511118 0 0 0
10987 0 2 7.8445020193918324 -13.42529888808598 -11.263699866307432 0 0 0
10996 0 2 -25.174928858052386 -19.349791639196486 -29.54819968221557 0 0 0
10998 0 2 -7.545408453917954 -13.674293447229928 -19.72710147638734 0 0 0
41 1 1 -10.239977016442682 -11.939439261346823 0.045486358259003296 0 0 0
36 2 1 -11.466730296233218 -11.213227945103649 0.10708340892300328 0 0 0
32 3 1 -11.460870152297101 -9.8601688322192 -0.01763980374368505 0 0 0
37 4 1 -10.316329011125623 -9.105779276904073 -0.1662222066470994 0 0 0
38 41 1 -10.27368292700417 -7.733410831485613 0.2145427529310695 0 0 0
33 42 1 -11.510890911000628 -7.038213762559676 -0.03935793580964058 0 0 0
34 43 1 -11.446143218405426 -5.659206049536714 -0.04128719306289718 0 0 0
39 44 1 -10.315934885971979 -4.886120112109224 0.18950723536014186 0 0 0
40 81 1 -10.31636955276771 -3.426682429172353 0.1693037057475203 0 0 0
35 82 1 -11.519129844854453 -2.752635604603687 -0.15542464544263654 0 0 0
142 83 1 -11.562439290719254 -1.375057045638197 -0.18166640645416127 0 0 0
148 84 1 -10.372541311531576 -0.6423468148295466 -0.07945164874237856 0 0 0
1288 0 2 -14.454935104923887 -8.98183769965778 -0.3867987083471945 0 0 0
289 0 2 -13.458856800183984 -4.07729930910501 -2.148844902783621 0 0 0
4899 0 2 -12.532122205344507 -14.031341961527032 -0.6730155816000506 0 0 0
8851 0 2 -15.76551315019562 -7.003285687182088 5.469502144575151 0 0 0
10682 0 2 -15.437222647185045 -20.673502478720124 -0.8485349972225256 0 0 0
9910 0 2 -20.706911910493933 -6.534632545446353 2.4775798570655843 0 0 0
3774 0 2 -9.72559061309893 -0.3641498974640486 3.08012178318975 0 0 0
10935 0 2 26.059223601382428 -16.093055013867943 -6.092638795808001 0 0 0
9966 0 2 -14.341899728463265 -11.709091294908092 -8.113099858842274 0 0 0
10090 0 2 -12.851186346602445 -16.59136508245313 -6.596119012592011 0 0 0
10314 0 2 -16.639316732617292 -15.19364976823689 7.953248875227055 0 0 0
10881 0 2 7.704523203816808 -0.13591866832110316 -9.180556023377326 0 0 0
10282 0 2 -14.609027890605468 -24.66812235673368 5.817621196229822 0 0 0
11001 0 2 8.16409162401718 -26.13062533778898 6.776682002452308 0 0 0
10152 0 2 11.532467817255386 -5.318974081505661 7.668522638134612 0 0 0
10989 0 2 2.4513405702902786 -21.222256975570065 0.24225715422411645 0 0 0
10462 0 2 -25.986758491518785 -15.052258407648209 9.263933471324217 0 0 0
10427 0 2 -27.29126657243969 -17.229150785608624 1.676692945373127 0 0 0
10397 0 2 -16.679337697262905 -7.0453689215254975 -7.500476117953628 0 0 0
10842 0 2 -24.369761042977718 -21.560332002068552 2.8448483257674706 0 0 0
10913 0 2 -19.041119023381228 -15.202258950247659 -8.551174037379651 0 0 0
10766 0 2 -28.756186775435655 -7.257377697973025 -6.510387104834758 0 0 0
10850 0 2 3.7193168656208626 -12.676634022806722 8.675864191084582 0 0 0
10599 0 2 -10.152530257560642 -4.882784357631337 -8.517114022374358 0 0 0
10882 0 2 4.666888215980288 -7.293242925838758 8.947462091045555 0 0 0
10650 0 2 -21.663026489853387 -11.554448961040311 -1.0606211912042554 0 0 0
10694 0 2 -28.824490572772905 -20.586490811523756 -6.23008488498061 0 0 0
10929 0 2 20.245394966740452 -5.045490987342228 -8.624114777120583 0 0 0
285 0 2 -9.48224293767684 -0.6066049072390437 -3.2471156285297544 0 0 0
1281 0 2 -10.01667038142831 -5.72628567938103 3.2393213463477277 0 0 0
10600 0 2 7.377675314152578 -19.176576745392516 7.274570454592224 0 0 0
891 0 2 10.4779066902101 -2.737521173073192 3.108115317194794 0 0 0
10518 0 2 -8.814419209213966 -20.532919733627903 -1.940206806643367 0 0 0
1460 0 2 -9.74287888579905 -7.257054156901408 -3.3028959246417897 0 0 0
10872 0 2 24.49714488242513 -1.16654860226625 -4.241658593131974 0 0 0
10897 0 2 -17.476840797117873 -26.826133237537995 -4.727739773022672 0 0 0
300 0 2 -4.96942487381496 -0.6273264176373087 -3.456948854882639 0 0 0
856 0 2 9.545299029365612 -0.5317468828850368 -3.106212466663261 0 0 0
826 0 2 -0.5397080687888114 -0.41210744617094747 -3.3515000108401978 0 0 0
948 0 2 -9.964177972779469 -10.515225810453783 3.1036031163092415 0 0 0
291 0 2 -6.295559941443986 -3.2720751721641377 3.665319798729542 0 0 0
920 0 2 -7.475766813733363 -14.872569195018793 -0.6751571814214776 0 0 0
2249 0 2 9.160373707093909 -5.399378172672281 -3.256069124749513 0 0 0
942 0 2 -2.4919121456518982 -9.364008715608936 -3.232675105972718 0 0 0
299 0 2 -5.0219919719521435 -7.503669729125678 3.3502945226294965 1 1 0
51 5 1 -7.779015997468022 -11.867991034805362 0.08506027740166663 0 0 0
46 6 1 -9.017896490650028 -11.229802484151868 -0.27198202452823494 0 0 0
42 7 1 -9.085637668505424 -9.807379080476284 -0.09394496289465717 0 0 0
47 8 1 -7.83181606899752 -9.139286606445667 0.05833682298384219 0 0 0
61 9 1 -5.358423693564783 -11.883664177874829 0.04107707524484703 0 0 0
56 10 1 -6.583767413822841 -11.23418872880362 0.26163051183657016 0 0 0
55 11 1 -6.60419057864015 -9.904593567468165 -0.0883030493691935 0 0 0
60 12 1 -5.434524591750817 -9.12185068298909 0.037358016244459405 0 0 0
66 14 1 -4.223539218712395 -11.156286283169703 -0.2566892822238573 0 0 0
65 15 1 -4.2326197812126685 -9.797429092047944 0.06690774176022474 0 0 0
48 45 1 -7.831590102042297 -7.723139947551622 -0.10039667011898151 0 0 0
43 46 1 -9.007114080100362 -7.047673582061105 0.1885927252357444 0 0 0
44 47 1 -9.086622482963223 -5.610184175767073 -0.006894907779008856 0 0 0
49 48 1 -7.8603038266596 -4.921288219254709 0.12754816533884655 0 0 0
59 49 1 -5.433115301486777 -7.7011783519525245 -0.12577225664873548 0 0 0
53 50 1 -6.665680906691977 -7.028522410774106 0.005927242460074243 0 0 0
54 51 1 -6.6499997299765825 -5.6163254093881765 -0.089078798013538 0 0 0
57 52 1 -5.409095195956962 -4.915001340217326 -0.050855129830256154 0 0 0
62 54 1 -4.214736864632577 -7.002384426638243 -0.07487571001070581 0 0 0
64 55 1 -4.244562362630757 -5.595911405681604 0.23607425870546636 0 0 0
71 13 1 -2.9782231888197193 -11.857734861463996 -0.33546337193023595 0 0 0
67 16 1 -2.9961864049567066 -9.130699427103854 -0.04089249968519921 0 0 0
77 17 1 -0.5362082740173757 -11.86682665330489 -0.16077010580865658 0 0 0
75 18 1 -1.7205847507918295 -11.17700354604173 -0.3433316978224098 0 0 0
73 19 1 -1.7634315784064638 -9.803989135007605 0.015850021719828064 0 0 0
78 20 1 -0.551446948230576 -9.115934491044833 -0.145026052675014 0 0 0
91 21 1 1.8032756588041432 -11.848853595158545 0.30222620361904123 0 0 0
86 22 1 0.5941365549894417 -11.133367625696478 0.16824119629809225 0 0 0
85 23 1 0.6822401567655585 -9.814136967535287 -0.1266796878361873 0 0 0
90 24 1 1.8876717057439372 -9.126736009468333 0.16149865152264303 0 0 0
97 26 1 3.0959460775780183 -11.276129758204489 0.3348500725952937 0 0 0
96 27 1 3.076175653085558 -9.870987750438662 0.03336145134623357 0 0 0
70 53 1 -3.012239061089508 -7.754048617928522 0.23103575892119757 0 0 0
68 56 1 -3.019090911603872 -4.898446891954121 0.34503129588710035 0 0 0
79 57 1 -0.5608396180185686 -7.669010647241853 -0.0749800268607059 0 0 0
72 58 1 -1.794123499826377 -6.9894682037526445 0.18709697287120755 0 0 0
74 59 1 -1.8000102399619964 -5.592133333895327 0.109578967713675 0 0 0
80 60 1 -0.5846399709908281 -4.883572834173091 0.22446783897892847 0 0 0
89 61 1 1.8736245369056 -7.720489987317902 -0.06455919002683821 0 0 0
84 62 1 0.6547620249532314 -7.01074882577718 0.22870656035879094 0 0 0
83 63 1 0.6308977586307525 -5.598095321998526 0.32273661908218315 0 0 0
88 64 1 1.8381419912158978 -4.908370165494482 -0.013131331127287135 0 0 0
95 66 1 3.0895147581171485 -7.076860881911906 0.2083468498815747 0 0 0
94 67 1 3.057535403383213 -5.67408926666536 0.0048882734083732626 0 0 0
98 25 1 4.3000949306585285 -12.03095183711571 0.2055397212620471 0 0 0
102 28 1 4.289454406364439 -9.146099045549587 -0.0321658514439431 0 0 0
112 29 1 6.719281032026447 -11.963557200658604 0.2524775672034809 0 0 0
107 30 1 5.479275223618577 -11.246647696112039 0.3748955319324565 0 0 0
103 31 1 5.457915328149221 -9.877319230812587 0.021495204719690898 0 0 0
109 32 1 6.644641161466594 -9.157491610447423 0.2404805963034742 0 0 0
118 33 1 9.150804971783991 -11.885641875928721 -0.14566671758342525 0 0 0
113 34 1 7.9469145544040956 -11.261332873440967 0.31288955060541646 0 0 0
117 35 1 7.869215729648056 -9.852603963583014 0.06575720139568748 0 0 0
122 36 1 9.099381703376592 -9.080289339672227 0.04594701884689733 0 0 0
101 65 1 4.287361241851952 -7.7393824942084 -0.019425916912187185 0 0 0
100 68 1 4.310587331653483 -4.927420372233293 -0.023886815056382817 0 0 0
108 69 1 6.691072207952507 -7.732829284455004 0.04090421905013587 0 0 0
106 70 1 5.48833158561615 -7.020227691600632 0.21601965200609308 0 0 0
105 71 1 5.4815107073812515 -5.583606993621248 0.2579703377682278 0 0 0
111 72 1 6.705533080687935 -4.870016338236647 0.1867311937169097 0 0 0
121 73 1 9.118560653783764 -7.677269442194551 -0.1094523209432941 0 0 0
116 74 1 7.885101867649414 -7.021230803164601 0.1686639362953301 0 0 0
114 75 1 7.8714084636593995 -5.6091527002991635 -0.04203547566035974 0 0 0
120 76 1 9.092329379899942 -4.872573431516487 -0.029284532434380606 0 0 0
50 85 1 -7.873909500210299 -3.497468285225941 -0.09154781293389044 0 0 0
45 86 1 -9.064732440992454 -2.7328460143966207 0.15176872017470555 0 0 0
155 87 1 -9.128730964812382 -1.3544621556215075 -0.16067090083921498 0 0 0
163 88 1 -7.882340629532948 -0.6880921113381571 -0.04842972374535879 0 0 0
58 89 1 -5.437768613126211 -3.5254583985385897 0.21771202887085137 0 0 0
52 90 1 -6.637187380797026 -2.838964505807894 -0.01319015272670174 0 0 0
166 91 1 -6.663499969719065 -1.450407203835054 0.21622365062738447 0 0 0
175 92 1 -5.426477285419415 -0.7401538281357039 0.2618933179039801 0 0 0
63 94 1 -4.218981716932155 -2.7951962064180673 0.2964229730427192 0 0 0
182 95 1 -4.205493777420864 -1.396732139125057 0.09993763229158552 0 0 0
69 93 1 -3.0283103578493193 -3.483685744397763 0.056505483044027284 0 0 0
190 96 1 -3.013624992324852 -0.6490613440956596 0.08307646961153242 0 0 0
81 97 1 -0.6060986773103775 -3.526396916906025 -0.0960106323614946 0 0 0
76 98 1 -1.8125243063549807 -2.7891658680535194 0.01204539164791397 0 0 0
198 99 1 -1.8028167986134347 -1.368140205376266 -0.17430341376405217 0 0 0
205 100 1 -0.5741471883258616 -0.6935537783317798 -0.004647226932181813 0 0 0
87 101 1 1.8922469188655564 -3.485621160660917 -0.1114787485718506 0 0 0
82 102 1 0.623181296415178 -2.8158002477247828 0.052556563105629846 0 0 0
208 103 1 0.5837322660705491 -1.4272255408173604 -0.20647689053059665 0 0 0
214 104 1 1.8201419510375443 -0.7213394049617606 -0.17715387108034278 0 0 0
93 106 1 3.1339948118883356 -2.814464184473818 -0.15720585619447833 0 0 0
222 107 1 3.037651958328463 -1.4405371480012052 0.03174284606026736 0 0 0
99 105 1 4.310044789024994 -3.5176600068736295 0.10339383046620447 0 0 0
229 108 1 4.281152430086078 -0.7091432462284022 0.09220848288926563 0 0 0
110 109 1 6.7504282450112845 -3.465363686826731 0.016669006424445392 0 0 0
104 110 1 5.522119939156836 -2.810854555834689 0.14179512060369218 0 0 0
236 111 1 5.489207008865281 -1.432074333322501 -0.06699093899391326 0 0 0
244 112 1 6.693494090439968 -0.704890088699583 -0.04397338434058385 0 0 0
119 113 1 9.123976217831853 -3.4836357165534704 -0.1972298780211528 0 0 0
115 114 1 7.97120460095546 -2.775218293265897 0.05420822293403387 0 0 0
252 115 1 7.936193261708664 -1.359047111926676 -0.12631079504626078 0 0 0
258 116 1 9.153117616048728 -0.6838434014724744 0.23286911756516118 0 0 0
29 0 2 -4.229299564649819 -11.814243425629092 3.002961638377174 0 0 0
284 0 2 5.096689657991191 -14.99550982211277 -0.7021013367291922 0 0 0
307 0 2 2.8444074114495836 -4.164734807226858 3.0362674816663193 0 0 0
16 0 2 0.1897695788586467 -5.415763622571295 -2.977457903581793 0 0 -1
297 0 2 -1.664210357022457 -3.8728051610932965 3.1764854215367295 0 -1 -1
360 0 2 2.640486432768605 -10.514287188679367 -3.2749063620124685 0 0 0
563 0 2 -5.130897499662813 -5.321181263240663 -3.102320109617585 0 0 0
595 0 2 4.866902646469993 -6.381478605158503 -2.881520317460897 0 0 0
744 0 2 4.484734574688966 -9.644977052100874 3.129390928407126 0 0 0
290 0 2 7.204590895033791 -5.5549153715643795 3.3871465036714206 0 0 0
1807 0 2 -0.20410964989004315 -8.097659265577603 3.2266567185594033 0 0 0
2151 0 2 1.2626744185922778 -13.725400352311906 2.7683881648531754 0 0 0
4463 0 2 -0.4030624358287415 -14.782006655791202 -1.4043427963260693 0 0 0
1190 0 2 4.794541284445257 -2.250615460760912 -3.055107676294933 0 0 0
5958 0 2 -6.80387685625516 -11.111247600499205 -2.938983149713045 0 0 0
10904 0 2 23.549028309511826 -12.76117325097542 -9.63152436251199 0 0 0
498 0 2 7.930205598168497 -14.195530853705506 2.788405298610947 0 0 0
9812 0 2 7.236332291529349 -24.24430255125198 2.092583011684539 0 0 0
10874 0 2 26.93251796046243 -13.146089662618982 0.022145022772913036 0 0 0
1748 0 2 8.19341414755398 -10.333392458880304 -3.1259940224842997 0 0 0
10312 0 2 -2.43063086689155 -19.290702807146292 0.47292143866775194 0 0 0
724 0 2 9.60763415440096 -9.042035776550865 3.077878193274385 0 0 0
10495 0 2 -2.3836220399426824 -25.759925312350877 -5.694354126310144 0 0 0
10378 0 2 16.710729399808987 -12.402884716798901 -6.806273533814149 0 0 0
10750 0 2 8.839813072773207 -7.373298439596189 -7.614084638739182 0 0 0
10629 0 2 21.275370998006796 -18.499104983877565 7.267959144263611 0 0 0
10815 0 2 28.18400294101193 -22.046370174530512 -1.163625422777366 0 0 0
10984 0 2 28.954411812490573 -5.060522041491542 2.155772617741147 0 0 0
10729 0 2 21.52191283387679 -22.19570919194996 -6.453247113878487 0 0 0
2701 0 2 10.747903644207438 -14.47545025641941 -1.9413968850820416 0 0 0
10953 0 2 2.287734842170437 -15.620261174696319 -8.36282610422964 0 0 0
10448 0 2 22.254567347271983 -5.522910497180059 -1.3474805219294594 0 0 0
3018 0 2 14.086831842359802 -10.030150624882477 0.9550391525095783 0 0 0
10671 0 2 19.693390926080525 -15.655718373084524 -1.8457605004432212 0 0 0
132 40 1 11.476940092645624 -9.074946544132873 -0.440151385704012 0 0 0
3711 0 2 13.805394700915258 -6.060415562756836 -1.9108839870526366 0 0 0
123 118 1 10.356312656008127 -2.79778213591598 -0.3154400968795446 0 0 0
124 79 1 10.312463750745756 -5.616325071277402 -0.1482679375209269 0 0 0
427 0 2 14.108763700112773 -2.0010353088322654 -0.6573686042729616 0 0 0
126 78 1 10.34065536509292 -6.999970591383987 0.013869205643163837 0 0 0
131 77 1 11.51807479164639 -7.71373111132531 -0.2367726692116571 0 0 0
264 119 1 10.344672391337737 -1.43720119280222 0.1350831100106047 0 0 0
271 120 1 11.444672688688327 -0.6548437438483093 -0.09402492909966852 0 0 0
130 117 1 11.584701277494405 -3.4547334006682138 -0.25019264725125934 0 0 0
127 39 1 10.31969301951947 -9.805986108356326 -0.06975899405952346 0 0 0
10140 0 2 12.996408948222033 -29.76290254240967 9.213201598594912 0 1 0
10873 0 2 23.958331796857173 -8.123276286994725 -7.307594363482996 0 0 0
129 80 1 11.508039576412378 -4.876184948493765 -0.17506952294602626 0 0 0
128 37 1 11.510616538589883 -11.740850505065115 -0.3356692901629517 0 0 0
125 38 1 10.29497086843756 -11.1748165086413 -0.4891903021424209 0 0 0
10966 0 2 16.24569215221014 -8.02284587557752 -6.323289122762443 0 0 0
10977 0 2 -25.103020517907733 -26.890823540590944 2.3877009135449083 0 0 0
10730 0 2 -5.414880943852554 -29.610928144359796 9.93110598574064 0 0 0
10358 0 2 -4.0761418343275695 -12.668791248923252 -9.936090497596552 0 0 0
10983 0 2 16.306723919314226 -1.9624356787659707 4.993756867852653 0 0 0
9860 0 2 -25.469097697654373 -10.19550314836541 21.407214905784762 0 0 0
10656 0 2 -16.414549302078182 -14.465544185206998 23.510864116418684 0 0 0
10942 0 2 11.454224515084054 -11.092765616827917 20.491709779665097 0 0 0
10950 0 2 26.121847011272845 -1.3584445496561564 14.870986228281668 0 0 0
9876 0 2 -21.136317306814377 -3.6630703544539553 17.587495392848247 0 0 0
10381 0 2 -22.35807311103646 -27.64750382378334 18.64537568796654 0 0 0
10451 0 2 -22.67235968750811 -25.824944755102273 24.522181014571363 0 0 0
10895 0 2 -22.28052424323483 -13.832151024675765 24.62703060118082 0 0 0
10436 0 2 -18.870243781646863 -2.0281427065145587 27.608637982041703 0 0 0
10764 0 2 -19.217528361166096 -0.83525851175202 11.283637560977049 0 0 0
10542 0 2 -26.462256087963212 -18.3546914491239 21.67763509369813 0 0 0
10961 0 2 28.618733578142532 -18.694020380341275 24.30868277209884 0 0 0
10861 0 2 5.220173104806858 -1.7865678394916034 26.415264628643495 0 0 0
10590 0 2 -20.337300884754637 -7.597219041893973 25.786529180443424 0 0 0
10591 0 2 -25.595389258568567 -16.839252276677016 15.67408436543459 0 0 0
10879 0 2 -17.33908692808773 -25.120003737669805 10.326367990429492 0 0 0
10967 0 2 -4.8408055552774645 -27.689109423222494 23.588585721157877 0 0 0
10875 0 2 1.110540816216611 -21.776788798562013 17.61186526003386 0 0 0
10556 0 2 7.123370585032685 -16.426391533930826 18.046762217887675 0 0 0
10797 0 2 27.594525385105996 -3.9189138863875312 27.793544804834593 0 0 0
10114 0 2 -3.438527866605666 -4.34830341585058 26.647804586603495 0 0 0
10450 0 2 6.1218520385806405 -14.396976470829088 29.590522382875807 0 0 -1
10933 0 2 -17.963948548790473 -19.66007370472044 22.247144059603425 0 0 0
10796 0 2 28.03064522413565 -28.43598946132318 18.621557222306446 0 0 0
10124 0 2 5.372426773215639 -19.430571178062195 23.6052002818617 0 0 0
10137 0 2 -1.260975945612891 -3.759706202922797 13.563615803142616 0 0 0
10258 0 2 0.17075724358822997 -8.308275866206433 23.432668025331488 0 0 0
10974 0 2 20.211220532877626 -3.9168306897225493 26.45592699693435 0 0 0
10810 0 2 29.503718989362028 -26.87261676102057 12.99321495741463 0 0 0
10577 0 2 -0.39085883813988187 -22.988241428848642 28.967401107952895 0 0 -1
10467 0 2 -10.935572084932476 -29.335330960997176 25.454746412621578 0 1 0
10506 0 2 13.026500234000295 -26.939817182704342 26.758460597735468 0 0 0
10670 0 2 26.495258764263458 -12.006614785349978 13.926340083172468 0 0 0
10646 0 2 14.272651908840436 -9.11563646298917 12.804290179700208 0 0 0
10793 0 2 28.71135256380046 -5.795031923183002 12.7167899099776 0 0 0
10843 0 2 -28.332656555304755 -8.851929350459798 27.677731036566282 0 0 0
10921 0 2 23.02962131950815 -7.869201350486026 27.725201919993278 0 0 0
10172 0 2 15.91379504351772 -11.966817163566795 27.745065473559077 0 0 0
10943 0 2 -7.251259904766027 -23.65114673891142 16.486715112884607 0 0 0
10075 0 2 16.69236626973787 -13.97290349637824 16.513586690962693 0 0 0
10637 0 2 18.410550837188545 -26.727128964273447 15.428044424113624 0 0 0
10982 0 2 1.9952436246567862 -24.73107527274941 23.384809819547616 0 0 0
10711 0 2 24.17488254855011 -28.41243956093329 23.91187057677976 0 0 0
10469 0 2 20.45424601787271 -21.077293445671362 16.41811507381823 0 0 0
10490 0 2 16.96557692078475 -24.792386304585357 21.49051419992428 0 0 0
10273 0 2 29.065543545543367 -21.615985609671345 16.487829140843566 0 0 0
10857 0 2 17.71683294202332 -3.0216792027972845 20.16899503532528 0 0 0
10823 0 2 -5.488372645960152 -8.606886202374842 22.287117515233444 0 0 0
10854 0 2 5.992982477309465 -29.688405587035597 18.621625868593313 0 0 0
10811 0 2 6.031284416536654 -23.769101662011625 13.663636556131525 0 0 0
10737 0 2 -29.905201024457096 -13.49009878666346 23.04534076033907 1 0 0
10837 0 2 -25.154395221492216 -2.2050946793019857 13.536049394461381 0 0 0
10851 0 2 -24.94527437023084 -25.952649064047012 11.733706323629015 0 0 0
10993 0 2 -11.17970596748946 -16.19802999882081 10.788891174636605 0 0 0
11003 0 2 -12.798155116006065 -21.8254743908743 16.07136277179258 0 0 0
10399 0 2 9.225125981986219 -9.10830492563857 29.880840419428228 0 0 -1
9878 0 2 -28.19033063517546 26.748933607550285 -15.242750379810603 0 0 0
10912 0 2 0.09554734200484671 8.991053824818097 -29.778025070149035 0 0 0
10119 0 2 -27.450775552198653 20.692035483377985 -17.868213042127955 0 0 0
10900 0 2 -22.432114512250003 9.26662219985174 -22.378613806461207 0 0 0
10856 0 2 22.727390823919645 15.167836709560962 -22.18877793231176 0 0 0
10691 0 2 -18.998257187312998 26.88925776899619 -10.06881283275999 0 0 0
10514 0 2 -15.675514355677993 4.560527537408962 -26.71614923943902 0 0 0
10919 0 2 0.20845881476196984 13.391760145216317 -12.42554597751125 0 0 0
10835 0 2 3.543396472031805 17.912382908473077 -11.240759153148709 0 0 0
10189 0 2 25.58522980105503 12.365697134530597 -28.053256890096954 0 0 0
10889 0 2 5.341596802246104 0.15846209088846044 -14.095921534417416 0 0 0
10747 0 2 -29.730973341193543 13.595979558466897 -22.017273660833023 0 0 0
10848 0 2 6.547670198810411 12.249827629227939 -13.81525772656283 0 0 0
10892 0 2 14.649075735058098 15.409516728621409 -13.276742152948877 0 0 0
10896 0 2 24.77999549153475 22.097048451612974 -16.002975681221972 0 0 0
10668 0 2 8.572546110752068 25.535148312685546 -13.568727472597816 0 0 0
10736 0 2 -2.211186137850274 8.029886604882241 -23.56720486296619 0 0 0
10870 0 2 -18.20224792770519 20.29548265182165 -29.56100697728891 0 0 0
10841 0 2 26.106604408973514 28.63477205371477 -14.284238245540502 0 0 0
10999 0 2 10.805022954212417 25.01243919303456 -20.51617403778223 0 0 0
10546 0 2 3.9859251852690436 10.429879816511454 -18.648499880772437 0 0 0
10547 0 2 -1.0824209591631107 29.85761513282992 -26.687907254381674 0 0 0
10819 0 2 -10.923902880702437 10.54876774623368 -15.402760839808881 0 0 0
10906 0 2 0.3921494537647643 2.645385279271878 -19.53717178082405 0 0 0
10584 0 2 3.4220683629217117 5.5426332897967825 -14.657740869228256 0 0 0
9702 0 2 0.7632611646993428 1.6958976693302732 -26.717291596894462 0 0 0
10062 0 2 -10.043273691637447 12.253940353435844 -25.633126407118347 0 0 0
10032 0 2 -1.2967767960045231 14.709125393466945 -22.175532274650887 0 0 0
10227 0 2 9.05299804832083 4.7565708019298105 -13.837034866772132 0 0 0
10888 0 2 -13.237776932112082 20.68453133457525 -14.457285348314604 0 0 0
10507 0 2 3.554309621487809 7.151119996168048 -23.0929324158072 0 0 0
10907 0 2 9.484211048722111 8.190813132696398 -22.30360891374871 0 0 0
10633 0 2 -9.607964551711635 4.33370822142774 -15.021238680560735 0 0 0
10705 0 2 -3.0771946515246356 5.979609675944793 -10.379757333408309 0 0 0
10995 0 2 22.31679313980976 20.150251153107444 -24.949615341338824 0 0 0
10781 0 2 -2.093322097241779 27.552018607200242 -13.88432184636294 0 0 0
10947 0 2 5.941871653612394 0.970926557239524 -23.63155104475322 0 0 0
10579 0 2 26.65151114518954 7.5576539139350585 -21.9355045079004 0 0 0
10928 0 2 19.69452807616299 8.934032263708483 -11.612723173336281 0 0 0
10778 0 2 14.315339700273677 29.941314539061224 -28.451417652865295 0 0 0
10627 0 2 17.876734506089292 24.562218304166272 -23.54556756285983 0 0 0
10745 0 2 20.13558188488668 16.856258119959207 -10.966103876667148 0 0 0
10910 0 2 -14.761461174539608 16.374152081115994 -25.915704119259242 0 0 0
10713 0 2 16.043937470552383 3.6830465584897913 -12.51309428898498 0 0 0
10620 0 2 -22.288992855321393 29.884258973034623 -21.79452633364958 0 -1 0
10952 0 2 17.09325279227542 24.642024212883587 -29.141506489465225 0 0 0
10709 0 2 16.88618519480621 21.489354662030813 -14.775479106269836 0 0 0
10968 0 2 -6.110987907192433 11.074069073130497 -15.984220672779687 0 0 0
10973 0 2 2.581401413795574 17.256858318241207 -26.684557941884112 0 0 0
10866 0 2 -19.644228330853895 29.540571529128442 -29.36877971162784 0 0 0
10868 0 2 -13.756677630701722 10.636242450944742 -29.03423209192083 0 0 0
10936 0 2 -28.994738691635774 25.030642382652953 -29.843003244635256 0 0 0
10937 0 2 18.39756204620346 2.934779358287338 -26.833659221423503 0 0 0
10944 0 2 14.318570366017031 0.7086763961857742 -18.768925182008957 0 0 0
10946 0 2 3.2345637652705066 13.187637667911723 -29.579693662092097 0 0 0
10960 0 2 -5.079397906926828 18.558443187471312 -20.85197368539147 0 0 0
10975 0 2 14.659965460693314 12.04899707381216 -19.51999433835609 0 0 0
10978 0 2 -12.87431385233552 24.832947503842433 -22.85751019786666 0 0 0
10985 0 2 -8.680571611868167 24.54676915409099 -15.72769557301681 0 0 0
10986 0 2 4.994574808336457 14.182044904837825 -22.11540408821158 0 0 0
10988 0 2 -18.219854844628564 23.821678605470737 -21.4253611350793 0 0 0
10991 0 2 -13.221371313889392 9.116402840660024 -19.674992523135774 0 0 0
10992 0 2 -26.717231535264713 20.658171450337232 -27.21012241175371 0 0 0
10994 0 2 14.39029807607565 4.471540304037466 -23.7196048368165 0 0 0
11007 0 2 25.417084531082715 26.89888619573035 -26.589227184487928 0 0 0
11009 0 2 3.8959856972612315 23.502093428463226 -16.81543200589047 0 0 0
147 121 1 -10.315707417910872 0.750306909403996 -0.13734210877790012 0 0 0
141 122 1 -11.496884394875565 1.5100201501076218 0.005115211322673542 0 0 0
140 123 1 -11.549110147239158 2.914408221624216 0.002998680925890075 0 0 0
149 124 1 -10.290603034663999 3.531363346925746 -0.021031516216071137 0 0 0
146 161 1 -10.316102229238876 4.9542008896986305 0.316960438787811 0 0 0
139 162 1 -11.53221445081424 5.713756249976567 0.024711064219664104 0 0 0
138 163 1 -11.54268739585569 7.122423229279418 0.08044402887278049 0 0 0
145 164 1 -10.274824413445081 7.76236360576846 0.12059477887364263 0 0 0
144 201 1 -10.264685604663793 9.16654947330288 -0.26123868635642933 0 0 0
137 202 1 -11.44821874304011 9.934168152049871 -0.07530872107235702 0 0 0
143 203 1 -11.47065186613059 11.341380492855063 -0.0572659861611412 0 0 0
150 204 1 -10.232867908451045 12.002649523847525 0.018424526718557058 0 0 0
1295 0 2 -14.368977284253122 7.942149952456178 0.9359702517314438 0 0 0
1384 0 2 -13.183609323616151 14.086464888148841 0.6138983849091539 0 0 0
4715 0 2 -13.799970490698739 3.915138258116744 -1.9186120106420594 0 0 0