
     Program PWSCF v.7.3.1 starts on  8Aug2024 at  0:26:11 

     This program is part of the open-source Quantum ESPRESSO suite
     for quantum simulation of materials; please cite
         "P. Giannozzi et al., J. Phys.:Condens. Matter 21 395502 (2009);
         "P. Giannozzi et al., J. Phys.:Condens. Matter 29 465901 (2017);
         "P. Giannozzi et al., J. Chem. Phys. 152 154105 (2020);
          URL http://www.quantum-espresso.org", 
     in publications or presentations arising from this work. More details at
     http://www.quantum-espresso.org/quote

     Parallel version (MPI & OpenMP), running on       4 processor cores
     Number of MPI processes:                 2
     Threads/MPI process:                     2

     MPI processes distributed on     1 nodes
     2441 MiB available memory on the printing compute node when the environment starts

     Reading input from hydrogen_absorption8.in

     Current dimensions of program PWSCF are:
     Max number of different atomic species (ntypx) = 10
     Max number of k-points (npk) =  40000
     Max angular momentum in pseudopotentials (lmaxx) =  4

     File ../results/8h2_abs/8H2abs_C.update deleted, as requested

     File ../results/8h2_abs/8H2abs_C.bfgs deleted, as requested

     IMPORTANT: XC functional enforced from input :
     Exchange-correlation= LDA
                           (   1   1   0   0   0   0   0)
     Any further DFT definition will be discarded
     Please, verify this is what you really want


     R & G space division:  proc/nbgrp/npool/nimage =       2
     Subspace diagonalization in iterative solution of the eigenvalue problem:
     a serial algorithm will be used


     Parallelization info
     --------------------
     sticks:   dense  smooth     PW     G-vecs:    dense   smooth      PW
     Min        1203     477    120               118375    29898    3700
     Max        1204     478    121               118386    29913    3709
     Sum        2407     955    241               236761    59811    7409

     Using Slab Decomposition


     Title: 
     8H2_absorption_C                                                           


     bravais-lattice index     =            0
     lattice parameter (alat)  =       8.0000  a.u.
     unit-cell volume          =    1752.8262 (a.u.)^3
     number of atoms/cell      =           40
     number of atomic types    =            2
     number of electrons       =       112.00
     number of Kohn-Sham states=           67
     kinetic-energy cutoff     =      40.0000  Ry
     charge density cutoff     =     400.0000  Ry
     scf convergence threshold =      1.0E-06
     mixing beta               =       0.0500
     number of iterations used =            8  local-TF  mixing
     energy convergence thresh.=      1.0E-04
     force convergence thresh. =      1.0E-03
     press convergence thresh. =      5.0E-01
     Exchange-correlation= LDA
                           (   1   1   0   0   0   0   0)
     nstep                     =           50


     celldm(1)=   8.000004  celldm(2)=   0.000000  celldm(3)=   0.000000
     celldm(4)=   0.000000  celldm(5)=   0.000000  celldm(6)=   0.000000

     crystal axes: (cart. coord. in units of alat)
               a(1) = (   1.171624  -0.000019  -0.003802 )  
               a(2) = (  -0.585823   1.014751   0.000357 )  
               a(3) = (   0.004577   0.003530   2.879529 )  

     reciprocal axes: (cart. coord. in units 2 pi/alat)
               b(1) = (  0.853518  0.492743 -0.001961 )  
               b(2) = (  0.000012  0.985470 -0.001208 )  
               b(3) = (  0.001127  0.000529  0.347277 )  


     PseudoPot. # 1 for C  read from file:
     /home/edoardocabiati/.burai/.pseudopot/C.pz-n-rrkjus_psl.0.1.UPF
     MD5 check sum: a3cecbabebb5b3a1aff122f23eb09bb0
     Pseudo is Ultrasoft + core correction, Zval =  4.0
     Generated using "atomic" code by A. Dal Corso  v.5.0.2 svn rev. 9415
     Using radial grid of 1073 points,  4 beta functions with: 
                l(1) =   0
                l(2) =   0
                l(3) =   1
                l(4) =   1
     Q(r) pseudized with 0 coefficients 


     PseudoPot. # 2 for H  read from file:
     /home/edoardocabiati/.burai/.pseudopot/H.pz-rrkjus_psl.0.1.UPF
     MD5 check sum: 1467ebfaa2880178e80d097b970df8c7
     Pseudo is Ultrasoft, Zval =  1.0
     Generated using "atomic" code by A. Dal Corso  v.5.0.2 svn rev. 9415
     Using radial grid of  929 points,  2 beta functions with: 
                l(1) =   0
                l(2) =   0
     Q(r) pseudized with 0 coefficients 


     atomic species   valence    mass     pseudopotential
     C                 4.00    12.01100     C ( 1.00)
     H                 1.00     1.00784     H ( 1.00)

     No symmetry found



   Cartesian axes

     site n.     atom                  positions (alat units)
         1        C      tau(   1) = (   0.0007834   0.0001711   0.5046665  )
         2        C      tau(   2) = (   0.0017064   0.0010581   1.0543445  )
         3        C      tau(   3) = (   0.0044041   0.0028616   2.5950351  )
         4        C      tau(   4) = (   0.0007754   0.3385910   0.4990832  )
         5        C      tau(   5) = (   0.2949710   0.1703418   1.0566004  )
         6        C      tau(   6) = (   0.0042583   0.3416207   2.5915882  )
         7        C      tau(   7) = (   0.5865159   0.0002520   0.5034060  )
         8        C      tau(   8) = (   0.5879055   0.0010589   1.0510733  )
         9        C      tau(   9) = (   0.5903964   0.0031150   2.5934841  )
        10        C      tau(  10) = (   0.5867274   0.3385035   0.4972007  )
        11        C      tau(  11) = (   0.8803977   0.1700035   1.0548009  )
        12        C      tau(  12) = (   0.5902271   0.3415339   2.5901128  )
        13        C      tau(  13) = (  -0.2921563   0.5074088   0.5035764  )
        14        C      tau(  14) = (  -0.2907956   0.5085938   1.0545848  )
        15        C      tau(  15) = (  -0.2879432   0.5113848   2.5905395  )
        16        C      tau(  16) = (  -0.2921520   0.8455948   0.4993324  )
        17        C      tau(  17) = (   0.0022155   0.6778459   1.0583955  )
        18        C      tau(  18) = (  -0.2878054   0.8493070   2.5926567  )
        19        C      tau(  19) = (   0.2940494   0.5077793   0.5051732  )
        20        C      tau(  20) = (   0.2950761   0.5089214   1.0500956  )
        21        C      tau(  21) = (   0.2969788   0.5104698   2.5923438  )
        22        C      tau(  22) = (   0.2935302   0.8459118   0.4993127  )
        23        C      tau(  23) = (   0.5879822   0.6777469   1.0566630  )
        24        C      tau(  24) = (   0.2973297   0.8484349   2.5954971  )
        25        H      tau(  25) = (   0.1966655   1.3149126   1.9473255  )
        26        H      tau(  26) = (   0.0317877   1.1194613   1.9598327  )
        27        H      tau(  27) = (   0.1203206   0.8788302   1.9946144  )
        28        H      tau(  28) = (   0.4431415   0.6005631   1.9730917  )
        29        H      tau(  29) = (   0.6975264   0.5364043   1.9507748  )
        30        H      tau(  30) = (   0.2887798   0.4048338   1.9502623  )
        31        H      tau(  31) = (   0.2069224  -0.0423500   1.9478524  )
        32        H      tau(  32) = (   0.3690796   0.1555814   1.9497084  )
        33        H      tau(  33) = (  -0.3033826   0.7281061   1.9474885  )
        34        H      tau(  34) = (  -0.0524145   0.6899968   1.9668301  )
        35        H      tau(  35) = (   0.5428060   1.0319280   1.9658327  )
        36        H      tau(  36) = (   0.3781480   0.8555767   1.5575643  )
        37        H      tau(  37) = (  -0.1324092   0.2568230   1.9502830  )
        38        H      tau(  38) = (   0.0359419   0.4439663   1.9479893  )
        39        H      tau(  39) = (   0.3713383   0.8475561   2.0023094  )
        40        H      tau(  40) = (   0.1936458   0.8353455   1.5581990  )

     number of k points=     1  Gaussian smearing, width (Ry)=  0.0100
                       cart. coord. in units 2pi/alat
        k(    1) = (   0.0000000   0.0000000   0.0000000), wk =   2.0000000

     Dense  grid:   236761 G-vectors     FFT dimensions: (  60,  60, 150)

     Smooth grid:    59811 G-vectors     FFT dimensions: (  40,  40,  96)

     Estimated max dynamical RAM per process >     294.19 MB

     Estimated total dynamical RAM >     588.37 MB

     Check: negative core charge=   -0.000002

     Initial potential from superposition of free atoms

     starting charge     111.9990, renormalised to     112.0000
     Starting wfcs are  112 randomized atomic wfcs

     total cpu time spent up to now is        2.9 secs

     Self-consistent Calculation

     iteration #  1     ecut=    40.00 Ry     beta= 0.05
     Davidson diagonalization with overlap
     ethr =  1.00E-02,  avg # of iterations =  3.0

     total cpu time spent up to now is        8.0 secs

     total energy              =    -304.80308717 Ry
     estimated scf accuracy    <       2.02969551 Ry

     iteration #  2     ecut=    40.00 Ry     beta= 0.05
     Davidson diagonalization with overlap
     ethr =  1.81E-03,  avg # of iterations =  4.0

     total cpu time spent up to now is       12.2 secs

     total energy              =    -305.79345067 Ry
     estimated scf accuracy    <       2.42310553 Ry

     iteration #  3     ecut=    40.00 Ry     beta= 0.05
     Davidson diagonalization with overlap
     ethr =  1.81E-03,  avg # of iterations =  1.0

     total cpu time spent up to now is       15.8 secs

     total energy              =    -303.61769369 Ry
     estimated scf accuracy    <       3.88280897 Ry

     iteration #  4     ecut=    40.00 Ry     beta= 0.05
     Davidson diagonalization with overlap
     ethr =  1.81E-03,  avg # of iterations =  2.0

     total cpu time spent up to now is       19.9 secs

     total energy              =    -303.86166216 Ry
     estimated scf accuracy    <       0.16380802 Ry

     iteration #  5     ecut=    40.00 Ry     beta= 0.05
     Davidson diagonalization with overlap
     ethr =  1.46E-04,  avg # of iterations = 20.0

     total cpu time spent up to now is       25.5 secs

     total energy              =    -303.93053118 Ry
     estimated scf accuracy    <       0.08172178 Ry

     iteration #  6     ecut=    40.00 Ry     beta= 0.05
     Davidson diagonalization with overlap
     ethr =  7.30E-05,  avg # of iterations =  1.0

     total cpu time spent up to now is       29.1 secs

     total energy              =    -303.93307972 Ry
     estimated scf accuracy    <       0.07650143 Ry

     iteration #  7     ecut=    40.00 Ry     beta= 0.05
     Davidson diagonalization with overlap
     ethr =  6.83E-05,  avg # of iterations =  1.0

     total cpu time spent up to now is       32.6 secs

     total energy              =    -303.90253404 Ry
     estimated scf accuracy    <       0.06365661 Ry

     iteration #  8     ecut=    40.00 Ry     beta= 0.05
     Davidson diagonalization with overlap
     ethr =  5.68E-05,  avg # of iterations =  2.0

     total cpu time spent up to now is       36.9 secs

     total energy              =    -303.91280429 Ry
     estimated scf accuracy    <       0.00710508 Ry

     iteration #  9     ecut=    40.00 Ry     beta= 0.05
     Davidson diagonalization with overlap
     ethr =  6.34E-06,  avg # of iterations = 16.0

     total cpu time spent up to now is       42.0 secs

     total energy              =    -303.91352245 Ry
     estimated scf accuracy    <       0.00560774 Ry

     iteration # 10     ecut=    40.00 Ry     beta= 0.05
     Davidson diagonalization with overlap
     ethr =  5.01E-06,  avg # of iterations =  2.0

     total cpu time spent up to now is       45.8 secs

     total energy              =    -303.91314328 Ry
     estimated scf accuracy    <       0.00382807 Ry

     iteration # 11     ecut=    40.00 Ry     beta= 0.05
     Davidson diagonalization with overlap
     ethr =  3.42E-06,  avg # of iterations =  2.0

     total cpu time spent up to now is       49.9 secs

     total energy              =    -303.91325144 Ry
     estimated scf accuracy    <       0.00184809 Ry

     iteration # 12     ecut=    40.00 Ry     beta= 0.05
     Davidson diagonalization with overlap
     ethr =  1.65E-06,  avg # of iterations =  1.0

     total cpu time spent up to now is       53.5 secs

     total energy              =    -303.91329121 Ry
     estimated scf accuracy    <       0.00109937 Ry

     iteration # 13     ecut=    40.00 Ry     beta= 0.05
     Davidson diagonalization with overlap
     ethr =  9.82E-07,  avg # of iterations =  1.0

     total cpu time spent up to now is       57.1 secs

     total energy              =    -303.91314725 Ry
     estimated scf accuracy    <       0.00100364 Ry

     iteration # 14     ecut=    40.00 Ry     beta= 0.05
     Davidson diagonalization with overlap
     ethr =  8.96E-07,  avg # of iterations =  2.0

     total cpu time spent up to now is       60.9 secs

     total energy              =    -303.91313730 Ry
     estimated scf accuracy    <       0.00055772 Ry

     iteration # 15     ecut=    40.00 Ry     beta= 0.05
     Davidson diagonalization with overlap
     ethr =  4.98E-07,  avg # of iterations =  1.0

     total cpu time spent up to now is       64.6 secs

     total energy              =    -303.91311872 Ry
     estimated scf accuracy    <       0.00039463 Ry

     iteration # 16     ecut=    40.00 Ry     beta= 0.05
     Davidson diagonalization with overlap
     ethr =  3.52E-07,  avg # of iterations =  1.0

     total cpu time spent up to now is       68.5 secs

     total energy              =    -303.91301973 Ry
     estimated scf accuracy    <       0.00031124 Ry

     iteration # 17     ecut=    40.00 Ry     beta= 0.05
     Davidson diagonalization with overlap
     ethr =  2.78E-07,  avg # of iterations =  2.0

     total cpu time spent up to now is       73.0 secs

     total energy              =    -303.91304972 Ry
     estimated scf accuracy    <       0.00010160 Ry

     iteration # 18     ecut=    40.00 Ry     beta= 0.05
     Davidson diagonalization with overlap
     ethr =  9.07E-08,  avg # of iterations =  4.0

     total cpu time spent up to now is       77.1 secs

     total energy              =    -303.91306404 Ry
     estimated scf accuracy    <       0.00008344 Ry

     iteration # 19     ecut=    40.00 Ry     beta= 0.05
     Davidson diagonalization with overlap
     ethr =  7.45E-08,  avg # of iterations =  1.0

     total cpu time spent up to now is       80.9 secs

     total energy              =    -303.91304120 Ry
     estimated scf accuracy    <       0.00007849 Ry

     iteration # 20     ecut=    40.00 Ry     beta= 0.05
     Davidson diagonalization with overlap
     ethr =  7.01E-08,  avg # of iterations =  2.0

     total cpu time spent up to now is       84.8 secs

     total energy              =    -303.91304051 Ry
     estimated scf accuracy    <       0.00003483 Ry

     iteration # 21     ecut=    40.00 Ry     beta= 0.05
     Davidson diagonalization with overlap
     ethr =  3.11E-08,  avg # of iterations =  2.0

     total cpu time spent up to now is       88.9 secs

     total energy              =    -303.91304271 Ry
     estimated scf accuracy    <       0.00002802 Ry

     iteration # 22     ecut=    40.00 Ry     beta= 0.05
     Davidson diagonalization with overlap
     ethr =  2.50E-08,  avg # of iterations =  1.0

     total cpu time spent up to now is       92.6 secs

     total energy              =    -303.91304239 Ry
     estimated scf accuracy    <       0.00002320 Ry

     iteration # 23     ecut=    40.00 Ry     beta= 0.05
     Davidson diagonalization with overlap
     ethr =  2.07E-08,  avg # of iterations =  2.0

     total cpu time spent up to now is       96.8 secs

     total energy              =    -303.91304200 Ry
     estimated scf accuracy    <       0.00002125 Ry

     iteration # 24     ecut=    40.00 Ry     beta= 0.05
     Davidson diagonalization with overlap
     ethr =  1.90E-08,  avg # of iterations =  1.0

     total cpu time spent up to now is      100.5 secs

     total energy              =    -303.91304262 Ry
     estimated scf accuracy    <       0.00001680 Ry

     iteration # 25     ecut=    40.00 Ry     beta= 0.05
     Davidson diagonalization with overlap
     ethr =  1.50E-08,  avg # of iterations =  1.0

     total cpu time spent up to now is      104.3 secs

     total energy              =    -303.91303825 Ry
     estimated scf accuracy    <       0.00001660 Ry

     iteration # 26     ecut=    40.00 Ry     beta= 0.05
     Davidson diagonalization with overlap
     ethr =  1.48E-08,  avg # of iterations =  2.0

     total cpu time spent up to now is      108.3 secs

     total energy              =    -303.91303838 Ry
     estimated scf accuracy    <       0.00000933 Ry

     iteration # 27     ecut=    40.00 Ry     beta= 0.05
     Davidson diagonalization with overlap
     ethr =  8.33E-09,  avg # of iterations =  1.0

     total cpu time spent up to now is      112.0 secs

     total energy              =    -303.91303753 Ry
     estimated scf accuracy    <       0.00000773 Ry

     iteration # 28     ecut=    40.00 Ry     beta= 0.05
     Davidson diagonalization with overlap
     ethr =  6.90E-09,  avg # of iterations =  1.0

     total cpu time spent up to now is      116.0 secs

     total energy              =    -303.91303668 Ry
     estimated scf accuracy    <       0.00000476 Ry

     iteration # 29     ecut=    40.00 Ry     beta= 0.05
     Davidson diagonalization with overlap
     ethr =  4.25E-09,  avg # of iterations =  2.0

     total cpu time spent up to now is      120.2 secs

     total energy              =    -303.91303709 Ry
     estimated scf accuracy    <       0.00000345 Ry

     iteration # 30     ecut=    40.00 Ry     beta= 0.05
     Davidson diagonalization with overlap
     ethr =  3.08E-09,  avg # of iterations =  1.0

     total cpu time spent up to now is      124.1 secs

     total energy              =    -303.91303710 Ry
     estimated scf accuracy    <       0.00000333 Ry

     iteration # 31     ecut=    40.00 Ry     beta= 0.05
     Davidson diagonalization with overlap
     ethr =  2.97E-09,  avg # of iterations =  1.0

     total cpu time spent up to now is      127.8 secs

     total energy              =    -303.91303716 Ry
     estimated scf accuracy    <       0.00000309 Ry

     iteration # 32     ecut=    40.00 Ry     beta= 0.05
     Davidson diagonalization with overlap
     ethr =  2.76E-09,  avg # of iterations =  1.0

     total cpu time spent up to now is      131.5 secs

     total energy              =    -303.91303704 Ry
     estimated scf accuracy    <       0.00000303 Ry

     iteration # 33     ecut=    40.00 Ry     beta= 0.05
     Davidson diagonalization with overlap
     ethr =  2.70E-09,  avg # of iterations =  1.0

     total cpu time spent up to now is      135.3 secs

     total energy              =    -303.91303701 Ry
     estimated scf accuracy    <       0.00000258 Ry

     iteration # 34     ecut=    40.00 Ry     beta= 0.05
     Davidson diagonalization with overlap
     ethr =  2.30E-09,  avg # of iterations =  1.0

     total cpu time spent up to now is      139.0 secs

     total energy              =    -303.91303677 Ry
     estimated scf accuracy    <       0.00000220 Ry

     iteration # 35     ecut=    40.00 Ry     beta= 0.05
     Davidson diagonalization with overlap
     ethr =  1.97E-09,  avg # of iterations =  1.0

     total cpu time spent up to now is      142.7 secs

     total energy              =    -303.91303617 Ry
     estimated scf accuracy    <       0.00000165 Ry

     iteration # 36     ecut=    40.00 Ry     beta= 0.05
     Davidson diagonalization with overlap
     ethr =  1.47E-09,  avg # of iterations =  2.0

     total cpu time spent up to now is      146.6 secs

     End of self-consistent calculation

          k = 0.0000 0.0000 0.0000 (  7409 PWs)   bands (ev):

   -14.0931 -12.9987 -12.5703  -8.6218  -8.6125  -8.5757  -8.0841  -8.0709
    -8.0614  -7.7564  -7.7527  -7.7244  -7.5802  -7.0876  -7.0841  -7.0779
    -6.8544  -6.8445  -6.8348  -6.7424  -6.7351  -6.7302  -3.4696  -1.4018
    -0.8941  -0.6331  -0.6166  -0.6128  -0.1287  -0.1149  -0.1083  -0.0826
    -0.0639  -0.0587   0.0052   0.0579   0.1582   0.2010   0.2445   0.3138
     1.6865   2.2831   2.2950   2.4014   2.8725   2.8759   3.0932   3.0992
     3.2775   3.2839   3.7089   3.7206   3.7842   4.2372   4.2539   4.2791
     7.3934   7.4132   7.4244   8.0155   8.0340   8.0542   8.4142   8.4570
     8.4797   9.9850  11.6656

     the Fermi energy is     5.9062 ev

!    total energy              =    -303.91303601 Ry
     estimated scf accuracy    <       0.00000049 Ry
     smearing contrib. (-TS)   =      -0.00000000 Ry
     internal energy E=F+TS    =    -303.91303601 Ry

     The total energy is F=E-TS. E is the sum of the following terms:
     one-electron contribution =    -267.26749645 Ry
     hartree contribution      =     186.99145156 Ry
     xc contribution           =    -110.81070450 Ry
     ewald contribution        =    -112.82628662 Ry

     convergence has been achieved in  36 iterations

     Forces acting on atoms (cartesian axes, Ry/au):

     atom    1 type  1   force =     0.00004617    0.00199759    0.00010329
     atom    2 type  1   force =     0.00625591    0.00534567   -0.00016950
     atom    3 type  1   force =     0.00108339    0.00296503    0.00021733
     atom    4 type  1   force =    -0.00017823   -0.00320216    0.00017368
     atom    5 type  1   force =    -0.00126086    0.00017668    0.00030175
     atom    6 type  1   force =     0.00042491   -0.00273596    0.00022781
     atom    7 type  1   force =    -0.00070667    0.00047657   -0.00002132
     atom    8 type  1   force =    -0.00696066    0.00555818   -0.00009516
     atom    9 type  1   force =     0.00188909    0.00479891    0.00036176
     atom   10 type  1   force =     0.00111906   -0.00152431   -0.00009230
     atom   11 type  1   force =     0.00296059    0.00964636   -0.00098952
     atom   12 type  1   force =     0.00082460    0.00063714    0.00051347
     atom   13 type  1   force =     0.00058687    0.00040233   -0.00056437
     atom   14 type  1   force =     0.00065796   -0.00180147    0.00028416
     atom   15 type  1   force =    -0.00419906   -0.00514932    0.00014086
     atom   16 type  1   force =    -0.00128503    0.00107105   -0.00041939
     atom   17 type  1   force =    -0.00744558   -0.00527351   -0.00019338
     atom   18 type  1   force =    -0.00525891   -0.00026861    0.00011862
     atom   19 type  1   force =    -0.00298284   -0.00140764   -0.00027288
     atom   20 type  1   force =     0.00026521   -0.00960809   -0.00078723
     atom   21 type  1   force =     0.00354553   -0.00111459    0.00108067
     atom   22 type  1   force =     0.00211781    0.00174498   -0.00048399
     atom   23 type  1   force =     0.00517629   -0.00307629    0.00000710
     atom   24 type  1   force =     0.00089056    0.00152913    0.00089755
     atom   25 type  2   force =     0.00009170    0.00104329    0.00000549
     atom   26 type  2   force =     0.00031913    0.00013379    0.00015855
     atom   27 type  2   force =     0.00152488    0.00021852   -0.00070180
     atom   28 type  2   force =     0.00114613   -0.00031214    0.00005905
     atom   29 type  2   force =    -0.00100699    0.00118002   -0.00110675
     atom   30 type  2   force =     0.00032855    0.00067736    0.00046012
     atom   31 type  2   force =    -0.00094104   -0.00068261    0.00051456
     atom   32 type  2   force =     0.00001489    0.00026081    0.00047215
     atom   33 type  2   force =    -0.00173383    0.00033654    0.00059830
     atom   34 type  2   force =     0.00065447   -0.00013044   -0.00000198
     atom   35 type  2   force =    -0.00004494   -0.00058719   -0.00137436
     atom   36 type  2   force =     0.00064945   -0.00022748    0.00002477
     atom   37 type  2   force =     0.00123011   -0.00019139    0.00079068
     atom   38 type  2   force =     0.00036434   -0.00060563    0.00092010
     atom   39 type  2   force =    -0.00063088   -0.00175043   -0.00074066
     atom   40 type  2   force =     0.00046792   -0.00055069   -0.00041725

     Total force =     0.005648     Total SCF correction =     0.000927
     SCF correction compared to forces is large: reduce conv_thr to get better values


     Computing stress (Cartesian axis) and pressure

          total   stress  (Ry/bohr**3)                   (kbar)     P=        6.55
   0.00001387  -0.00000230   0.00000314            2.04       -0.34        0.46
  -0.00000230   0.00001247   0.00000050           -0.34        1.83        0.07
   0.00000314   0.00000050   0.00010726            0.46        0.07       15.78


     BFGS Geometry Optimization
     Energy error            =      0.0E+00 Ry
     Gradient error          =      1.8E-03 Ry/Bohr
     Cell gradient error     =      1.6E+01 kbar

     number of scf cycles    =   1
     number of bfgs steps    =   0

     enthalpy           new  =    -303.9130360134 Ry

     new trust radius        =       0.0224629972 bohr
     new conv_thr            =       0.0000010000 Ry

     new unit-cell volume =   1758.68373 a.u.^3 (   260.61004 Ang^3 )
     density =      1.93949 g/cm^3

CELL_PARAMETERS (alat=  8.00000437)
   1.172029587  -0.000086588  -0.003720489
  -0.586084337   1.015101416   0.000324054
   0.004804272   0.003566054   2.887250622

ATOMIC_POSITIONS (crystal)
C               -0.0002365198       -0.0004410520        0.1752643366    0   0   1
C               -0.0000892355       -0.0002308611        0.3661442876    0   0   1
C                0.0000813138       -0.0003146326        0.9012108808    0   0   1
C                0.1665214941        0.3330685655        0.1735073177    0   0   1
C                0.3336261476        0.1665940601        0.3673682046    0   0   1
C                0.1668846345        0.3335265876        0.9001932264    0   0   1
C                0.4997391982       -0.0003525089        0.1754813597    0   0   1
C                0.5002491218       -0.0002189085        0.3656722039    0   0   1
C                0.5003642576       -0.0000558748        0.9013391210    0   0   1
C                0.6666028094        0.3329918371        0.1735023721    0   0   1
C                0.8331356742        0.1662702297        0.3673468379    0   0   1
C                0.6669797153        0.3334500213        0.9003536320    0   0   1
C               -0.0003259550        0.4994245791        0.1747947514    0   0   1
C                0.0003388730        0.4999266831        0.3661860695    0   0   1
C                0.0011374965        0.5008218092        0.8995856845    0   0   1
C                0.1663246766        0.8327019981        0.1735059883    0   0   1
C                0.3338195661        0.6667186483        0.3679084175    0   0   1
C                0.1677595927        0.8338316439        0.9004987695    0   0   1
C                0.5001906821        0.4997949797        0.1760228175    0   0   1
C                0.5005615421        0.5002623373        0.3652410737    0   0   1
C                0.4999243318        0.4999249481        0.9009118400    0   0   1
C                0.6663712742        0.8330216173        0.1741565893    0   0   1
C                0.8337365938        0.6666304122        0.3679756060    0   0   1
C                0.6667475953        0.8329758637        0.9021780109    0   0   1
H                0.8120272960        1.2935862204        0.6771776427
H                0.5749375417        1.1008454989        0.6812385794
H                0.5319986920        0.8636803315        0.6932528706
H                0.6703870618        0.5894208076        0.6860282187
H                0.8558016606        0.5264083052        0.6784800401
H                0.4422108403        0.3966829025        0.6778400069
H                0.1517829788       -0.0441692275        0.6766765468
H                0.3878728070        0.1510023111        0.6776068486
H                0.0958438609        0.7152121927        0.6763859186
H                0.2914598708        0.6775789567        0.6833397657
H                0.9678749020        1.0144944663        0.6837852916
H                0.7413368850        0.8412407304        0.5417852589
H                0.0098297044        0.2507103511        0.6773086706
H                0.2456204266        0.4350883201        0.6768062595
H                0.7304704528        0.8326118533        0.6961894187
H                0.5738516753        0.8212606823        0.5417678071



     Writing config-only to output data dir ../results/8h2_abs/8H2abs_C.save/ :
     XML data file
     NEW-OLD atomic charge density approx. for the potential

     Check: negative core charge=   -0.000002

     total cpu time spent up to now is      156.5 secs

     Self-consistent Calculation

     iteration #  1     ecut=    40.00 Ry     beta= 0.05
     Davidson diagonalization with overlap
     ethr =  1.00E-06,  avg # of iterations =  4.0

     Threshold (ethr) on eigenvalues was too large:
     Diagonalizing with lowered threshold

     Davidson diagonalization with overlap
     ethr =  4.53E-08,  avg # of iterations =  6.0

     total cpu time spent up to now is      168.6 secs

     total energy              =    -303.91353093 Ry
     estimated scf accuracy    <       0.00001644 Ry

     iteration #  2     ecut=    40.00 Ry     beta= 0.05
     Davidson diagonalization with overlap
     ethr =  1.47E-08,  avg # of iterations =  2.0

     total cpu time spent up to now is      172.7 secs

     total energy              =    -303.91353060 Ry
     estimated scf accuracy    <       0.00001394 Ry

     iteration #  3     ecut=    40.00 Ry     beta= 0.05
     Davidson diagonalization with overlap
     ethr =  1.24E-08,  avg # of iterations =  2.0

     total cpu time spent up to now is      176.7 secs

     total energy              =    -303.91352956 Ry
     estimated scf accuracy    <       0.00000720 Ry

     iteration #  4     ecut=    40.00 Ry     beta= 0.05
     Davidson diagonalization with overlap
     ethr =  6.43E-09,  avg # of iterations =  4.0

     total cpu time spent up to now is      181.0 secs

     total energy              =    -303.91353085 Ry
     estimated scf accuracy    <       0.00000112 Ry

     iteration #  5     ecut=    40.00 Ry     beta= 0.05
     Davidson diagonalization with overlap
     ethr =  1.00E-09,  avg # of iterations =  4.0

     total cpu time spent up to now is      185.8 secs

     total energy              =    -303.91353104 Ry
     estimated scf accuracy    <       0.00000127 Ry

     iteration #  6     ecut=    40.00 Ry     beta= 0.05
     Davidson diagonalization with overlap
     ethr =  1.00E-09,  avg # of iterations =  1.0

     total cpu time spent up to now is      189.6 secs

     total energy              =    -303.91353084 Ry
     estimated scf accuracy    <       0.00000131 Ry

     iteration #  7     ecut=    40.00 Ry     beta= 0.05
     Davidson diagonalization with overlap
     ethr =  1.00E-09,  avg # of iterations =  1.0

     total cpu time spent up to now is      193.1 secs

     End of self-consistent calculation

          k = 0.0000 0.0000 0.0000 (  7409 PWs)   bands (ev):

   -14.1018 -13.0289 -12.5996  -8.6369  -8.6269  -8.5908  -8.1031  -8.0898
    -8.0807  -7.7924  -7.7873  -7.7598  -7.6048  -7.1153  -7.1112  -7.1050
    -6.8862  -6.8762  -6.8665  -6.7716  -6.7643  -6.7595  -3.4819  -1.4354
    -0.9226  -0.6545  -0.6386  -0.6338  -0.1583  -0.1456  -0.1389  -0.1178
    -0.1010  -0.0947  -0.0231   0.0248   0.1341   0.1717   0.2063   0.2791
     1.6363   2.2661   2.2782   2.3825   2.8454   2.8494   3.0623   3.0687
     3.2375   3.2435   3.6771   3.6882   3.7492   4.2006   4.2178   4.2429
     7.3581   7.3771   7.3887   7.9738   7.9913   8.0133   8.3747   8.4167
     8.4383   9.9292  11.6040

     the Fermi energy is     5.8578 ev

!    total energy              =    -303.91353001 Ry
     estimated scf accuracy    <       0.00000071 Ry
     smearing contrib. (-TS)   =      -0.00000000 Ry
     internal energy E=F+TS    =    -303.91353001 Ry

     The total energy is F=E-TS. E is the sum of the following terms:
     one-electron contribution =    -268.97163339 Ry
     hartree contribution      =     187.69690586 Ry
     xc contribution           =    -110.78005499 Ry
     ewald contribution        =    -111.85874748 Ry

     convergence has been achieved in   7 iterations

     Forces acting on atoms (cartesian axes, Ry/au):

     atom    1 type  1   force =     0.00010388    0.00195695    0.00013426
     atom    2 type  1   force =     0.00612205    0.00529013   -0.00030915
     atom    3 type  1   force =     0.00113578    0.00292863    0.00016771
     atom    4 type  1   force =    -0.00024321   -0.00314133    0.00086948
     atom    5 type  1   force =    -0.00119936    0.00014529   -0.00069271
     atom    6 type  1   force =     0.00031651   -0.00271188    0.00024591
     atom    7 type  1   force =    -0.00060155    0.00042963   -0.00000492
     atom    8 type  1   force =    -0.00696880    0.00549570   -0.00022134
     atom    9 type  1   force =     0.00201559    0.00473540    0.00031830
     atom   10 type  1   force =     0.00106959   -0.00149451    0.00065004
     atom   11 type  1   force =     0.00300867    0.00951987   -0.00148528
     atom   12 type  1   force =     0.00074812    0.00065751    0.00046788
     atom   13 type  1   force =     0.00069265    0.00037592   -0.00033755
     atom   14 type  1   force =     0.00053876   -0.00173083   -0.00009201
     atom   15 type  1   force =    -0.00410083   -0.00518174    0.00012738
     atom   16 type  1   force =    -0.00130671    0.00110101    0.00043070
     atom   17 type  1   force =    -0.00730584   -0.00523681   -0.00093414
     atom   18 type  1   force =    -0.00532827   -0.00026827    0.00006735
     atom   19 type  1   force =    -0.00290466   -0.00140747   -0.00012731
     atom   20 type  1   force =     0.00018246   -0.00947615   -0.00065808
     atom   21 type  1   force =     0.00363873   -0.00113056    0.00091552
     atom   22 type  1   force =     0.00205117    0.00177176    0.00034848
     atom   23 type  1   force =     0.00519892   -0.00306731   -0.00079956
     atom   24 type  1   force =     0.00078306    0.00158545    0.00067220
     atom   25 type  2   force =     0.00022650    0.00084564    0.00008951
     atom   26 type  2   force =     0.00022035    0.00030593    0.00020628
     atom   27 type  2   force =     0.00117111    0.00011998   -0.00076853
     atom   28 type  2   force =     0.00097737   -0.00037601    0.00001048
     atom   29 type  2   force =    -0.00076648    0.00091247   -0.00094459
     atom   30 type  2   force =     0.00037206    0.00039828    0.00054909
     atom   31 type  2   force =    -0.00072137   -0.00045232    0.00057776
     atom   32 type  2   force =     0.00007986    0.00023802    0.00049896
     atom   33 type  2   force =    -0.00112736    0.00031311    0.00067368
     atom   34 type  2   force =     0.00045961   -0.00010352   -0.00002056
     atom   35 type  2   force =    -0.00017540   -0.00049029   -0.00120392
     atom   36 type  2   force =     0.00029058   -0.00025609    0.00003236
     atom   37 type  2   force =     0.00088860   -0.00027132    0.00081225
     atom   38 type  2   force =     0.00022423   -0.00031367    0.00097887
     atom   39 type  2   force =    -0.00054645   -0.00150646   -0.00086071
     atom   40 type  2   force =     0.00078009   -0.00051014   -0.00038409

     Total force =     0.005227     Total SCF correction =     0.002248
     SCF correction compared to forces is large: reduce conv_thr to get better values


     Computing stress (Cartesian axis) and pressure

          total   stress  (Ry/bohr**3)                   (kbar)     P=        3.23
  -0.00001117   0.00000147   0.00000278           -1.64        0.22        0.41
   0.00000147  -0.00000988   0.00000059            0.22       -1.45        0.09
   0.00000278   0.00000059   0.00008683            0.41        0.09       12.77

     Energy error            =      4.9E-04 Ry
     Gradient error          =      1.5E-03 Ry/Bohr
     Cell gradient error     =      1.3E+01 kbar

     number of scf cycles    =   2
     number of bfgs steps    =   1

     enthalpy           old  =    -303.9130360134 Ry
     enthalpy           new  =    -303.9135300056 Ry

     CASE: enthalpy          _new < enthalpy          _old

     new trust radius        =       0.0336603994 bohr
     new conv_thr            =       0.0000000151 Ry

     new unit-cell volume =   1765.05870 a.u.^3 (   261.55471 Ang^3 )
     density =      1.93248 g/cm^3

CELL_PARAMETERS (alat=  8.00000437)
   1.171788473  -0.000061189  -0.003588946
  -0.585941895   1.014906458   0.000277160
   0.005164403   0.003636677   2.898832708

ATOMIC_POSITIONS (crystal)
C               -0.0002365723       -0.0004410851        0.1752739231    0   0   1
C               -0.0000891221       -0.0002307896        0.3661235554    0   0   1
C                0.0000812384       -0.0003146800        0.9012245883    0   0   1
C                0.1665212088        0.3330683851        0.1735596793    0   0   1
C                0.3336263261        0.1665941738        0.3673351261    0   0   1
C                0.1668845340        0.3335265244        0.9002115426    0   0   1
C                0.4997392021       -0.0003525065        0.1754806640    0   0   1
C                0.5002492001       -0.0002188591        0.3656578747    0   0   1
C                0.5003641202       -0.0000559612        0.9013641415    0   0   1
C                0.6666026207        0.3329917174        0.1735371589    0   0   1
C                0.8331362383        0.1662705852        0.3672437942    0   0   1
C                0.6669795152        0.3334498955        0.9003900518    0   0   1
C               -0.0003257892        0.4994246831        0.1747646708    0   0   1
C                0.0003388696        0.4999266815        0.3661864662    0   0   1
C                0.0011374419        0.5008217749        0.8995956206    0   0   1
C                0.1663245912        0.8327019433        0.1735220066    0   0   1
C                0.3338198734        0.6667188426        0.3678520285    0   0   1
C                0.1677595590        0.8338316227        0.9005048895    0   0   1
C                0.5001907513        0.4997950230        0.1760102944    0   0   1
C                0.5005618307        0.5002625186        0.3651885726    0   0   1
C                0.4999239319        0.4999246969        0.9009845943    0   0   1
C                0.6663712212        0.8330215828        0.1741667104    0   0   1
C                0.8337368376        0.6666305667        0.3679307291    0   0   1
C                0.6667472902        0.8329756721        0.9022334720    0   0   1
H                0.8121593988        1.2937790908        0.6771829421
H                0.5750113780        1.1009016593        0.6812533969
H                0.5322498737        0.8637118149        0.6931961603
H                0.6705386051        0.5893434802        0.6860301811
H                0.8557532602        0.5266197241        0.6784050439
H                0.4423284318        0.3967839675        0.6778800964
H                0.1515827176       -0.0442794804        0.6767189206
H                0.3879105751        0.1510546446        0.6776442514
H                0.0956386490        0.7152806766        0.6764353060
H                0.2915430130        0.6775551932        0.6833386839
H                0.9677936193        1.0143839455        0.6836904411
H                0.7413815702        0.8411872332        0.5417876336
H                0.0099844209        0.2506562291        0.6773701342
H                0.2456266940        0.4350043424        0.6768794488
H                0.7301961403        0.8322744740        0.6961260992
H                0.5739261119        0.8211487995        0.5417381086



     Writing config-only to output data dir ../results/8h2_abs/8H2abs_C.save/ :
     XML data file
     NEW-OLD atomic charge density approx. for the potential

     Check: negative core charge=   -0.000002

     total cpu time spent up to now is      203.6 secs

     Self-consistent Calculation

     iteration #  1     ecut=    40.00 Ry     beta= 0.05
     Davidson diagonalization with overlap
     ethr =  1.00E-06,  avg # of iterations =  7.0

     Threshold (ethr) on eigenvalues was too large:
     Diagonalizing with lowered threshold

     Davidson diagonalization with overlap
     ethr =  2.92E-08,  avg # of iterations =  6.0

     total cpu time spent up to now is      216.9 secs

     total energy              =    -303.91412937 Ry
     estimated scf accuracy    <       0.00003445 Ry

     iteration #  2     ecut=    40.00 Ry     beta= 0.05
     Davidson diagonalization with overlap
     ethr =  3.08E-08,  avg # of iterations =  1.0

     total cpu time spent up to now is      220.6 secs

     total energy              =    -303.91412239 Ry
     estimated scf accuracy    <       0.00003240 Ry

     iteration #  3     ecut=    40.00 Ry     beta= 0.05
     Davidson diagonalization with overlap
     ethr =  2.89E-08,  avg # of iterations =  1.0

     total cpu time spent up to now is      224.7 secs

     total energy              =    -303.91412300 Ry
     estimated scf accuracy    <       0.00000450 Ry

     iteration #  4     ecut=    40.00 Ry     beta= 0.05
     Davidson diagonalization with overlap
     ethr =  4.01E-09,  avg # of iterations =  4.0

     total cpu time spent up to now is      231.1 secs

     total energy              =    -303.91412427 Ry
     estimated scf accuracy    <       0.00000227 Ry

     iteration #  5     ecut=    40.00 Ry     beta= 0.05
     Davidson diagonalization with overlap
     ethr =  2.03E-09,  avg # of iterations =  2.0

     total cpu time spent up to now is      235.4 secs

     total energy              =    -303.91412443 Ry
     estimated scf accuracy    <       0.00000243 Ry

     iteration #  6     ecut=    40.00 Ry     beta= 0.05
     Davidson diagonalization with overlap
     ethr =  2.03E-09,  avg # of iterations =  1.0

     total cpu time spent up to now is      239.1 secs

     total energy              =    -303.91412441 Ry
     estimated scf accuracy    <       0.00000255 Ry

     iteration #  7     ecut=    40.00 Ry     beta= 0.05
     Davidson diagonalization with overlap
     ethr =  2.03E-09,  avg # of iterations =  1.0

     total cpu time spent up to now is      243.5 secs

     total energy              =    -303.91412366 Ry
     estimated scf accuracy    <       0.00000238 Ry

     iteration #  8     ecut=    40.00 Ry     beta= 0.05
     Davidson diagonalization with overlap
     ethr =  2.03E-09,  avg # of iterations =  2.0

     total cpu time spent up to now is      250.8 secs

     total energy              =    -303.91412407 Ry
     estimated scf accuracy    <       0.00000060 Ry

     iteration #  9     ecut=    40.00 Ry     beta= 0.05
     Davidson diagonalization with overlap
     ethr =  5.31E-10,  avg # of iterations =  4.0

     total cpu time spent up to now is      256.7 secs

     total energy              =    -303.91412408 Ry
     estimated scf accuracy    <       0.00000065 Ry

     iteration # 10     ecut=    40.00 Ry     beta= 0.05
     Davidson diagonalization with overlap
     ethr =  5.31E-10,  avg # of iterations =  1.0

     total cpu time spent up to now is      260.4 secs

     total energy              =    -303.91412386 Ry
     estimated scf accuracy    <       0.00000056 Ry

     iteration # 11     ecut=    40.00 Ry     beta= 0.05
     Davidson diagonalization with overlap
     ethr =  5.01E-10,  avg # of iterations =  4.0

     total cpu time spent up to now is      264.8 secs

     total energy              =    -303.91412406 Ry
     estimated scf accuracy    <       0.00000042 Ry

     iteration # 12     ecut=    40.00 Ry     beta= 0.05
     Davidson diagonalization with overlap
     ethr =  3.73E-10,  avg # of iterations =  4.0

     total cpu time spent up to now is      269.1 secs

     total energy              =    -303.91412423 Ry
     estimated scf accuracy    <       0.00000081 Ry

     iteration # 13     ecut=    40.00 Ry     beta= 0.05
     Davidson diagonalization with overlap
     ethr =  3.73E-10,  avg # of iterations =  2.0

     total cpu time spent up to now is      273.0 secs

     total energy              =    -303.91412404 Ry
     estimated scf accuracy    <       0.00000114 Ry

     iteration # 14     ecut=    40.00 Ry     beta= 0.05
     Davidson diagonalization with overlap
     ethr =  3.73E-10,  avg # of iterations =  1.0

     total cpu time spent up to now is      276.7 secs

     total energy              =    -303.91412402 Ry
     estimated scf accuracy    <       0.00000070 Ry

     iteration # 15     ecut=    40.00 Ry     beta= 0.05
     Davidson diagonalization with overlap
     ethr =  3.73E-10,  avg # of iterations =  2.0

     total cpu time spent up to now is      280.7 secs

     total energy              =    -303.91412395 Ry
     estimated scf accuracy    <       0.00000036 Ry

     iteration # 16     ecut=    40.00 Ry     beta= 0.05
     Davidson diagonalization with overlap
     ethr =  3.22E-10,  avg # of iterations =  1.0

     total cpu time spent up to now is      284.3 secs

     total energy              =    -303.91412386 Ry
     estimated scf accuracy    <       0.00000035 Ry

     iteration # 17     ecut=    40.00 Ry     beta= 0.05
     Davidson diagonalization with overlap
     ethr =  3.09E-10,  avg # of iterations =  4.0

     total cpu time spent up to now is      288.5 secs

     total energy              =    -303.91412390 Ry
     estimated scf accuracy    <       0.00000020 Ry

     iteration # 18     ecut=    40.00 Ry     beta= 0.05
     Davidson diagonalization with overlap
     ethr =  1.83E-10,  avg # of iterations =  2.0

     total cpu time spent up to now is      293.2 secs

     total energy              =    -303.91412389 Ry
     estimated scf accuracy    <       0.00000017 Ry

     iteration # 19     ecut=    40.00 Ry     beta= 0.05
     Davidson diagonalization with overlap
     ethr =  1.50E-10,  avg # of iterations =  2.0

     total cpu time spent up to now is      297.2 secs

     total energy              =    -303.91412385 Ry
     estimated scf accuracy    <       0.00000013 Ry

     iteration # 20     ecut=    40.00 Ry     beta= 0.05
     Davidson diagonalization with overlap
     ethr =  1.19E-10,  avg # of iterations =  4.0

     total cpu time spent up to now is      301.3 secs

     total energy              =    -303.91412392 Ry
     estimated scf accuracy    <       0.00000014 Ry

     iteration # 21     ecut=    40.00 Ry     beta= 0.05
     Davidson diagonalization with overlap
     ethr =  1.19E-10,  avg # of iterations =  1.0

     total cpu time spent up to now is      305.0 secs

     total energy              =    -303.91412385 Ry
     estimated scf accuracy    <       0.00000008 Ry

     iteration # 22     ecut=    40.00 Ry     beta= 0.05
     Davidson diagonalization with overlap
     ethr =  6.86E-11,  avg # of iterations =  4.0

     total cpu time spent up to now is      309.3 secs

     total energy              =    -303.91412381 Ry
     estimated scf accuracy    <       0.00000004 Ry

     iteration # 23     ecut=    40.00 Ry     beta= 0.05
     Davidson diagonalization with overlap
     ethr =  3.28E-11,  avg # of iterations =  1.0

     total cpu time spent up to now is      314.2 secs

     End of self-consistent calculation

          k = 0.0000 0.0000 0.0000 (  7409 PWs)   bands (ev):

   -14.1246 -13.0727 -12.6506  -8.6591  -8.6499  -8.6137  -8.1329  -8.1200
    -8.1103  -7.8343  -7.8295  -7.8020  -7.6368  -7.1591  -7.1543  -7.1485
    -6.9299  -6.9199  -6.9103  -6.8181  -6.8107  -6.8063  -3.5053  -1.4818
    -0.9553  -0.6844  -0.6682  -0.6640  -0.2000  -0.1872  -0.1810  -0.1604
    -0.1432  -0.1376  -0.0481  -0.0091   0.1087   0.1406   0.1682   0.2387
     1.5646   2.2465   2.2570   2.3593   2.8142   2.8182   3.0254   3.0315
     3.1962   3.2025   3.6399   3.6500   3.7074   4.1540   4.1712   4.1964
     7.3196   7.3377   7.3499   7.9220   7.9383   7.9623   8.3300   8.3707
     8.3906   9.8579  11.5197

     the Fermi energy is     5.7890 ev

!    total energy              =    -303.91412381 Ry
     estimated scf accuracy    <       0.00000001 Ry
     smearing contrib. (-TS)   =      -0.00000000 Ry
     internal energy E=F+TS    =    -303.91412381 Ry

     The total energy is F=E-TS. E is the sum of the following terms:
     one-electron contribution =    -272.09521172 Ry
     hartree contribution      =     189.11016139 Ry
     xc contribution           =    -110.77761962 Ry
     ewald contribution        =    -110.15145386 Ry

     convergence has been achieved in  23 iterations

     Forces acting on atoms (cartesian axes, Ry/au):

     atom    1 type  1   force =     0.00005421    0.00193151    0.00028918
     atom    2 type  1   force =     0.00611857    0.00519084   -0.00055825
     atom    3 type  1   force =     0.00107011    0.00297487    0.00007004
     atom    4 type  1   force =    -0.00019021   -0.00311664    0.00148480
     atom    5 type  1   force =    -0.00125255    0.00016559   -0.00172948
     atom    6 type  1   force =     0.00033250   -0.00272771    0.00021864
     atom    7 type  1   force =    -0.00060433    0.00039857    0.00013372
     atom    8 type  1   force =    -0.00687886    0.00538348   -0.00044127
     atom    9 type  1   force =     0.00201163    0.00474060    0.00022603
     atom   10 type  1   force =     0.00114640   -0.00151321    0.00136116
     atom   11 type  1   force =     0.00293774    0.00939210   -0.00188792
     atom   12 type  1   force =     0.00081994    0.00069961    0.00034792
     atom   13 type  1   force =     0.00069909    0.00041090    0.00011086
     atom   14 type  1   force =     0.00051230   -0.00171384   -0.00063846
     atom   15 type  1   force =    -0.00416491   -0.00516367    0.00009735
     atom   16 type  1   force =    -0.00120275    0.00109238    0.00122787
     atom   17 type  1   force =    -0.00722971   -0.00514255   -0.00169992
     atom   18 type  1   force =    -0.00530645   -0.00034673   -0.00001124
     atom   19 type  1   force =    -0.00293670   -0.00134516    0.00017875
     atom   20 type  1   force =     0.00020367   -0.00941140   -0.00055695
     atom   21 type  1   force =     0.00359857   -0.00111480    0.00065106
     atom   22 type  1   force =     0.00210699    0.00177239    0.00116524
     atom   23 type  1   force =     0.00507003   -0.00301359   -0.00164554
     atom   24 type  1   force =     0.00080504    0.00157329    0.00030444
     atom   25 type  2   force =     0.00042400    0.00055784    0.00021309
     atom   26 type  2   force =     0.00010053    0.00051862    0.00027984
     atom   27 type  2   force =     0.00063281    0.00002373   -0.00083752
     atom   28 type  2   force =     0.00078347   -0.00044999   -0.00004184
     atom   29 type  2   force =    -0.00041475    0.00055248   -0.00068998
     atom   30 type  2   force =     0.00038284   -0.00006226    0.00067060
     atom   31 type  2   force =    -0.00041204   -0.00015371    0.00065929
     atom   32 type  2   force =     0.00013703    0.00021696    0.00052556
     atom   33 type  2   force =    -0.00033123    0.00028481    0.00076410
     atom   34 type  2   force =     0.00019280   -0.00009899   -0.00003675
     atom   35 type  2   force =    -0.00027570   -0.00033417   -0.00092280
     atom   36 type  2   force =     0.00085046   -0.00017761    0.00008867
     atom   37 type  2   force =     0.00041662   -0.00035515    0.00083866
     atom   38 type  2   force =     0.00004783    0.00008074    0.00105784
     atom   39 type  2   force =    -0.00040018   -0.00115938   -0.00098930
     atom   40 type  2   force =     0.00014517   -0.00056075   -0.00027749

     Total force =     0.005847     Total SCF correction =     0.000273


     Computing stress (Cartesian axis) and pressure

          total   stress  (Ry/bohr**3)                   (kbar)     P=        3.92
   0.00000764   0.00000015   0.00000217            1.12        0.02        0.32
   0.00000015   0.00000671   0.00000070            0.02        0.99        0.10
   0.00000217   0.00000070   0.00006553            0.32        0.10        9.64

     Energy error            =      5.9E-04 Ry
     Gradient error          =      1.9E-03 Ry/Bohr
     Cell gradient error     =      9.6E+00 kbar

     number of scf cycles    =   3
     number of bfgs steps    =   2

     enthalpy           old  =    -303.9135300056 Ry
     enthalpy           new  =    -303.9141238059 Ry

     CASE: enthalpy          _new < enthalpy          _old

     new trust radius        =       0.0503797488 bohr
     new conv_thr            =       0.0000000189 Ry

     new unit-cell volume =   1776.37880 a.u.^3 (   263.23218 Ang^3 )
     density =      1.92017 g/cm^3

CELL_PARAMETERS (alat=  8.00000437)
   1.172047780  -0.000046967  -0.003386478
  -0.586059365   1.015098697   0.000215823
   0.005719241   0.003776763   2.916205266

ATOMIC_POSITIONS (crystal)
C               -0.0002367195       -0.0004411811        0.1753021982    0   0   1
C               -0.0000888305       -0.0002305995        0.3660675730    0   0   1
C                0.0000811495       -0.0003147366        0.9012410900    0   0   1
C                0.1665204565        0.3330678934        0.1737045547    0   0   1
C                0.3336270702        0.1665946638        0.3671902774    0   0   1
C                0.1668843725        0.3335264203        0.9002420354    0   0   1
C                0.4997391573       -0.0003525363        0.1754895175    0   0   1
C                0.5002494207       -0.0002187150        0.3656153979    0   0   1
C                0.5003639237       -0.0000560873        0.9014009936    0   0   1
C                0.6666019942        0.3329913062        0.1736585611    0   0   1
C                0.8331373724        0.1662713212        0.3670275622    0   0   1
C                0.6669792229        0.3334497078        0.9004449448    0   0   1
C               -0.0003256860        0.4994247461        0.1747466462    0   0   1
C                0.0003390870        0.4999268265        0.3661433920    0   0   1
C                0.0011373612        0.5008217231        0.8996107752    0   0   1
C                0.1663241014        0.8327016193        0.1736179415    0   0   1
C                0.3338207204        0.6667193964        0.3676887853    0   0   1
C                0.1677595337        0.8338316071        0.9005093894    0   0   1
C                0.5001907478        0.4997950184        0.1760119486    0   0   1
C                0.5005622742        0.5002628036        0.3651051600    0   0   1
C                0.4999233616        0.4999243311        0.9010915213    0   0   1
C                0.6663707801        0.8330212902        0.1742534435    0   0   1
C                0.8337376108        0.6666310736        0.3677811587    0   0   1
C                0.6667469218        0.8329754374        0.9023018675    0   0   1
H                0.8123971008        1.2940522857        0.6772021642
H                0.5751413593        1.1010490948        0.6812852937
H                0.5325741271        0.8637441218        0.6930905482
H                0.6707567239        0.5891907197        0.6860292206
H                0.8556959999        0.5269083605        0.6782934823
H                0.4424865495        0.3968585523        0.6779603220
H                0.1513264169       -0.0444044955        0.6768001441
H                0.3879862694        0.1511413461        0.6777122556
H                0.0954330847        0.7153942007        0.6765297416
H                0.2916372189        0.6775154262        0.6833353206
H                0.9676468075        1.0142249319        0.6835459129
H                0.7415530886        0.8411080982        0.5417960443
H                0.0101530162        0.2505415795        0.6774802038
H                0.2456474863        0.4349468849        0.6770144890
H                0.7297825298        0.8317614662        0.6960041584
H                0.5739518967        0.8209439259        0.5416937778



     Writing config-only to output data dir ../results/8h2_abs/8H2abs_C.save/ :
     XML data file
     NEW-OLD atomic charge density approx. for the potential

     Check: negative core charge=   -0.000002

     total cpu time spent up to now is      326.2 secs

     Self-consistent Calculation

     iteration #  1     ecut=    40.00 Ry     beta= 0.05
     Davidson diagonalization with overlap
     ethr =  1.00E-06,  avg # of iterations =  8.0

     Threshold (ethr) on eigenvalues was too large:
     Diagonalizing with lowered threshold

     Davidson diagonalization with overlap
     ethr =  7.80E-08,  avg # of iterations =  5.0

     total cpu time spent up to now is      339.3 secs

     total energy              =    -303.91476573 Ry
     estimated scf accuracy    <       0.00007319 Ry

     iteration #  2     ecut=    40.00 Ry     beta= 0.05
     Davidson diagonalization with overlap
     ethr =  6.53E-08,  avg # of iterations =  1.0

     total cpu time spent up to now is      343.1 secs

     total energy              =    -303.91474851 Ry
     estimated scf accuracy    <       0.00006778 Ry

     iteration #  3     ecut=    40.00 Ry     beta= 0.05
     Davidson diagonalization with overlap
     ethr =  6.05E-08,  avg # of iterations =  2.0

     total cpu time spent up to now is      347.0 secs

     total energy              =    -303.91475219 Ry
     estimated scf accuracy    <       0.00000486 Ry

     iteration #  4     ecut=    40.00 Ry     beta= 0.05
     Davidson diagonalization with overlap
     ethr =  4.34E-09,  avg # of iterations =  4.0

     total cpu time spent up to now is      352.1 secs

     total energy              =    -303.91475394 Ry
     estimated scf accuracy    <       0.00000261 Ry

     iteration #  5     ecut=    40.00 Ry     beta= 0.05
     Davidson diagonalization with overlap
     ethr =  2.33E-09,  avg # of iterations =  2.0

     total cpu time spent up to now is      355.9 secs

     total energy              =    -303.91475407 Ry
     estimated scf accuracy    <       0.00000267 Ry

     iteration #  6     ecut=    40.00 Ry     beta= 0.05
     Davidson diagonalization with overlap
     ethr =  2.33E-09,  avg # of iterations =  1.0

     total cpu time spent up to now is      359.6 secs

     total energy              =    -303.91475408 Ry
     estimated scf accuracy    <       0.00000274 Ry

     iteration #  7     ecut=    40.00 Ry     beta= 0.05
     Davidson diagonalization with overlap
     ethr =  2.33E-09,  avg # of iterations =  1.0

     total cpu time spent up to now is      363.2 secs

     total energy              =    -303.91475350 Ry
     estimated scf accuracy    <       0.00000240 Ry

     iteration #  8     ecut=    40.00 Ry     beta= 0.05
     Davidson diagonalization with overlap
     ethr =  2.14E-09,  avg # of iterations =  2.0

     total cpu time spent up to now is      367.1 secs

     total energy              =    -303.91475366 Ry
     estimated scf accuracy    <       0.00000120 Ry

     iteration #  9     ecut=    40.00 Ry     beta= 0.05
     Davidson diagonalization with overlap
     ethr =  1.07E-09,  avg # of iterations =  1.0

     total cpu time spent up to now is      370.7 secs

     total energy              =    -303.91475371 Ry
     estimated scf accuracy    <       0.00000120 Ry

     iteration # 10     ecut=    40.00 Ry     beta= 0.05
     Davidson diagonalization with overlap
     ethr =  1.07E-09,  avg # of iterations =  1.0

     total cpu time spent up to now is      374.4 secs

     total energy              =    -303.91475386 Ry
     estimated scf accuracy    <       0.00000120 Ry

     iteration # 11     ecut=    40.00 Ry     beta= 0.05
     Davidson diagonalization with overlap
     ethr =  1.07E-09,  avg # of iterations =  2.0

     total cpu time spent up to now is      378.5 secs

     total energy              =    -303.91475403 Ry
     estimated scf accuracy    <       0.00000173 Ry

     iteration # 12     ecut=    40.00 Ry     beta= 0.05
     Davidson diagonalization with overlap
     ethr =  1.07E-09,  avg # of iterations =  1.0

     total cpu time spent up to now is      382.4 secs

     total energy              =    -303.91475404 Ry
     estimated scf accuracy    <       0.00000199 Ry

     iteration # 13     ecut=    40.00 Ry     beta= 0.05
     Davidson diagonalization with overlap
     ethr =  1.07E-09,  avg # of iterations =  1.0

     total cpu time spent up to now is      386.0 secs

     total energy              =    -303.91475376 Ry
     estimated scf accuracy    <       0.00000209 Ry

     iteration # 14     ecut=    40.00 Ry     beta= 0.05
     Davidson diagonalization with overlap
     ethr =  1.07E-09,  avg # of iterations =  1.0

     total cpu time spent up to now is      389.7 secs

     total energy              =    -303.91475357 Ry
     estimated scf accuracy    <       0.00000171 Ry

     iteration # 15     ecut=    40.00 Ry     beta= 0.05
     Davidson diagonalization with overlap
     ethr =  1.07E-09,  avg # of iterations =  1.0

     total cpu time spent up to now is      393.3 secs

     total energy              =    -303.91475350 Ry
     estimated scf accuracy    <       0.00000129 Ry

     iteration # 16     ecut=    40.00 Ry     beta= 0.05
     Davidson diagonalization with overlap
     ethr =  1.07E-09,  avg # of iterations =  1.0

     total cpu time spent up to now is      397.1 secs

     total energy              =    -303.91475357 Ry
     estimated scf accuracy    <       0.00000113 Ry

     iteration # 17     ecut=    40.00 Ry     beta= 0.05
     Davidson diagonalization with overlap
     ethr =  1.01E-09,  avg # of iterations =  1.0

     total cpu time spent up to now is      400.7 secs

     total energy              =    -303.91475330 Ry
     estimated scf accuracy    <       0.00000107 Ry

     iteration # 18     ecut=    40.00 Ry     beta= 0.05
     Davidson diagonalization with overlap
     ethr =  9.52E-10,  avg # of iterations =  2.0

     total cpu time spent up to now is      404.6 secs

     total energy              =    -303.91475349 Ry
     estimated scf accuracy    <       0.00000053 Ry

     iteration # 19     ecut=    40.00 Ry     beta= 0.05
     Davidson diagonalization with overlap
     ethr =  4.73E-10,  avg # of iterations =  4.0

     total cpu time spent up to now is      408.9 secs

     total energy              =    -303.91475339 Ry
     estimated scf accuracy    <       0.00000043 Ry

     iteration # 20     ecut=    40.00 Ry     beta= 0.05
     Davidson diagonalization with overlap
     ethr =  3.86E-10,  avg # of iterations =  2.0

     total cpu time spent up to now is      412.9 secs

     total energy              =    -303.91475337 Ry
     estimated scf accuracy    <       0.00000020 Ry

     iteration # 21     ecut=    40.00 Ry     beta= 0.05
     Davidson diagonalization with overlap
     ethr =  1.76E-10,  avg # of iterations =  1.0

     total cpu time spent up to now is      416.6 secs

     total energy              =    -303.91475336 Ry
     estimated scf accuracy    <       0.00000015 Ry

     iteration # 22     ecut=    40.00 Ry     beta= 0.05
     Davidson diagonalization with overlap
     ethr =  1.30E-10,  avg # of iterations =  2.0

     total cpu time spent up to now is      421.4 secs

     total energy              =    -303.91475330 Ry
     estimated scf accuracy    <       0.00000014 Ry

     iteration # 23     ecut=    40.00 Ry     beta= 0.05
     Davidson diagonalization with overlap
     ethr =  1.24E-10,  avg # of iterations =  1.0

     total cpu time spent up to now is      425.0 secs

     total energy              =    -303.91475333 Ry
     estimated scf accuracy    <       0.00000009 Ry

     iteration # 24     ecut=    40.00 Ry     beta= 0.05
     Davidson diagonalization with overlap
     ethr =  7.66E-11,  avg # of iterations =  4.0

     total cpu time spent up to now is      429.2 secs

     total energy              =    -303.91475334 Ry
     estimated scf accuracy    <       0.00000002 Ry

     iteration # 25     ecut=    40.00 Ry     beta= 0.05
     Davidson diagonalization with overlap
     ethr =  2.04E-11,  avg # of iterations =  2.0

     total cpu time spent up to now is      432.9 secs

     End of self-consistent calculation

          k = 0.0000 0.0000 0.0000 (  7409 PWs)   bands (ev):

   -14.1570 -13.1366 -12.7211  -8.6969  -8.6889  -8.6530  -8.1805  -8.1677
    -8.1578  -7.9024  -7.8972  -7.8702  -7.6873  -7.2231  -7.2174  -7.2120
    -6.9957  -6.9855  -6.9761  -6.8855  -6.8780  -6.8743  -3.5393  -1.5510
    -1.0095  -0.7343  -0.7184  -0.7142  -0.2653  -0.2533  -0.2472  -0.2294
    -0.2127  -0.2073  -0.0954  -0.0697   0.0520   0.0856   0.1037   0.1765
     1.4584   2.2119   2.2208   2.3196   2.7580   2.7625   2.9617   2.9676
     3.1238   3.1304   3.5774   3.5865   3.6390   4.0782   4.0956   4.1207
     7.2533   7.2703   7.2831   7.8368   7.8517   7.8783   8.2557   8.2941
     8.3117   9.7439  11.3903

     the Fermi energy is     5.6838 ev

!    total energy              =    -303.91475334 Ry
     estimated scf accuracy    <       0.00000001 Ry
     smearing contrib. (-TS)   =      -0.00000000 Ry
     internal energy E=F+TS    =    -303.91475334 Ry

     The total energy is F=E-TS. E is the sum of the following terms:
     one-electron contribution =    -276.72898552 Ry
     hartree contribution      =     191.15868189 Ry
     xc contribution           =    -110.74474715 Ry
     ewald contribution        =    -107.59970256 Ry

     convergence has been achieved in  25 iterations

     Forces acting on atoms (cartesian axes, Ry/au):

     atom    1 type  1   force =     0.00000642    0.00185150    0.00090671
     atom    2 type  1   force =     0.00604848    0.00508261   -0.00136563
     atom    3 type  1   force =     0.00099483    0.00296404   -0.00002563
     atom    4 type  1   force =    -0.00011067   -0.00302794    0.00175073
     atom    5 type  1   force =    -0.00130960    0.00014344   -0.00240358
     atom    6 type  1   force =     0.00033477   -0.00270500    0.00023950
     atom    7 type  1   force =    -0.00058544    0.00030509    0.00073993
     atom    8 type  1   force =    -0.00672576    0.00526425   -0.00121259
     atom    9 type  1   force =     0.00201911    0.00465603    0.00011103
     atom   10 type  1   force =     0.00119536   -0.00148536    0.00174957
     atom   11 type  1   force =     0.00285559    0.00911851   -0.00191770
     atom   12 type  1   force =     0.00087368    0.00075687    0.00025008
     atom   13 type  1   force =     0.00073215    0.00041848    0.00111902
     atom   14 type  1   force =     0.00044275   -0.00166083   -0.00176220
     atom   15 type  1   force =    -0.00419019   -0.00517047    0.00010344
     atom   16 type  1   force =    -0.00107330    0.00114217    0.00171464
     atom   17 type  1   force =    -0.00706247   -0.00502913   -0.00211791
     atom   18 type  1   force =    -0.00525324   -0.00038332   -0.00005523
     atom   19 type  1   force =    -0.00295505   -0.00129460    0.00092537
     atom   20 type  1   force =     0.00021740   -0.00922547   -0.00094841
     atom   21 type  1   force =     0.00356820   -0.00112457    0.00030541
     atom   22 type  1   force =     0.00215560    0.00179395    0.00167715
     atom   23 type  1   force =     0.00487737   -0.00296371   -0.00217018
     atom   24 type  1   force =     0.00080587    0.00162319   -0.00009119
     atom   25 type  2   force =     0.00064280    0.00017593    0.00037088
     atom   26 type  2   force =     0.00000485    0.00070116    0.00036181
     atom   27 type  2   force =    -0.00003435   -0.00000911   -0.00092575
     atom   28 type  2   force =     0.00050447   -0.00051227   -0.00013525
     atom   29 type  2   force =     0.00008755    0.00012170   -0.00031137
     atom   30 type  2   force =     0.00024875   -0.00060597    0.00081710
     atom   31 type  2   force =    -0.00004740    0.00021659    0.00074525
     atom   32 type  2   force =     0.00019174    0.00012627    0.00056162
     atom   33 type  2   force =     0.00059483    0.00028767    0.00084393
     atom   34 type  2   force =    -0.00009246   -0.00009602   -0.00005241
     atom   35 type  2   force =    -0.00036245   -0.00016142   -0.00051477
     atom   36 type  2   force =     0.00025315   -0.00022291    0.00010412
     atom   37 type  2   force =    -0.00010372   -0.00040423    0.00083527
     atom   38 type  2   force =    -0.00012023    0.00050693    0.00112797
     atom   39 type  2   force =    -0.00025528   -0.00069284   -0.00115702
     atom   40 type  2   force =     0.00062591   -0.00048123   -0.00019369

     Total force =     0.007284     Total SCF correction =     0.000175


     Computing stress (Cartesian axis) and pressure

          total   stress  (Ry/bohr**3)                   (kbar)     P=        1.13
  -0.00000650  -0.00000066   0.00000136           -0.96       -0.10        0.20
  -0.00000066  -0.00000525   0.00000086           -0.10       -0.77        0.13
   0.00000136   0.00000086   0.00003472            0.20        0.13        5.11

     Energy error            =      6.3E-04 Ry
     Gradient error          =      2.4E-03 Ry/Bohr
     Cell gradient error     =      5.1E+00 kbar

     number of scf cycles    =   4
     number of bfgs steps    =   3

     enthalpy           old  =    -303.9141238059 Ry
     enthalpy           new  =    -303.9147533410 Ry

     CASE: enthalpy          _new < enthalpy          _old

     new trust radius        =       0.0741981095 bohr
     new conv_thr            =       0.0000000240 Ry

     new unit-cell volume =   1791.78613 a.u.^3 (   265.51531 Ang^3 )
     density =      1.90366 g/cm^3

CELL_PARAMETERS (alat=  8.00000437)
   1.171950019  -0.000117803  -0.003076310
  -0.586071955   1.015093604   0.000146165
   0.006564047   0.004056418   2.941861039

ATOMIC_POSITIONS (crystal)
C               -0.0002372740       -0.0004415662        0.1754198238    0   0   1
C               -0.0000879367       -0.0002299814        0.3658792772    0   0   1
C                0.0000810467       -0.0003148003        0.9012593921    0   0   1
C                0.1665190247        0.3330669145        0.1740008994    0   0   1
C                0.3336286980        0.1665957941        0.3668455185    0   0   1
C                0.1668840881        0.3335262311        0.9002985283    0   0   1
C                0.4997387849       -0.0003527997        0.1755706696    0   0   1
C                0.5002501738       -0.0002181920        0.3654557177    0   0   1
C                0.5003636448       -0.0000562678        0.9014541357    0   0   1
C                0.6666007160        0.3329904242        0.1739267525    0   0   1
C                0.8331393440        0.1662726471        0.3666294529    0   0   1
C                0.6669787734        0.3334494141        0.9005318662    0   0   1
C               -0.0003260065        0.4994244997        0.1748254219    0   0   1
C                0.0003400133        0.4999274819        0.3659415228    0   0   1
C                0.0011372213        0.5008216308        0.8996382488    0   0   1
C                0.1663230112        0.8327008571        0.1738511690    0   0   1
C                0.3338223968        0.6667205449        0.3673407832    0   0   1
C                0.1677595146        0.8338315976        0.9005117462    0   0   1
C                0.5001903739        0.4997947460        0.1760970225    0   0   1
C                0.5005632200        0.5002634369        0.3649152992    0   0   1
C                0.4999225551        0.4999238098        0.9012448809    0   0   1
C                0.6663697595        0.8330205735        0.1744732023    0   0   1
C                0.8337392130        0.6666321775        0.3674457311    0   0   1
C                0.6667464915        0.8329751702        0.9023787793    0   0   1
H                0.8128260361        1.2944219718        0.6772550801
H                0.5753780639        1.1013757955        0.6813525112
H                0.5329649808        0.8637895413        0.6928895060
H                0.6710632105        0.5888947452        0.6860170613
H                0.8556615390        0.5272890733        0.6781350730
H                0.4426488484        0.3968154859        0.6781220170
H                0.1510265113       -0.0445108079        0.6769571330
H                0.3881244735        0.1512706984        0.6778391667
H                0.0953221323        0.7155983976        0.6767102225
H                0.2917262869        0.6774442639        0.6833273288
H                0.9673863291        1.0139950442        0.6833313418
H                0.7417456587        0.8409578565        0.5418138088
H                0.0103011106        0.2503178460        0.6776788593
H                0.2457064769        0.4349826244        0.6772668513
H                0.7291539793        0.8309865371        0.6957650243
H                0.5740883339        0.8205937085        0.5416244474



     Writing config-only to output data dir ../results/8h2_abs/8H2abs_C.save/ :
     XML data file
     NEW-OLD atomic charge density approx. for the potential

     Check: negative core charge=   -0.000002

     total cpu time spent up to now is      442.1 secs

     Self-consistent Calculation

     iteration #  1     ecut=    40.00 Ry     beta= 0.05
     Davidson diagonalization with overlap
     ethr =  1.00E-06,  avg # of iterations =  8.0

     total cpu time spent up to now is      451.3 secs

     total energy              =    -303.91524136 Ry
     estimated scf accuracy    <       0.00022472 Ry

     iteration #  2     ecut=    40.00 Ry     beta= 0.05
     Davidson diagonalization with overlap
     ethr =  2.01E-07,  avg # of iterations =  2.0

     total cpu time spent up to now is      455.2 secs

     total energy              =    -303.91523304 Ry
     estimated scf accuracy    <       0.00021613 Ry

     iteration #  3     ecut=    40.00 Ry     beta= 0.05
     Davidson diagonalization with overlap
     ethr =  1.93E-07,  avg # of iterations =  1.0

     total cpu time spent up to now is      458.9 secs

     total energy              =    -303.91518574 Ry
     estimated scf accuracy    <       0.00013352 Ry

     iteration #  4     ecut=    40.00 Ry     beta= 0.05
     Davidson diagonalization with overlap
     ethr =  1.19E-07,  avg # of iterations =  2.0

     total cpu time spent up to now is      463.1 secs

     total energy              =    -303.91520432 Ry
     estimated scf accuracy    <       0.00000472 Ry

     iteration #  5     ecut=    40.00 Ry     beta= 0.05
     Davidson diagonalization with overlap
     ethr =  4.21E-09,  avg # of iterations =  5.0

     total cpu time spent up to now is      468.7 secs

     total energy              =    -303.91520698 Ry
     estimated scf accuracy    <       0.00000466 Ry

     iteration #  6     ecut=    40.00 Ry     beta= 0.05
     Davidson diagonalization with overlap
     ethr =  4.16E-09,  avg # of iterations =  1.0

     total cpu time spent up to now is      472.3 secs

     total energy              =    -303.91520662 Ry
     estimated scf accuracy    <       0.00000428 Ry

     iteration #  7     ecut=    40.00 Ry     beta= 0.05
     Davidson diagonalization with overlap
     ethr =  3.82E-09,  avg # of iterations =  1.0

     total cpu time spent up to now is      476.8 secs

     total energy              =    -303.91520577 Ry
     estimated scf accuracy    <       0.00000269 Ry

     iteration #  8     ecut=    40.00 Ry     beta= 0.05
     Davidson diagonalization with overlap
     ethr =  2.40E-09,  avg # of iterations =  2.0

     total cpu time spent up to now is      481.0 secs

     total energy              =    -303.91520615 Ry
     estimated scf accuracy    <       0.00000117 Ry

     iteration #  9     ecut=    40.00 Ry     beta= 0.05
     Davidson diagonalization with overlap
     ethr =  1.05E-09,  avg # of iterations =  2.0

     total cpu time spent up to now is      485.2 secs

     total energy              =    -303.91520612 Ry
     estimated scf accuracy    <       0.00000112 Ry

     iteration # 10     ecut=    40.00 Ry     beta= 0.05
     Davidson diagonalization with overlap
     ethr =  1.00E-09,  avg # of iterations =  1.0

     total cpu time spent up to now is      488.8 secs

     total energy              =    -303.91520589 Ry
     estimated scf accuracy    <       0.00000095 Ry

     iteration # 11     ecut=    40.00 Ry     beta= 0.05
     Davidson diagonalization with overlap
     ethr =  8.44E-10,  avg # of iterations =  2.0

     total cpu time spent up to now is      492.9 secs

     total energy              =    -303.91520597 Ry
     estimated scf accuracy    <       0.00000063 Ry

     iteration # 12     ecut=    40.00 Ry     beta= 0.05
     Davidson diagonalization with overlap
     ethr =  5.62E-10,  avg # of iterations =  1.0

     total cpu time spent up to now is      496.5 secs

     total energy              =    -303.91520585 Ry
     estimated scf accuracy    <       0.00000061 Ry

     iteration # 13     ecut=    40.00 Ry     beta= 0.05
     Davidson diagonalization with overlap
     ethr =  5.47E-10,  avg # of iterations =  1.0

     total cpu time spent up to now is      500.1 secs

     total energy              =    -303.91520593 Ry
     estimated scf accuracy    <       0.00000043 Ry

     iteration # 14     ecut=    40.00 Ry     beta= 0.05
     Davidson diagonalization with overlap
     ethr =  3.81E-10,  avg # of iterations =  4.0

     total cpu time spent up to now is      504.4 secs

     total energy              =    -303.91520593 Ry
     estimated scf accuracy    <       0.00000049 Ry

     iteration # 15     ecut=    40.00 Ry     beta= 0.05
     Davidson diagonalization with overlap
     ethr =  3.81E-10,  avg # of iterations =  1.0

     total cpu time spent up to now is      508.0 secs

     total energy              =    -303.91520566 Ry
     estimated scf accuracy    <       0.00000055 Ry

     iteration # 16     ecut=    40.00 Ry     beta= 0.05
     Davidson diagonalization with overlap
     ethr =  3.81E-10,  avg # of iterations =  4.0

     total cpu time spent up to now is      512.1 secs

     total energy              =    -303.91520582 Ry
     estimated scf accuracy    <       0.00000014 Ry

     iteration # 17     ecut=    40.00 Ry     beta= 0.05
     Davidson diagonalization with overlap
     ethr =  1.24E-10,  avg # of iterations =  4.0

     total cpu time spent up to now is      516.5 secs

     total energy              =    -303.91520586 Ry
     estimated scf accuracy    <       0.00000010 Ry

     iteration # 18     ecut=    40.00 Ry     beta= 0.05
     Davidson diagonalization with overlap
     ethr =  9.09E-11,  avg # of iterations =  2.0

     total cpu time spent up to now is      520.6 secs

     total energy              =    -303.91520578 Ry
     estimated scf accuracy    <       0.00000013 Ry

     iteration # 19     ecut=    40.00 Ry     beta= 0.05
     Davidson diagonalization with overlap
     ethr =  9.09E-11,  avg # of iterations =  1.0

     total cpu time spent up to now is      524.1 secs

     total energy              =    -303.91520577 Ry
     estimated scf accuracy    <       0.00000006 Ry

[...]

     total cpu time spent up to now is     2786.7 secs

     total energy              =    -303.92037482 Ry
     estimated scf accuracy    <       0.00002293 Ry

     iteration # 28     ecut=    40.00 Ry     beta= 0.05
     Davidson diagonalization with overlap
     ethr =  2.05E-08,  avg # of iterations =  2.0

     total cpu time spent up to now is     2792.6 secs

     total energy              =    -303.92037846 Ry
     estimated scf accuracy    <       0.00001916 Ry

     iteration # 29     ecut=    40.00 Ry     beta= 0.05
     Davidson diagonalization with overlap
     ethr =  1.71E-08,  avg # of iterations =  1.0

     total cpu time spent up to now is     2796.5 secs

     total energy              =    -303.92037465 Ry
     estimated scf accuracy    <       0.00002438 Ry

     iteration # 30     ecut=    40.00 Ry     beta= 0.05
     Davidson diagonalization with overlap
     ethr =  1.71E-08,  avg # of iterations =  1.0

     total cpu time spent up to now is     2800.6 secs

     total energy              =    -303.92037437 Ry
     estimated scf accuracy    <       0.00001715 Ry

     iteration # 31     ecut=    40.00 Ry     beta= 0.05
     Davidson diagonalization with overlap
     ethr =  1.53E-08,  avg # of iterations =  2.0

     total cpu time spent up to now is     2804.9 secs

     total energy              =    -303.92037360 Ry
     estimated scf accuracy    <       0.00001548 Ry

     iteration # 32     ecut=    40.00 Ry     beta= 0.05
     Davidson diagonalization with overlap
     ethr =  1.38E-08,  avg # of iterations =  1.0

     total cpu time spent up to now is     2808.8 secs

     total energy              =    -303.92037422 Ry
     estimated scf accuracy    <       0.00001147 Ry

     iteration # 33     ecut=    40.00 Ry     beta= 0.05
     Davidson diagonalization with overlap
     ethr =  1.02E-08,  avg # of iterations =  1.0

     total cpu time spent up to now is     2813.6 secs

     total energy              =    -303.92037358 Ry
     estimated scf accuracy    <       0.00001143 Ry

     iteration # 34     ecut=    40.00 Ry     beta= 0.05
     Davidson diagonalization with overlap
     ethr =  1.02E-08,  avg # of iterations =  1.0

     total cpu time spent up to now is     2817.6 secs

     total energy              =    -303.92037355 Ry
     estimated scf accuracy    <       0.00001086 Ry

     iteration # 35     ecut=    40.00 Ry     beta= 0.05
     Davidson diagonalization with overlap
     ethr =  9.70E-09,  avg # of iterations =  1.0

     total cpu time spent up to now is     2821.6 secs

     total energy              =    -303.92037361 Ry
     estimated scf accuracy    <       0.00001041 Ry

     iteration # 36     ecut=    40.00 Ry     beta= 0.05
     Davidson diagonalization with overlap
     ethr =  9.30E-09,  avg # of iterations =  1.0

     total cpu time spent up to now is     2825.8 secs

     total energy              =    -303.92037340 Ry
     estimated scf accuracy    <       0.00001005 Ry

     iteration # 37     ecut=    40.00 Ry     beta= 0.05
     Davidson diagonalization with overlap
     ethr =  8.97E-09,  avg # of iterations =  1.0

     total cpu time spent up to now is     2829.7 secs

     total energy              =    -303.92037274 Ry
     estimated scf accuracy    <       0.00000905 Ry

     iteration # 38     ecut=    40.00 Ry     beta= 0.05
     Davidson diagonalization with overlap
     ethr =  8.08E-09,  avg # of iterations =  1.0

     total cpu time spent up to now is     2833.7 secs

     total energy              =    -303.92037253 Ry
     estimated scf accuracy    <       0.00000788 Ry

     iteration # 39     ecut=    40.00 Ry     beta= 0.05
     Davidson diagonalization with overlap
     ethr =  7.03E-09,  avg # of iterations =  1.0

     total cpu time spent up to now is     2837.9 secs

     total energy              =    -303.92037171 Ry
     estimated scf accuracy    <       0.00000692 Ry

     iteration # 40     ecut=    40.00 Ry     beta= 0.05
     Davidson diagonalization with overlap
     ethr =  6.18E-09,  avg # of iterations =  2.0

     total cpu time spent up to now is     2842.1 secs

     total energy              =    -303.92037197 Ry
     estimated scf accuracy    <       0.00000419 Ry

     iteration # 41     ecut=    40.00 Ry     beta= 0.05
     Davidson diagonalization with overlap
     ethr =  3.74E-09,  avg # of iterations =  1.0

     total cpu time spent up to now is     2846.0 secs

     total energy              =    -303.92037153 Ry
     estimated scf accuracy    <       0.00000382 Ry

     iteration # 42     ecut=    40.00 Ry     beta= 0.05
     Davidson diagonalization with overlap
     ethr =  3.41E-09,  avg # of iterations =  1.0

     total cpu time spent up to now is     2850.1 secs

     total energy              =    -303.92037149 Ry
     estimated scf accuracy    <       0.00000341 Ry

     iteration # 43     ecut=    40.00 Ry     beta= 0.05
     Davidson diagonalization with overlap
     ethr =  3.04E-09,  avg # of iterations =  1.0

     total cpu time spent up to now is     2854.0 secs

     total energy              =    -303.92037103 Ry
     estimated scf accuracy    <       0.00000313 Ry

     iteration # 44     ecut=    40.00 Ry     beta= 0.05
     Davidson diagonalization with overlap
     ethr =  2.79E-09,  avg # of iterations =  1.0

     total cpu time spent up to now is     2857.9 secs

     total energy              =    -303.92037053 Ry
     estimated scf accuracy    <       0.00000265 Ry

     iteration # 45     ecut=    40.00 Ry     beta= 0.05
     Davidson diagonalization with overlap
     ethr =  2.36E-09,  avg # of iterations =  2.0

     total cpu time spent up to now is     2862.3 secs

     total energy              =    -303.92037068 Ry
     estimated scf accuracy    <       0.00000215 Ry

     iteration # 46     ecut=    40.00 Ry     beta= 0.05
     Davidson diagonalization with overlap
     ethr =  1.92E-09,  avg # of iterations =  1.0

     total cpu time spent up to now is     2866.2 secs

     total energy              =    -303.92037057 Ry
     estimated scf accuracy    <       0.00000217 Ry

     iteration # 47     ecut=    40.00 Ry     beta= 0.05
     Davidson diagonalization with overlap
     ethr =  1.92E-09,  avg # of iterations =  1.0

     total cpu time spent up to now is     2870.1 secs

     total energy              =    -303.92037058 Ry
     estimated scf accuracy    <       0.00000217 Ry

     iteration # 48     ecut=    40.00 Ry     beta= 0.05
     Davidson diagonalization with overlap
     ethr =  1.92E-09,  avg # of iterations =  1.0

     total cpu time spent up to now is     2874.2 secs

     total energy              =    -303.92037060 Ry
     estimated scf accuracy    <       0.00000214 Ry

     iteration # 49     ecut=    40.00 Ry     beta= 0.05
     Davidson diagonalization with overlap
     ethr =  1.91E-09,  avg # of iterations =  1.0

     total cpu time spent up to now is     2878.1 secs

     total energy              =    -303.92037060 Ry
     estimated scf accuracy    <       0.00000217 Ry

     iteration # 50     ecut=    40.00 Ry     beta= 0.05
     Davidson diagonalization with overlap
     ethr =  1.91E-09,  avg # of iterations =  1.0

     total cpu time spent up to now is     2882.0 secs

     total energy              =    -303.92037057 Ry
     estimated scf accuracy    <       0.00000221 Ry

     iteration # 51     ecut=    40.00 Ry     beta= 0.05
     Davidson diagonalization with overlap
     ethr =  1.91E-09,  avg # of iterations =  1.0

     total cpu time spent up to now is     2886.1 secs

     total energy              =    -303.92037060 Ry
     estimated scf accuracy    <       0.00000212 Ry

     iteration # 52     ecut=    40.00 Ry     beta= 0.05
     Davidson diagonalization with overlap
     ethr =  1.89E-09,  avg # of iterations =  1.0

     total cpu time spent up to now is     2890.0 secs

     total energy              =    -303.92037066 Ry
     estimated scf accuracy    <       0.00000211 Ry

     iteration # 53     ecut=    40.00 Ry     beta= 0.05
     Davidson diagonalization with overlap
     ethr =  1.89E-09,  avg # of iterations =  1.0

     total cpu time spent up to now is     2893.9 secs

     total energy              =    -303.92037067 Ry
     estimated scf accuracy    <       0.00000208 Ry

     iteration # 54     ecut=    40.00 Ry     beta= 0.05
     Davidson diagonalization with overlap
     ethr =  1.86E-09,  avg # of iterations =  1.0

     total cpu time spent up to now is     2898.0 secs

     total energy              =    -303.92037067 Ry
     estimated scf accuracy    <       0.00000209 Ry

     iteration # 55     ecut=    40.00 Ry     beta= 0.05
     Davidson diagonalization with overlap
     ethr =  1.86E-09,  avg # of iterations =  1.0

     total cpu time spent up to now is     2901.9 secs

     total energy              =    -303.92037068 Ry
     estimated scf accuracy    <       0.00000208 Ry

     iteration # 56     ecut=    40.00 Ry     beta= 0.05
     Davidson diagonalization with overlap
     ethr =  1.86E-09,  avg # of iterations =  1.0

     total cpu time spent up to now is     2905.8 secs

     total energy              =    -303.92037072 Ry
     estimated scf accuracy    <       0.00000209 Ry

     iteration # 57     ecut=    40.00 Ry     beta= 0.05
     Davidson diagonalization with overlap
     ethr =  1.86E-09,  avg # of iterations =  1.0

     total cpu time spent up to now is     2909.9 secs

     total energy              =    -303.92037066 Ry
     estimated scf accuracy    <       0.00000204 Ry

     iteration # 58     ecut=    40.00 Ry     beta= 0.05
     Davidson diagonalization with overlap
     ethr =  1.83E-09,  avg # of iterations =  1.0

     total cpu time spent up to now is     2913.8 secs

     total energy              =    -303.92037057 Ry
     estimated scf accuracy    <       0.00000193 Ry

     iteration # 59     ecut=    40.00 Ry     beta= 0.05
     Davidson diagonalization with overlap
     ethr =  1.72E-09,  avg # of iterations =  1.0

     total cpu time spent up to now is     2917.7 secs

     total energy              =    -303.92037024 Ry
     estimated scf accuracy    <       0.00000179 Ry

     iteration # 60     ecut=    40.00 Ry     beta= 0.05
     Davidson diagonalization with overlap
     ethr =  1.60E-09,  avg # of iterations =  2.0

     total cpu time spent up to now is     2922.1 secs

     total energy              =    -303.92037009 Ry
     estimated scf accuracy    <       0.00000136 Ry

     iteration # 61     ecut=    40.00 Ry     beta= 0.05
     Davidson diagonalization with overlap
     ethr =  1.21E-09,  avg # of iterations =  2.0

     total cpu time spent up to now is     2926.2 secs

     total energy              =    -303.92036995 Ry
     estimated scf accuracy    <       0.00000119 Ry

     iteration # 62     ecut=    40.00 Ry     beta= 0.05
     Davidson diagonalization with overlap
     ethr =  1.06E-09,  avg # of iterations =  2.0

     total cpu time spent up to now is     2930.5 secs

     total energy              =    -303.92037012 Ry
     estimated scf accuracy    <       0.00000043 Ry

     iteration # 63     ecut=    40.00 Ry     beta= 0.05
     Davidson diagonalization with overlap
     ethr =  3.80E-10,  avg # of iterations =  2.0

     total cpu time spent up to now is     2934.8 secs

     total energy              =    -303.92037011 Ry
     estimated scf accuracy    <       0.00000021 Ry

     iteration # 64     ecut=    40.00 Ry     beta= 0.05
     Davidson diagonalization with overlap
     ethr =  1.88E-10,  avg # of iterations =  2.0

     total cpu time spent up to now is     2939.1 secs

     total energy              =    -303.92036999 Ry
     estimated scf accuracy    <       0.00000012 Ry

     iteration # 65     ecut=    40.00 Ry     beta= 0.05
     Davidson diagonalization with overlap
     ethr =  1.10E-10,  avg # of iterations =  2.0

     total cpu time spent up to now is     2943.4 secs

     total energy              =    -303.92037004 Ry
     estimated scf accuracy    <       0.00000003 Ry

     iteration # 66     ecut=    40.00 Ry     beta= 0.05
     Davidson diagonalization with overlap
     ethr =  2.74E-11,  avg # of iterations =  4.0

     total cpu time spent up to now is     2948.6 secs

     total energy              =    -303.92037005 Ry
     estimated scf accuracy    <       0.00000001 Ry

     iteration # 67     ecut=    40.00 Ry     beta= 0.05
     Davidson diagonalization with overlap
     ethr =  1.13E-11,  avg # of iterations =  4.0

     total cpu time spent up to now is     2952.6 secs

     End of self-consistent calculation

          k = 0.0000 0.0000 0.0000 (  7799 PWs)   bands (ev):

   -14.4619 -13.3872 -12.9661  -8.9915  -8.9870  -8.9613  -8.4635  -8.4538
    -8.4410  -8.1574  -8.1493  -8.1244  -7.9160  -7.4801  -7.4764  -7.4664
    -7.2473  -7.2359  -7.2280  -7.1396  -7.1327  -7.1307  -3.7886  -1.7940
    -1.2039  -1.0158  -1.0044  -1.0017  -0.5220  -0.5114  -0.5068  -0.4858
    -0.4675  -0.4612  -0.3316  -0.3093  -0.1767  -0.1601  -0.1375  -0.0480
     1.0125   1.9349   1.9449   2.0080   2.4788   2.4848   2.6951   2.7015
     2.8741   2.8811   3.3396   3.3477   3.3840   3.8090   3.8127   3.8415
     7.0399   7.0577   7.0670   7.5892   7.6059   7.6448   7.9982   8.0228
     8.0418   9.2278  10.9039

     the Fermi energy is     5.2428 ev

!    total energy              =    -303.92037001 Ry
     estimated scf accuracy    <          9.2E-09 Ry
     smearing contrib. (-TS)   =      -0.00000000 Ry
     internal energy E=F+TS    =    -303.92037001 Ry

     The total energy is F=E-TS. E is the sum of the following terms:
     one-electron contribution =    -332.47720934 Ry
     hartree contribution      =     217.94091601 Ry
     xc contribution           =    -110.73767198 Ry
     ewald contribution        =     -78.64640470 Ry

     convergence has been achieved in  67 iterations

     Forces acting on atoms (cartesian axes, Ry/au):

     atom    1 type  1   force =    -0.00003563    0.00204209   -0.00005762
     atom    2 type  1   force =     0.00527507    0.00357499   -0.00012343
     atom    3 type  1   force =     0.00074002    0.00299674    0.00023893
     atom    4 type  1   force =     0.00059297   -0.00243900    0.00026481
     atom    5 type  1   force =    -0.00154034   -0.00006175    0.00052642
     atom    6 type  1   force =     0.00002219   -0.00269014   -0.00005157
     atom    7 type  1   force =    -0.00065623    0.00022406   -0.00014351
     atom    8 type  1   force =    -0.00519936    0.00375129   -0.00006844
     atom    9 type  1   force =     0.00210651    0.00441443    0.00004291
     atom   10 type  1   force =     0.00043506   -0.00127003    0.00016258
     atom   11 type  1   force =     0.00270122    0.00625297   -0.00087404
     atom   12 type  1   force =     0.00113279    0.00105670    0.00001267
     atom   13 type  1   force =     0.00130793    0.00054480    0.00021424
     atom   14 type  1   force =    -0.00033444   -0.00127258   -0.00039056
     atom   15 type  1   force =    -0.00419028   -0.00527058    0.00025798
     atom   16 type  1   force =    -0.00069677    0.00211240    0.00053632
     atom   17 type  1   force =    -0.00485395   -0.00406663   -0.00032980
     atom   18 type  1   force =    -0.00505399   -0.00093207    0.00028442
     atom   19 type  1   force =    -0.00315237   -0.00112055   -0.00013838
     atom   20 type  1   force =     0.00039686   -0.00764564   -0.00016627
     atom   21 type  1   force =     0.00377760   -0.00114493    0.00018224
     atom   22 type  1   force =     0.00217913    0.00180143   -0.00084503
     atom   23 type  1   force =     0.00358046   -0.00243598   -0.00031878
     atom   24 type  1   force =     0.00087648    0.00150949    0.00051596
     atom   25 type  2   force =    -0.00002939   -0.00022746   -0.00020093
     atom   26 type  2   force =    -0.00016046    0.00010998   -0.00000049
     atom   27 type  2   force =     0.00005978   -0.00033700    0.00033650
     atom   28 type  2   force =     0.00019077    0.00009397    0.00048524
     atom   29 type  2   force =    -0.00029999    0.00012325   -0.00014029
     atom   30 type  2   force =     0.00028329   -0.00003903   -0.00026189
     atom   31 type  2   force =     0.00020455   -0.00021706   -0.00013168
     atom   32 type  2   force =     0.00015318    0.00022129   -0.00038396
     atom   33 type  2   force =    -0.00006592   -0.00023769   -0.00019795
     atom   34 type  2   force =     0.00025113   -0.00010971   -0.00012369
     atom   35 type  2   force =     0.00026316    0.00024390    0.00053264
     atom   36 type  2   force =    -0.00040755    0.00005241   -0.00011863
     atom   37 type  2   force =    -0.00007956   -0.00000137   -0.00006931
     atom   38 type  2   force =     0.00004018    0.00023665   -0.00035003
     atom   39 type  2   force =     0.00024913    0.00020865    0.00082562
     atom   40 type  2   force =    -0.00006324   -0.00005230    0.00006677

     Total force =     0.002483     Total SCF correction =     0.000105


     Computing stress (Cartesian axis) and pressure

          total   stress  (Ry/bohr**3)                   (kbar)     P=        1.71
   0.00000620  -0.00000034  -0.00000132            0.91       -0.05       -0.19
  -0.00000034   0.00000615  -0.00000121           -0.05        0.90       -0.18
  -0.00000132  -0.00000121   0.00002260           -0.19       -0.18        3.33


     Writing all to output data dir ../results/8h2_abs/8H2abs_C.save/ :
     XML data file, charge density, pseudopotentials, collected wavefunctions

     init_run     :      6.32s CPU      5.32s WALL (       2 calls)
     electrons    :   3230.61s CPU   2656.87s WALL (      32 calls)
     update_pot   :      8.57s CPU      5.78s WALL (      30 calls)
     forces       :     99.18s CPU     86.11s WALL (      32 calls)
     stress       :    274.39s CPU    187.35s WALL (      32 calls)

     Called by init_run:
     wfcinit      :      3.68s CPU      2.89s WALL (       2 calls)
     potinit      :      0.33s CPU      0.24s WALL (       2 calls)
     hinit0       :      0.93s CPU      0.83s WALL (       2 calls)

     Called by electrons:
     c_bands      :   1796.93s CPU   1427.69s WALL (     624 calls)
     sum_band     :    812.75s CPU    734.08s WALL (     624 calls)
     v_of_rho     :     41.69s CPU     24.34s WALL (     639 calls)
     newd         :    390.36s CPU    370.17s WALL (     639 calls)
     mix_rho      :    187.48s CPU    105.32s WALL (     624 calls)

     Called by c_bands:
     init_us_2    :     14.31s CPU     11.80s WALL (    1250 calls)
     cegterg      :   1762.05s CPU   1407.19s WALL (     624 calls)

     Called by *egterg:
     cdiaghg      :     20.40s CPU     20.54s WALL (    2079 calls)
     h_psi        :   1131.61s CPU    784.61s WALL (    2128 calls)
     s_psi        :    196.87s CPU    193.53s WALL (    2128 calls)
     g_psi        :      5.81s CPU      3.29s WALL (    1502 calls)

     Called by h_psi:
     h_psi:calbec :    192.48s CPU    188.79s WALL (    2128 calls)
     vloc_psi     :    743.44s CPU    401.08s WALL (    2128 calls)
     add_vuspsi   :    191.25s CPU    192.41s WALL (    2128 calls)

     General routines
     calbec       :    292.96s CPU    288.51s WALL (    2912 calls)
     fft          :     94.48s CPU     58.73s WALL (    4073 calls)
     ffts         :     74.84s CPU     40.48s WALL (   15824 calls)
     fftw         :    633.32s CPU    350.85s WALL (  243090 calls)
     interpolate  :     19.46s CPU     11.97s WALL (     639 calls)

     Parallel routines

     PWSCF        :      1h 0m CPU  49m21.60s WALL


   This run was terminated on:   1:15:32   8Aug2024            

=------------------------------------------------------------------------------=
   JOB DONE.
=------------------------------------------------------------------------------=
