
     Program PWSCF v.7.3.1 starts on  7Aug2024 at 22:46: 8 

     This program is part of the open-source Quantum ESPRESSO suite
     for quantum simulation of materials; please cite
         "P. Giannozzi et al., J. Phys.:Condens. Matter 21 395502 (2009);
         "P. Giannozzi et al., J. Phys.:Condens. Matter 29 465901 (2017);
         "P. Giannozzi et al., J. Chem. Phys. 152 154105 (2020);
          URL http://www.quantum-espresso.org", 
     in publications or presentations arising from this work. More details at
     http://www.quantum-espresso.org/quote

     Parallel version (MPI & OpenMP), running on       4 processor cores
     Number of MPI processes:                 2
     Threads/MPI process:                     2

     MPI processes distributed on     1 nodes
     2518 MiB available memory on the printing compute node when the environment starts

     Reading input from hydrogen_absorption8.in

     Current dimensions of program PWSCF are:
     Max number of different atomic species (ntypx) = 10
     Max number of k-points (npk) =  40000
     Max angular momentum in pseudopotentials (lmaxx) =  4

     IMPORTANT: XC functional enforced from input :
     Exchange-correlation= LDA
                           (   1   1   0   0   0   0   0)
     Any further DFT definition will be discarded
     Please, verify this is what you really want


     R & G space division:  proc/nbgrp/npool/nimage =       2
     Subspace diagonalization in iterative solution of the eigenvalue problem:
     a serial algorithm will be used


     Parallelization info
     --------------------
     sticks:   dense  smooth     PW     G-vecs:    dense   smooth      PW
     Min        1203     477    120               105718    26672    3342
     Max        1204     478    121               105731    26685    3347
     Sum        2407     955    241               211449    53357    6689

     Using Slab Decomposition


     Title: 
     8H2_absorption_C                                                           


     bravais-lattice index     =            0
     lattice parameter (alat)  =       8.0000  a.u.
     unit-cell volume          =    1564.9349 (a.u.)^3
     number of atoms/cell      =           40
     number of atomic types    =            2
     number of electrons       =       112.00
     number of Kohn-Sham states=           67
     kinetic-energy cutoff     =      40.0000  Ry
     charge density cutoff     =     400.0000  Ry
     scf convergence threshold =      1.0E-06
     mixing beta               =       0.0500
     number of iterations used =            8  local-TF  mixing
     energy convergence thresh.=      1.0E-04
     force convergence thresh. =      1.0E-03
     press convergence thresh. =      5.0E-01
     Exchange-correlation= LDA
                           (   1   1   0   0   0   0   0)
     nstep                     =           50


     celldm(1)=   8.000004  celldm(2)=   0.000000  celldm(3)=   0.000000
     celldm(4)=   0.000000  celldm(5)=   0.000000  celldm(6)=   0.000000

     crystal axes: (cart. coord. in units of alat)
               a(1) = (   1.172208   0.000013  -0.000225 )  
               a(2) = (  -0.586052   1.015107   0.000211 )  
               a(3) = (   0.001426   0.000443   2.568656 )  

     reciprocal axes: (cart. coord. in units 2 pi/alat)
               b(1) = (  0.853085  0.492512 -0.000559 )  
               b(2) = ( -0.000011  0.985111 -0.000170 )  
               b(3) = (  0.000075 -0.000038  0.389309 )  


     PseudoPot. # 1 for C  read from file:
     /home/edoardocabiati/.burai/.pseudopot/C.pz-n-rrkjus_psl.0.1.UPF
     MD5 check sum: a3cecbabebb5b3a1aff122f23eb09bb0
     Pseudo is Ultrasoft + core correction, Zval =  4.0
     Generated using "atomic" code by A. Dal Corso  v.5.0.2 svn rev. 9415
     Using radial grid of 1073 points,  4 beta functions with: 
                l(1) =   0
                l(2) =   0
                l(3) =   1
                l(4) =   1
     Q(r) pseudized with 0 coefficients 


     PseudoPot. # 2 for H  read from file:
     /home/edoardocabiati/.burai/.pseudopot/H.pz-rrkjus_psl.0.1.UPF
     MD5 check sum: 1467ebfaa2880178e80d097b970df8c7
     Pseudo is Ultrasoft, Zval =  1.0
     Generated using "atomic" code by A. Dal Corso  v.5.0.2 svn rev. 9415
     Using radial grid of  929 points,  2 beta functions with: 
                l(1) =   0
                l(2) =   0
     Q(r) pseudized with 0 coefficients 


     atomic species   valence    mass     pseudopotential
     C                 4.00    12.01100     C ( 1.00)
     H                 1.00     1.00784     H ( 1.00)

     No symmetry found



   Cartesian axes

     site n.     atom                  positions (alat units)
         1        C      tau(   1) = (   0.0002009  -0.0000153   0.4929299  )
         2        C      tau(   2) = (   0.0006782   0.0003234   1.0340942  )
         3        C      tau(   3) = (   0.0010790  -0.0001296   2.2768148  )
         4        C      tau(   4) = (   0.0001757   0.3384697   0.4868509  )
         5        C      tau(   5) = (   0.2937701   0.1694384   1.0405464  )
         6        C      tau(   6) = (   0.0011080   0.3388198   2.2778022  )
         7        C      tau(   7) = (   0.5863914   0.0002493   0.4922493  )
         8        C      tau(   8) = (   0.5868495   0.0001332   1.0346138  )
         9        C      tau(   9) = (   0.5873914   0.0001512   2.2775865  )
        10        C      tau(  10) = (   0.5864361   0.3384434   0.4867838  )
        11        C      tau(  11) = (   0.8798477   0.1694206   1.0399848  )
        12        C      tau(  12) = (   0.5873185   0.3386907   2.2787336  )
        13        C      tau(  13) = (  -0.2926927   0.5075537   0.4925227  )
        14        C      tau(  14) = (  -0.2922548   0.5077944   1.0348013  )
        15        C      tau(  15) = (  -0.2917728   0.5081360   2.2779758  )
        16        C      tau(  16) = (  -0.2926913   0.8458814   0.4869415  )
        17        C      tau(  17) = (   0.0008022   0.6770309   1.0402855  )
        18        C      tau(  18) = (  -0.2916564   0.8461943   2.2779923  )
        19        C      tau(  19) = (   0.2933277   0.5075620   0.4927627  )
        20        C      tau(  20) = (   0.2938295   0.5079836   1.0343861  )
        21        C      tau(  21) = (   0.2942095   0.5080295   2.2777196  )
        22        C      tau(  22) = (   0.2932890   0.8461546   0.4866543  )
        23        C      tau(  23) = (   0.5869629   0.6769481   1.0403151  )
        24        C      tau(  24) = (   0.2942454   0.8459457   2.2776012  )
        25        H      tau(  25) = (   0.2186450   1.3301509   1.6582739  )
        26        H      tau(  26) = (   0.0463624   1.1354151   1.6578909  )
        27        H      tau(  27) = (   0.1296483   0.8962389   1.6528792  )
        28        H      tau(  28) = (   0.4586232   0.6006623   1.6587136  )
        29        H      tau(  29) = (   0.7136167   0.5495907   1.6587887  )
        30        H      tau(  30) = (   0.2978408   0.4079672   1.6597411  )
        31        H      tau(  31) = (   0.2145553  -0.0319626   1.6530332  )
        32        H      tau(  32) = (   0.3832867   0.1631254   1.6638422  )
        33        H      tau(  33) = (  -0.2883829   0.7396791   1.6532314  )
        34        H      tau(  34) = (  -0.0363708   0.6999886   1.6621743  )
        35        H      tau(  35) = (   0.5525718   1.0335155   1.6477397  )
        36        H      tau(  36) = (   0.3808939   0.8444847   1.6465428  )
        37        H      tau(  37) = (  -0.1165450   0.2606939   1.6510216  )
        38        H      tau(  38) = (   0.0475096   0.4556733   1.6546203  )
        39        H      tau(  39) = (   0.2237302   0.6905831   1.7569851  )
        40        H      tau(  40) = (   0.2236161   0.6905477   1.5514926  )

     number of k points=     1  Gaussian smearing, width (Ry)=  0.0100
                       cart. coord. in units 2pi/alat
        k(    1) = (   0.0000000   0.0000000   0.0000000), wk =   2.0000000

     Dense  grid:   211449 G-vectors     FFT dimensions: (  60,  60, 135)

     Smooth grid:    53357 G-vectors     FFT dimensions: (  40,  40,  90)

     Estimated max dynamical RAM per process >     263.21 MB

     Estimated total dynamical RAM >     526.41 MB

     Check: negative core charge=   -0.000002

     Initial potential from superposition of free atoms

     starting charge     111.9990, renormalised to     112.0000
     Starting wfcs are  112 randomized atomic wfcs

     total cpu time spent up to now is        2.9 secs

     Self-consistent Calculation

     iteration #  1     ecut=    40.00 Ry     beta= 0.05
     Davidson diagonalization with overlap
     ethr =  1.00E-02,  avg # of iterations =  3.0

     total cpu time spent up to now is        8.1 secs

     total energy              =    -304.10125893 Ry
     estimated scf accuracy    <       2.21223677 Ry

     iteration #  2     ecut=    40.00 Ry     beta= 0.05
     Davidson diagonalization with overlap
     ethr =  1.98E-03,  avg # of iterations =  4.0

     total cpu time spent up to now is       13.0 secs

     total energy              =    -305.22705689 Ry
     estimated scf accuracy    <       2.59132608 Ry

     iteration #  3     ecut=    40.00 Ry     beta= 0.05
     Davidson diagonalization with overlap
     ethr =  1.98E-03,  avg # of iterations =  1.0

     total cpu time spent up to now is       17.8 secs

     total energy              =    -303.52381776 Ry
     estimated scf accuracy    <       4.59414045 Ry

     iteration #  4     ecut=    40.00 Ry     beta= 0.05
     Davidson diagonalization with overlap
     ethr =  1.98E-03,  avg # of iterations =  2.0

     total cpu time spent up to now is       21.8 secs

     total energy              =    -303.10863792 Ry
     estimated scf accuracy    <       1.22962147 Ry

     iteration #  5     ecut=    40.00 Ry     beta= 0.05
     Davidson diagonalization with overlap
     ethr =  1.10E-03,  avg # of iterations =  2.0

     total cpu time spent up to now is       26.0 secs

     total energy              =    -303.22965800 Ry
     estimated scf accuracy    <       0.22378955 Ry

     iteration #  6     ecut=    40.00 Ry     beta= 0.05
     Davidson diagonalization with overlap
     ethr =  2.00E-04,  avg # of iterations =  4.0

     total cpu time spent up to now is       30.2 secs

     total energy              =    -303.24605226 Ry
     estimated scf accuracy    <       0.14729269 Ry

     iteration #  7     ecut=    40.00 Ry     beta= 0.05
     Davidson diagonalization with overlap
     ethr =  1.32E-04,  avg # of iterations =  1.0

     total cpu time spent up to now is       33.5 secs

     total energy              =    -303.20692212 Ry
     estimated scf accuracy    <       0.10731406 Ry

     iteration #  8     ecut=    40.00 Ry     beta= 0.05
     Davidson diagonalization with overlap
     ethr =  9.58E-05,  avg # of iterations =  3.0

     total cpu time spent up to now is       38.0 secs

     total energy              =    -303.24028035 Ry
     estimated scf accuracy    <       0.05094634 Ry

     iteration #  9     ecut=    40.00 Ry     beta= 0.05
     Davidson diagonalization with overlap
     ethr =  4.55E-05,  avg # of iterations =  7.0

     total cpu time spent up to now is       41.7 secs

     total energy              =    -303.22772156 Ry
     estimated scf accuracy    <       0.04498764 Ry

     iteration # 10     ecut=    40.00 Ry     beta= 0.05
     Davidson diagonalization with overlap
     ethr =  4.02E-05,  avg # of iterations =  2.0

     total cpu time spent up to now is       45.6 secs

     total energy              =    -303.22844742 Ry
     estimated scf accuracy    <       0.01298155 Ry

     iteration # 11     ecut=    40.00 Ry     beta= 0.05
     Davidson diagonalization with overlap
     c_bands:  1 eigenvalues not converged
     ethr =  1.16E-05,  avg # of iterations = 20.0

     total cpu time spent up to now is       50.7 secs

     total energy              =    -303.22973112 Ry
     estimated scf accuracy    <       0.00988036 Ry

     iteration # 12     ecut=    40.00 Ry     beta= 0.05
     Davidson diagonalization with overlap
     ethr =  8.82E-06,  avg # of iterations = 19.0

     total cpu time spent up to now is       54.7 secs

     total energy              =    -303.22819199 Ry
     estimated scf accuracy    <       0.00723495 Ry

     iteration # 13     ecut=    40.00 Ry     beta= 0.05
     Davidson diagonalization with overlap
     ethr =  6.46E-06,  avg # of iterations =  4.0

     total cpu time spent up to now is       58.4 secs

     total energy              =    -303.22833184 Ry
     estimated scf accuracy    <       0.00569620 Ry

     iteration # 14     ecut=    40.00 Ry     beta= 0.05
     Davidson diagonalization with overlap
     ethr =  5.09E-06,  avg # of iterations = 19.0

     total cpu time spent up to now is       62.6 secs

     total energy              =    -303.22889116 Ry
     estimated scf accuracy    <       0.00245741 Ry

     iteration # 15     ecut=    40.00 Ry     beta= 0.05
     Davidson diagonalization with overlap
     ethr =  2.19E-06,  avg # of iterations =  2.0

     total cpu time spent up to now is       66.1 secs

     total energy              =    -303.22906217 Ry
     estimated scf accuracy    <       0.00197505 Ry

     iteration # 16     ecut=    40.00 Ry     beta= 0.05
     Davidson diagonalization with overlap
     ethr =  1.76E-06,  avg # of iterations =  1.0

     total cpu time spent up to now is       69.4 secs

     total energy              =    -303.22843953 Ry
     estimated scf accuracy    <       0.00214148 Ry

     iteration # 17     ecut=    40.00 Ry     beta= 0.05
     Davidson diagonalization with overlap
     ethr =  1.76E-06,  avg # of iterations =  2.0

     total cpu time spent up to now is       73.0 secs

     total energy              =    -303.22832094 Ry
     estimated scf accuracy    <       0.00078583 Ry

     iteration # 18     ecut=    40.00 Ry     beta= 0.05
     Davidson diagonalization with overlap
     ethr =  7.02E-07,  avg # of iterations =  4.0

     total cpu time spent up to now is       76.6 secs

     total energy              =    -303.22840387 Ry
     estimated scf accuracy    <       0.00044518 Ry

     iteration # 19     ecut=    40.00 Ry     beta= 0.05
     Davidson diagonalization with overlap
     ethr =  3.97E-07,  avg # of iterations =  2.0

     total cpu time spent up to now is       81.5 secs

     total energy              =    -303.22828533 Ry
     estimated scf accuracy    <       0.00044310 Ry

     iteration # 20     ecut=    40.00 Ry     beta= 0.05
     Davidson diagonalization with overlap
     ethr =  3.96E-07,  avg # of iterations =  4.0

     total cpu time spent up to now is       85.2 secs

     total energy              =    -303.22825314 Ry
     estimated scf accuracy    <       0.00026916 Ry

     iteration # 21     ecut=    40.00 Ry     beta= 0.05
     Davidson diagonalization with overlap
     ethr =  2.40E-07,  avg # of iterations =  2.0

     total cpu time spent up to now is       88.6 secs

     total energy              =    -303.22829285 Ry
     estimated scf accuracy    <       0.00007180 Ry

     iteration # 22     ecut=    40.00 Ry     beta= 0.05
     Davidson diagonalization with overlap
     ethr =  6.41E-08,  avg # of iterations =  4.0

     total cpu time spent up to now is       92.2 secs

     total energy              =    -303.22829164 Ry
     estimated scf accuracy    <       0.00006762 Ry

     iteration # 23     ecut=    40.00 Ry     beta= 0.05
     Davidson diagonalization with overlap
     ethr =  6.04E-08,  avg # of iterations =  2.0

     total cpu time spent up to now is       95.6 secs

     total energy              =    -303.22828343 Ry
     estimated scf accuracy    <       0.00005493 Ry

     iteration # 24     ecut=    40.00 Ry     beta= 0.05
     Davidson diagonalization with overlap
     ethr =  4.90E-08,  avg # of iterations =  2.0

     total cpu time spent up to now is       99.1 secs

     total energy              =    -303.22828460 Ry
     estimated scf accuracy    <       0.00002202 Ry

     iteration # 25     ecut=    40.00 Ry     beta= 0.05
     Davidson diagonalization with overlap
     ethr =  1.97E-08,  avg # of iterations =  4.0

     total cpu time spent up to now is      103.5 secs

     total energy              =    -303.22829248 Ry
     estimated scf accuracy    <       0.00001900 Ry

     iteration # 26     ecut=    40.00 Ry     beta= 0.05
     Davidson diagonalization with overlap
     ethr =  1.70E-08,  avg # of iterations =  1.0

     total cpu time spent up to now is      106.8 secs

     total energy              =    -303.22829070 Ry
     estimated scf accuracy    <       0.00001915 Ry

     iteration # 27     ecut=    40.00 Ry     beta= 0.05
     Davidson diagonalization with overlap
     ethr =  1.70E-08,  avg # of iterations =  1.0

     total cpu time spent up to now is      110.9 secs

     total energy              =    -303.22828918 Ry
     estimated scf accuracy    <       0.00001517 Ry

     iteration # 28     ecut=    40.00 Ry     beta= 0.05
     Davidson diagonalization with overlap
     ethr =  1.35E-08,  avg # of iterations =  1.0

     total cpu time spent up to now is      115.4 secs

     total energy              =    -303.22828917 Ry
     estimated scf accuracy    <       0.00001102 Ry

     iteration # 29     ecut=    40.00 Ry     beta= 0.05
     Davidson diagonalization with overlap
     ethr =  9.84E-09,  avg # of iterations =  1.0

     total cpu time spent up to now is      119.9 secs

     total energy              =    -303.22828766 Ry
     estimated scf accuracy    <       0.00000968 Ry

     iteration # 30     ecut=    40.00 Ry     beta= 0.05
     Davidson diagonalization with overlap
     ethr =  8.65E-09,  avg # of iterations =  2.0

     total cpu time spent up to now is      124.3 secs

     total energy              =    -303.22828830 Ry
     estimated scf accuracy    <       0.00000518 Ry

     iteration # 31     ecut=    40.00 Ry     beta= 0.05
     Davidson diagonalization with overlap
     ethr =  4.62E-09,  avg # of iterations =  2.0

     total cpu time spent up to now is      128.0 secs

     total energy              =    -303.22828786 Ry
     estimated scf accuracy    <       0.00000442 Ry

     iteration # 32     ecut=    40.00 Ry     beta= 0.05
     Davidson diagonalization with overlap
     ethr =  3.95E-09,  avg # of iterations =  2.0

     total cpu time spent up to now is      132.7 secs

     total energy              =    -303.22828742 Ry
     estimated scf accuracy    <       0.00000244 Ry

     iteration # 33     ecut=    40.00 Ry     beta= 0.05
     Davidson diagonalization with overlap
     ethr =  2.18E-09,  avg # of iterations =  2.0

     total cpu time spent up to now is      137.2 secs

     End of self-consistent calculation

          k = 0.0000 0.0000 0.0000 (  6689 PWs)   bands (ev):

   -12.4493 -11.8017 -11.1491 -10.6899  -6.9474  -6.9315  -6.8321  -6.3709
    -6.3574  -6.3433  -6.0669  -6.0045  -5.9094  -5.3829  -5.3601  -5.3249
    -5.1399  -5.0946  -5.0724  -5.0490  -4.9749  -4.9717  -4.7463  -2.0549
    -1.9096  -1.7422  -0.8343  -0.7490  -0.6277   0.3184   1.0774   1.1260
     1.1327   1.6252   1.6544   1.6694   1.6791   1.7267   1.7626   2.3795
     3.9078   3.9653   4.0633   4.6136   4.6151   4.8559   4.8581   5.0661
     5.0808   5.2909   5.3790   5.4435   5.9071   5.9542   5.9989   8.1882
     9.1036   9.1128   9.2026   9.6932   9.7174   9.8065  10.1127  10.1240
    10.1725  11.0321  13.4730

     the Fermi energy is     8.6412 ev

!    total energy              =    -303.22828757 Ry
     estimated scf accuracy    <       0.00000060 Ry
     smearing contrib. (-TS)   =      -0.00000018 Ry
     internal energy E=F+TS    =    -303.22828740 Ry

     The total energy is F=E-TS. E is the sum of the following terms:
     one-electron contribution =     -94.20720197 Ry
     hartree contribution      =     106.20165734 Ry
     xc contribution           =    -111.15916027 Ry
     ewald contribution        =    -204.06358249 Ry

     convergence has been achieved in  33 iterations

     Forces acting on atoms (cartesian axes, Ry/au):

     atom    1 type  1   force =     0.00136429    0.00227513    0.00002013
     atom    2 type  1   force =    -0.00150058   -0.00200605   -0.00239850
     atom    3 type  1   force =     0.00403922    0.02849808    0.03135410
     atom    4 type  1   force =    -0.00615865   -0.00056772    0.00107743
     atom    5 type  1   force =     0.00809759   -0.00635327   -0.01611914
     atom    6 type  1   force =     0.01090102   -0.02720648    0.01527058
     atom    7 type  1   force =    -0.00196417    0.00280713   -0.00063064
     atom    8 type  1   force =    -0.01269155    0.00197361   -0.01263823
     atom    9 type  1   force =    -0.00428047    0.02839781    0.01818076
     atom   10 type  1   force =     0.01546847    0.00129434   -0.00153306
     atom   11 type  1   force =     0.00056500   -0.00131812    0.00577592
     atom   12 type  1   force =    -0.02220495   -0.02443275    0.02368360
     atom   13 type  1   force =    -0.00642645   -0.00817817   -0.01934357
     atom   14 type  1   force =    -0.00123858    0.02587460   -0.01379818
     atom   15 type  1   force =     0.00798045    0.01144207   -0.01541147
     atom   16 type  1   force =    -0.00017538   -0.00172457    0.00053562
     atom   17 type  1   force =    -0.02454782   -0.00643609   -0.01080767
     atom   18 type  1   force =     0.00115902   -0.00492637   -0.00641370
     atom   19 type  1   force =    -0.00197719    0.00114730    0.00049270
     atom   20 type  1   force =     0.00205612   -0.00240058    0.00088556
     atom   21 type  1   force =     0.00822213   -0.02239948    0.01034965
     atom   22 type  1   force =     0.00070582   -0.00257472    0.00227291
     atom   23 type  1   force =     0.02134927   -0.00989460   -0.00999323
     atom   24 type  1   force =     0.00234643    0.00579185   -0.01538474
     atom   25 type  2   force =    -0.00087381   -0.00805833    0.00148317
     atom   26 type  2   force =    -0.01366763    0.01590375    0.00151614
     atom   27 type  2   force =    -0.05751249    0.10836449    0.00132599
     atom   28 type  2   force =     0.08520206   -0.03942410    0.01224126
     atom   29 type  2   force =     0.01001700    0.01440053   -0.00364207
     atom   30 type  2   force =     0.00980091   -0.06092405    0.00038199
     atom   31 type  2   force =    -0.00407377   -0.01113258    0.00045785
     atom   32 type  2   force =     0.01564261    0.00465235    0.00285548
     atom   33 type  2   force =    -0.01191962   -0.00756724   -0.00783484
     atom   34 type  2   force =    -0.08617513   -0.00894119    0.00430236
     atom   35 type  2   force =     0.00308592    0.02079294    0.00544668
     atom   36 type  2   force =     0.09825388    0.09096158   -0.00294686
     atom   37 type  2   force =     0.00790166   -0.01277220    0.00275939
     atom   38 type  2   force =    -0.03436222   -0.04720531   -0.01153671
     atom   39 type  2   force =    -0.00353012   -0.01592346    0.46641122
     atom   40 type  2   force =    -0.01887828   -0.03221012   -0.45864791

     Total force =     0.701838     Total SCF correction =     0.002270


     Computing stress (Cartesian axis) and pressure

          total   stress  (Ry/bohr**3)                   (kbar)     P=       54.29
  -0.00001020  -0.00001375   0.00007215           -1.50       -2.02       10.61
  -0.00001375  -0.00000841   0.00004958           -2.02       -1.24        7.29
   0.00007215   0.00004958   0.00112574           10.61        7.29      165.60


     BFGS Geometry Optimization
     Energy error            =      0.0E+00 Ry
     Gradient error          =      4.7E-01 Ry/Bohr
     Cell gradient error     =      1.7E+02 kbar

     number of scf cycles    =   1
     number of bfgs steps    =   0

     enthalpy           new  =    -303.2282875731 Ry

     new trust radius        =       0.4666963127 bohr
     new conv_thr            =       0.0000010000 Ry

     new unit-cell volume =   1608.22110 a.u.^3 (   238.31378 Ang^3 )
     density =      2.12095 g/cm^3

CELL_PARAMETERS (alat=  8.00000437)
   1.171909106  -0.000390346   0.001883337
  -0.586251435   1.015095709   0.000418341
   0.006058805   0.003626692   2.640949621

ATOMIC_POSITIONS (crystal)
C               -0.0001114502       -0.0000988715        0.1919028580    0   0   1
C                0.0001604218        0.0001428088        0.4024651432    0   0   1
C               -0.0004172174       -0.0005153882        0.8879095795    0   0   1
C                0.1665783123        0.3333475203        0.1895748696    0   0   1
C                0.3334812692        0.1667359348        0.4043247952    0   0   1
C                0.1665446967        0.3333876396        0.8874984467    0   0   1
C                0.5000895610        0.0001555061        0.1916499826    0   0   1
C                0.5001211128       -0.0000507408        0.4022129079    0   0   1
C                0.4998958842       -0.0002449851        0.8876127176    0   0   1
C                0.6666954951        0.3333152561        0.1894654935    0   0   1
C                0.8334453143        0.1667116618        0.4052154298    0   0   1
C                0.6665674641        0.3332537308        0.8883142288    0   0   1
C                0.0000107845        0.4999166757        0.1907609042    0   0   1
C                0.0001996001        0.5000614808        0.4021445578    0   0   1
C                0.0000847589        0.5001866971        0.8860446444    0   0   1
C                0.1666440875        0.8332075280        0.1895426756    0   0   1
C                0.3335498855        0.6667740324        0.4044405774    0   0   1
C                0.1666811885        0.8332114209        0.8864761335    0   0   1
C                0.4999385746        0.4999180201        0.1918634187    0   0   1
C                0.5002717557        0.5002411960        0.4027412367    0   0   1
C                0.4999233841        0.5000749072        0.8872423102    0   0   1
C                0.6666696946        0.8334702964        0.1895591610    0   0   1
C                0.8335539451        0.6666860551        0.4045355365    0   0   1
C                0.6663837099        0.8329604684        0.8859310664    0   0   1
H                0.8401224159        1.3090698732        0.6456184880
H                0.5973520942        1.1201860247        0.6454652701
H                0.5516246073        0.8959564472        0.6435193386
H                0.6928091428        0.5865771080        0.6463596863
H                0.8804842060        0.5428915009        0.6456360138
H                0.4513796389        0.3941055317        0.6461772864
H                0.1652488719       -0.0331409305        0.6435796571
H                0.4083422788        0.1609824051        0.6479096736
H                0.1156259018        0.7274565412        0.6431863494
H                0.3030568756        0.6881833622        0.6472781625
H                0.9810979618        1.0204017738        0.6417463612
H                0.7560116175        0.8428280764        0.6408668373
H                0.0281059926        0.2549602471        0.6428728016
H                0.2574604984        0.4427945082        0.6435827340
H                0.5286106879        0.6780292971        0.7066972703
H                0.5260359430        0.6760434554        0.5816805391



     Writing config-only to output data dir ../results/8h2_abs/8H2abs_C.save/ :
     XML data file
     NEW-OLD atomic charge density approx. for the potential

     Check: negative core charge=   -0.000002

     total cpu time spent up to now is      146.9 secs

     Self-consistent Calculation

     iteration #  1     ecut=    40.00 Ry     beta= 0.05
     Davidson diagonalization with overlap
     c_bands:  1 eigenvalues not converged
     ethr =  1.00E-06,  avg # of iterations = 20.0

     total cpu time spent up to now is      168.0 secs

     total energy              =    -303.58859017 Ry
     estimated scf accuracy    <       0.02687232 Ry

     iteration #  2     ecut=    40.00 Ry     beta= 0.05
     Davidson diagonalization with overlap
     ethr =  2.40E-05,  avg # of iterations =  1.0

     total cpu time spent up to now is      171.3 secs

     total energy              =    -303.57916067 Ry
     estimated scf accuracy    <       0.02556323 Ry

     iteration #  3     ecut=    40.00 Ry     beta= 0.05
     Davidson diagonalization with overlap
     ethr =  2.28E-05,  avg # of iterations =  2.0

     total cpu time spent up to now is      174.9 secs

     total energy              =    -303.58101218 Ry
     estimated scf accuracy    <       0.00682079 Ry

     iteration #  4     ecut=    40.00 Ry     beta= 0.05
     Davidson diagonalization with overlap
     ethr =  6.09E-06,  avg # of iterations =  2.0

     total cpu time spent up to now is      178.5 secs

     total energy              =    -303.58014562 Ry
     estimated scf accuracy    <       0.00667831 Ry

     iteration #  5     ecut=    40.00 Ry     beta= 0.05
     Davidson diagonalization with overlap
     ethr =  5.96E-06,  avg # of iterations =  7.0

     total cpu time spent up to now is      183.5 secs

     total energy              =    -303.57854927 Ry
     estimated scf accuracy    <       0.00424947 Ry

     iteration #  6     ecut=    40.00 Ry     beta= 0.05
     Davidson diagonalization with overlap
     ethr =  3.79E-06,  avg # of iterations = 10.0

     total cpu time spent up to now is      187.5 secs

     total energy              =    -303.57915868 Ry
     estimated scf accuracy    <       0.00130886 Ry

     iteration #  7     ecut=    40.00 Ry     beta= 0.05
     Davidson diagonalization with overlap
     ethr =  1.17E-06,  avg # of iterations =  2.0

     total cpu time spent up to now is      191.0 secs

     total energy              =    -303.57901178 Ry
     estimated scf accuracy    <       0.00113879 Ry

     iteration #  8     ecut=    40.00 Ry     beta= 0.05
     Davidson diagonalization with overlap
     ethr =  1.02E-06,  avg # of iterations =  2.0

     total cpu time spent up to now is      195.3 secs

     total energy              =    -303.57892239 Ry
     estimated scf accuracy    <       0.00059504 Ry

     iteration #  9     ecut=    40.00 Ry     beta= 0.05
     Davidson diagonalization with overlap
     ethr =  5.31E-07,  avg # of iterations =  2.0

     total cpu time spent up to now is      199.5 secs

     total energy              =    -303.57900398 Ry
     estimated scf accuracy    <       0.00011392 Ry

     iteration # 10     ecut=    40.00 Ry     beta= 0.05
     Davidson diagonalization with overlap
     ethr =  1.02E-07,  avg # of iterations =  4.0

     total cpu time spent up to now is      203.3 secs

     total energy              =    -303.57899619 Ry
     estimated scf accuracy    <       0.00009699 Ry

     iteration # 11     ecut=    40.00 Ry     beta= 0.05
     Davidson diagonalization with overlap
     ethr =  8.66E-08,  avg # of iterations =  2.0

     total cpu time spent up to now is      206.9 secs

     total energy              =    -303.57899392 Ry
     estimated scf accuracy    <       0.00005046 Ry

     iteration # 12     ecut=    40.00 Ry     beta= 0.05
     Davidson diagonalization with overlap
     ethr =  4.51E-08,  avg # of iterations =  2.0

     total cpu time spent up to now is      210.4 secs

     total energy              =    -303.57899858 Ry
     estimated scf accuracy    <       0.00002819 Ry

     iteration # 13     ecut=    40.00 Ry     beta= 0.05
     Davidson diagonalization with overlap
     ethr =  2.52E-08,  avg # of iterations =  2.0

     total cpu time spent up to now is      213.9 secs

     total energy              =    -303.57899803 Ry
     estimated scf accuracy    <       0.00002755 Ry

     iteration # 14     ecut=    40.00 Ry     beta= 0.05
     Davidson diagonalization with overlap
     ethr =  2.46E-08,  avg # of iterations =  1.0

     total cpu time spent up to now is      217.3 secs

     total energy              =    -303.57899128 Ry
     estimated scf accuracy    <       0.00002331 Ry

     iteration # 15     ecut=    40.00 Ry     beta= 0.05
     Davidson diagonalization with overlap
     ethr =  2.08E-08,  avg # of iterations =  2.0

     total cpu time spent up to now is      220.9 secs

     total energy              =    -303.57899355 Ry
     estimated scf accuracy    <       0.00001313 Ry

     iteration # 16     ecut=    40.00 Ry     beta= 0.05
     Davidson diagonalization with overlap
     ethr =  1.17E-08,  avg # of iterations =  1.0

     total cpu time spent up to now is      224.2 secs

     total energy              =    -303.57899299 Ry
     estimated scf accuracy    <       0.00001101 Ry

     iteration # 17     ecut=    40.00 Ry     beta= 0.05
     Davidson diagonalization with overlap
     ethr =  9.83E-09,  avg # of iterations =  2.0

     total cpu time spent up to now is      227.7 secs

     total energy              =    -303.57898977 Ry
     estimated scf accuracy    <       0.00000884 Ry

     iteration # 18     ecut=    40.00 Ry     beta= 0.05
     Davidson diagonalization with overlap
     ethr =  7.90E-09,  avg # of iterations =  4.0

     total cpu time spent up to now is      231.3 secs

     total energy              =    -303.57899126 Ry
     estimated scf accuracy    <       0.00000283 Ry

     iteration # 19     ecut=    40.00 Ry     beta= 0.05
     Davidson diagonalization with overlap
     ethr =  2.52E-09,  avg # of iterations =  1.0

     total cpu time spent up to now is      234.8 secs

     total energy              =    -303.57899140 Ry
     estimated scf accuracy    <       0.00000254 Ry

     iteration # 20     ecut=    40.00 Ry     beta= 0.05
     Davidson diagonalization with overlap
     ethr =  2.27E-09,  avg # of iterations =  1.0

     total cpu time spent up to now is      238.1 secs

     total energy              =    -303.57899145 Ry
     estimated scf accuracy    <       0.00000275 Ry

     iteration # 21     ecut=    40.00 Ry     beta= 0.05
     Davidson diagonalization with overlap
     ethr =  2.27E-09,  avg # of iterations =  1.0

     total cpu time spent up to now is      241.4 secs

     total energy              =    -303.57899165 Ry
     estimated scf accuracy    <       0.00000264 Ry

     iteration # 22     ecut=    40.00 Ry     beta= 0.05
     Davidson diagonalization with overlap
     ethr =  2.27E-09,  avg # of iterations =  1.0

     total cpu time spent up to now is      244.7 secs

     total energy              =    -303.57899157 Ry
     estimated scf accuracy    <       0.00000303 Ry

     iteration # 23     ecut=    40.00 Ry     beta= 0.05
     Davidson diagonalization with overlap
     ethr =  2.27E-09,  avg # of iterations =  2.0

     total cpu time spent up to now is      248.2 secs

     total energy              =    -303.57899063 Ry
     estimated scf accuracy    <       0.00000278 Ry

     iteration # 24     ecut=    40.00 Ry     beta= 0.05
     Davidson diagonalization with overlap
     ethr =  2.27E-09,  avg # of iterations =  2.0

     total cpu time spent up to now is      251.5 secs

     End of self-consistent calculation

          k = 0.0000 0.0000 0.0000 (  6689 PWs)   bands (ev):

   -12.7104 -11.7758 -11.3438  -9.2100  -7.2590  -7.2449  -7.1740  -6.7365
    -6.7328  -6.7102  -6.5688  -6.5124  -6.4380  -5.8120  -5.8039  -5.7715
    -5.6108  -5.5970  -5.5866  -5.4763  -5.4577  -5.4527  -2.9239  -2.0783
    -1.2190  -1.1605  -0.9057  -0.7848  -0.4728  -0.2241   0.7071   0.7415
     0.7491   1.1390   1.1658   1.1874   1.1981   1.2070   1.2264   1.7136
     3.5655   3.6622   3.7371   4.2076   4.2199   4.4112   4.4166   4.5386
     4.5408   4.7455   4.9282   4.9839   5.3832   5.4723   5.5020   6.9515
     8.6140   8.6427   8.7118   9.2073   9.2224   9.2592   9.6085   9.6302
     9.6792  11.9864  12.7684

     the Fermi energy is     7.9602 ev

!    total energy              =    -303.57899064 Ry
     estimated scf accuracy    <       0.00000065 Ry
     smearing contrib. (-TS)   =      -0.00000000 Ry
     internal energy E=F+TS    =    -303.57899064 Ry

     The total energy is F=E-TS. E is the sum of the following terms:
     one-electron contribution =    -108.60767516 Ry
     hartree contribution      =     112.01737939 Ry
     xc contribution           =    -110.95116704 Ry
     ewald contribution        =    -196.03752782 Ry

     convergence has been achieved in  24 iterations

     Forces acting on atoms (cartesian axes, Ry/au):

     atom    1 type  1   force =     0.00111203    0.00204931   -0.00005093
     atom    2 type  1   force =    -0.00087489   -0.00173433   -0.00087188
     atom    3 type  1   force =    -0.00237162    0.01999497    0.01243679
     atom    4 type  1   force =    -0.00362758   -0.00111438    0.00513212
     atom    5 type  1   force =     0.00703281   -0.00317582   -0.01504627
     atom    6 type  1   force =     0.00708843   -0.01995709    0.01065965
     atom    7 type  1   force =    -0.00013129    0.00225761    0.00029595
     atom    8 type  1   force =    -0.01254276    0.00232306   -0.00796437
     atom    9 type  1   force =    -0.00015461    0.02140607    0.00883387
     atom   10 type  1   force =     0.01076929    0.00119976    0.00332728
     atom   11 type  1   force =     0.00068164   -0.00298897   -0.00414765
     atom   12 type  1   force =    -0.01711330   -0.01672709    0.01215676
     atom   13 type  1   force =    -0.00468055   -0.00627164   -0.00620299
     atom   14 type  1   force =    -0.00047634    0.02162123   -0.00691475
     atom   15 type  1   force =     0.00659863    0.00763135   -0.00822254
     atom   16 type  1   force =    -0.00081280    0.00009359    0.00523624
     atom   17 type  1   force =    -0.02176250   -0.00532764   -0.01983001
     atom   18 type  1   force =     0.00114065   -0.00564229   -0.00300989
     atom   19 type  1   force =    -0.00077255    0.00205457   -0.00010750
     atom   20 type  1   force =     0.00247255   -0.00704747   -0.00614224
     atom   21 type  1   force =     0.00774104   -0.02113335    0.01219098
     atom   22 type  1   force =     0.00088145   -0.00213972    0.00703321
     atom   23 type  1   force =     0.01717152   -0.00806024   -0.01539437
     atom   24 type  1   force =     0.00402878    0.01054544    0.00684848
     atom   25 type  2   force =     0.00321929   -0.00257701    0.00007982
     atom   26 type  2   force =    -0.00192457    0.01177024    0.00104184
     atom   27 type  2   force =    -0.00638496    0.01120900    0.00089421
     atom   28 type  2   force =     0.01461641   -0.00750221    0.00764918
     atom   29 type  2   force =     0.00437003    0.00006090   -0.00298664
     atom   30 type  2   force =     0.00104105   -0.01692596   -0.00054230
     atom   31 type  2   force =     0.00215129   -0.00489788   -0.00020865
     atom   32 type  2   force =    -0.00305296    0.00083531    0.00067536
     atom   33 type  2   force =    -0.00421127    0.00248096   -0.00624975
     atom   34 type  2   force =    -0.01515805   -0.00226370    0.00420383
     atom   35 type  2   force =     0.00777653    0.01003364    0.00518414
     atom   36 type  2   force =     0.01091504    0.00878213   -0.00237003
     atom   37 type  2   force =    -0.00221974    0.00126389    0.00263203
     atom   38 type  2   force =    -0.00935046   -0.01117275   -0.00757354
     atom   39 type  2   force =     0.00036737    0.00860087    0.16512803
     atom   40 type  2   force =    -0.00355304    0.00044562   -0.15780346

     Total force =     0.237062     Total SCF correction =     0.001705


     Computing stress (Cartesian axis) and pressure

          total   stress  (Ry/bohr**3)                   (kbar)     P=       22.26
  -0.00010360   0.00001385   0.00005458          -15.24        2.04        8.03
   0.00001385  -0.00009514   0.00004336            2.04      -14.00        6.38
   0.00005458   0.00004336   0.00065272            8.03        6.38       96.02

     Energy error            =      3.5E-01 Ry
     Gradient error          =      1.7E-01 Ry/Bohr
     Cell gradient error     =      9.6E+01 kbar

     number of scf cycles    =   2
     number of bfgs steps    =   1

     enthalpy           old  =    -303.2282875731 Ry
     enthalpy           new  =    -303.5789906402 Ry

     CASE: enthalpy          _new < enthalpy          _old

     new trust radius        =       0.2887838971 bohr
     new conv_thr            =       0.0000010000 Ry

     new unit-cell volume =   1636.30265 a.u.^3 (   242.47504 Ang^3 )
     density =      2.08455 g/cm^3

CELL_PARAMETERS (alat=  8.00000437)
   1.167037794   0.000239065   0.004456798
  -0.583270064   1.010909742   0.000907464
   0.011683514   0.008077928   2.708666268

ATOMIC_POSITIONS (crystal)
C               -0.0001114659       -0.0000988819        0.1918989270    0   0   1
C                0.0001601605        0.0001426331        0.4023931705    0   0   1
C               -0.0004134838       -0.0005128804        0.8889313415    0   0   1
C                0.1665798820        0.3333485640        0.1899762765    0   0   1
C                0.3334766989        0.1667328846        0.4031258513    0   0   1
C                0.1665479252        0.3333897977        0.8883544155    0   0   1
C                0.5000896532        0.0001555668        0.1916719488    0   0   1
C                0.5001187037       -0.0000523523        0.4015712737    0   0   1
C                0.4998985461       -0.0002432008        0.8883315008    0   0   1
C                0.6666965183        0.3333159344        0.1897219296    0   0   1
C                0.8334440295        0.1667108133        0.4049023588    0   0   1
C                0.6665711306        0.3332561873        0.8893011066    0   0   1
C                0.0000089314        0.4999154277        0.1902449692    0   0   1
C                0.0001975153        0.5000600838        0.4015826655    0   0   1
C                0.0000822775        0.5001850351        0.8853781805    0   0   1
C                0.1666456904        0.8332085933        0.1899512654    0   0   1
C                0.3335438366        0.6667700046        0.4028782463    0   0   1
C                0.1666802820        0.8332108131        0.8862308546    0   0   1
C                0.4999385405        0.4999179979        0.1918558891    0   0   1
C                0.5002698717        0.5002399453        0.4022645326    0   0   1
C                0.4999270937        0.5000773806        0.8882091107    0   0   1
C                0.6666718438        0.8334717261        0.1901106198    0   0   1
C                0.8335492532        0.6666829295        0.4033199392    0   0   1
C                0.6663858457        0.8329618737        0.8864380268    0   0   1
H                0.8403890584        1.3085411988        0.6456274965
H                0.5981431107        1.1225099015        0.6455496901
H                0.5516576925        0.8985721122        0.6435911884
H                0.6947509715        0.5849702694        0.6469776983
H                0.8812824528        0.5429644140        0.6453979391
H                0.4498371212        0.3905998083        0.6461344233
H                0.1650975384       -0.0341274821        0.6435640949
H                0.4079845721        0.1611628521        0.6479667399
H                0.1151021320        0.7278981973        0.6426859778
H                0.2999859927        0.6877129917        0.6476102830
H                0.9834061964        1.0224142382        0.6421613110
H                0.7592253869        0.8449018584        0.6406797151
H                0.0278615804        0.2551479418        0.6430822077
H                0.2546075781        0.4404494571        0.6429710244
H                0.5294968152        0.6796415336        0.7203498639
H                0.5253020142        0.6759582841        0.5686117542



     Writing config-only to output data dir ../results/8h2_abs/8H2abs_C.save/ :
     XML data file
     NEW-OLD atomic charge density approx. for the potential

     Check: negative core charge=   -0.000002

     total cpu time spent up to now is      259.7 secs

     Self-consistent Calculation

     iteration #  1     ecut=    40.00 Ry     beta= 0.05
     Davidson diagonalization with overlap
     c_bands:  1 eigenvalues not converged
     ethr =  1.00E-06,  avg # of iterations = 20.0

     total cpu time spent up to now is      269.6 secs

     total energy              =    -303.66551548 Ry
     estimated scf accuracy    <       0.00687921 Ry

     iteration #  2     ecut=    40.00 Ry     beta= 0.05
     Davidson diagonalization with overlap
     ethr =  6.14E-06,  avg # of iterations =  1.0

     total cpu time spent up to now is      273.2 secs

     total energy              =    -303.66243610 Ry
     estimated scf accuracy    <       0.00653333 Ry

     iteration #  3     ecut=    40.00 Ry     beta= 0.05
     Davidson diagonalization with overlap
     ethr =  5.83E-06,  avg # of iterations =  2.0

     total cpu time spent up to now is      278.8 secs

     total energy              =    -303.66333024 Ry
     estimated scf accuracy    <       0.00159726 Ry

     iteration #  4     ecut=    40.00 Ry     beta= 0.05
     Davidson diagonalization with overlap
     ethr =  1.43E-06,  avg # of iterations =  1.0

     total cpu time spent up to now is      283.1 secs

     total energy              =    -303.66332323 Ry
     estimated scf accuracy    <       0.00148689 Ry

     iteration #  5     ecut=    40.00 Ry     beta= 0.05
     Davidson diagonalization with overlap
     ethr =  1.33E-06,  avg # of iterations =  1.0

     total cpu time spent up to now is      287.6 secs

     total energy              =    -303.66289971 Ry
     estimated scf accuracy    <       0.00130558 Ry

     iteration #  6     ecut=    40.00 Ry     beta= 0.05
     Davidson diagonalization with overlap
     ethr =  1.17E-06,  avg # of iterations =  6.0

     total cpu time spent up to now is      292.6 secs

     total energy              =    -303.66298769 Ry
     estimated scf accuracy    <       0.00043896 Ry

     iteration #  7     ecut=    40.00 Ry     beta= 0.05
     Davidson diagonalization with overlap
     ethr =  3.92E-07,  avg # of iterations =  2.0

     total cpu time spent up to now is      297.1 secs

     total energy              =    -303.66299375 Ry
     estimated scf accuracy    <       0.00042791 Ry

     iteration #  8     ecut=    40.00 Ry     beta= 0.05
     Davidson diagonalization with overlap
     ethr =  3.82E-07,  avg # of iterations =  1.0

     total cpu time spent up to now is      301.3 secs

     total energy              =    -303.66288671 Ry
     estimated scf accuracy    <       0.00035180 Ry

     iteration #  9     ecut=    40.00 Ry     beta= 0.05
     Davidson diagonalization with overlap
     ethr =  3.14E-07,  avg # of iterations =  2.0

     total cpu time spent up to now is      306.2 secs

     total energy              =    -303.66292720 Ry
     estimated scf accuracy    <       0.00004559 Ry

     iteration # 10     ecut=    40.00 Ry     beta= 0.05
     Davidson diagonalization with overlap
     ethr =  4.07E-08,  avg # of iterations =  4.0

     total cpu time spent up to now is      310.0 secs

     total energy              =    -303.66292678 Ry
     estimated scf accuracy    <       0.00003477 Ry

     iteration # 11     ecut=    40.00 Ry     beta= 0.05
     Davidson diagonalization with overlap
     ethr =  3.10E-08,  avg # of iterations =  2.0

     total cpu time spent up to now is      314.0 secs

     total energy              =    -303.66292248 Ry
     estimated scf accuracy    <       0.00002851 Ry

     iteration # 12     ecut=    40.00 Ry     beta= 0.05
     Davidson diagonalization with overlap
     ethr =  2.55E-08,  avg # of iterations =  2.0

     total cpu time spent up to now is      318.3 secs

     total energy              =    -303.66292580 Ry
     estimated scf accuracy    <       0.00000635 Ry

     iteration # 13     ecut=    40.00 Ry     beta= 0.05
     Davidson diagonalization with overlap
     ethr =  5.67E-09,  avg # of iterations =  4.0

     total cpu time spent up to now is      322.2 secs

     total energy              =    -303.66292606 Ry
     estimated scf accuracy    <       0.00000527 Ry

     iteration # 14     ecut=    40.00 Ry     beta= 0.05
     Davidson diagonalization with overlap
     ethr =  4.70E-09,  avg # of iterations =  2.0

     total cpu time spent up to now is      326.3 secs

     total energy              =    -303.66292497 Ry
     estimated scf accuracy    <       0.00000447 Ry

     iteration # 15     ecut=    40.00 Ry     beta= 0.05
     Davidson diagonalization with overlap
     ethr =  3.99E-09,  avg # of iterations =  2.0

     total cpu time spent up to now is      330.1 secs

     total energy              =    -303.66292532 Ry
     estimated scf accuracy    <       0.00000241 Ry

     iteration # 16     ecut=    40.00 Ry     beta= 0.05
     Davidson diagonalization with overlap
     ethr =  2.15E-09,  avg # of iterations =  1.0

     total cpu time spent up to now is      333.5 secs

     total energy              =    -303.66292538 Ry
     estimated scf accuracy    <       0.00000197 Ry

     iteration # 17     ecut=    40.00 Ry     beta= 0.05
     Davidson diagonalization with overlap
     ethr =  1.76E-09,  avg # of iterations =  1.0

     total cpu time spent up to now is      337.0 secs

     total energy              =    -303.66292470 Ry
     estimated scf accuracy    <       0.00000173 Ry

     iteration # 18     ecut=    40.00 Ry     beta= 0.05
     Davidson diagonalization with overlap
     ethr =  1.54E-09,  avg # of iterations =  2.0

     total cpu time spent up to now is      340.9 secs

     End of self-consistent calculation

          k = 0.0000 0.0000 0.0000 (  6689 PWs)   bands (ev):

   -12.9513 -12.1622 -11.7202  -8.7976  -7.4716  -7.4421  -7.3823  -6.9973
    -6.9837  -6.9635  -6.9146  -6.8540  -6.7757  -6.1389  -6.1222  -6.1034
    -5.9897  -5.9741  -5.9594  -5.8276  -5.8125  -5.8006  -2.3260  -2.0373
    -0.9816  -0.9185  -0.8104  -0.7546  -0.6248  -0.4720   0.4741   0.5001
     0.5131   0.7935   0.8471   0.8676   0.8837   0.8907   0.9064   1.2175
     3.3518   3.5024   3.5784   3.9907   4.0060   4.1615   4.1680   4.2256
     4.2324   4.3659   4.6275   4.6967   5.0418   5.1477   5.1934   6.3240
     8.3017   8.3651   8.4204   8.8555   8.8723   8.9181   9.3188   9.3712
     9.3908  11.5984  12.4353

     the Fermi energy is     7.6473 ev

!    total energy              =    -303.66292444 Ry
     estimated scf accuracy    <       0.00000089 Ry
     smearing contrib. (-TS)   =      -0.00000000 Ry
     internal energy E=F+TS    =    -303.66292444 Ry

     The total energy is F=E-TS. E is the sum of the following terms:
     one-electron contribution =    -125.57888948 Ry
     hartree contribution      =     119.59464974 Ry
     xc contribution           =    -111.04776566 Ry
     ewald contribution        =    -186.63091903 Ry

     convergence has been achieved in  18 iterations

     Forces acting on atoms (cartesian axes, Ry/au):

     atom    1 type  1   force =     0.00041743    0.00231872    0.00177280
     atom    2 type  1   force =     0.00084586   -0.00219359   -0.00376035
     atom    3 type  1   force =    -0.00364283    0.01793489    0.00753592
     atom    4 type  1   force =    -0.00144284   -0.00138844    0.00579876
     atom    5 type  1   force =     0.00516599   -0.00226380   -0.01337468
     atom    6 type  1   force =     0.00672429   -0.01860237    0.00725516
     atom    7 type  1   force =    -0.00024736    0.00218183    0.00269125
     atom    8 type  1   force =    -0.01138201    0.00283190   -0.00888095
     atom    9 type  1   force =    -0.00132385    0.01972932    0.00670996
     atom   10 type  1   force =     0.00894292    0.00157656    0.00501846
     atom   11 type  1   force =    -0.00090042   -0.00267432   -0.00678525
     atom   12 type  1   force =    -0.01389992   -0.01525409    0.00716683
     atom   13 type  1   force =    -0.00398569   -0.00421380    0.00092430
     atom   14 type  1   force =    -0.00022129    0.01787000   -0.00863822
     atom   15 type  1   force =     0.00514279    0.00500841   -0.00317759
     atom   16 type  1   force =    -0.00024075    0.00036810    0.00601168
     atom   17 type  1   force =    -0.02119724   -0.00453009   -0.01739315
     atom   18 type  1   force =     0.00191612   -0.00328412   -0.00163220
     atom   19 type  1   force =    -0.00064611    0.00209237    0.00089301
     atom   20 type  1   force =     0.00352354   -0.00902608   -0.00956745
     atom   21 type  1   force =     0.00580413   -0.02060957    0.01141527
     atom   22 type  1   force =     0.00247815   -0.00155494    0.00753209
     atom   23 type  1   force =     0.01473668   -0.00682070   -0.01415363
     atom   24 type  1   force =     0.00491543    0.01118714    0.00951775
     atom   25 type  2   force =     0.00259331   -0.00168995   -0.00050078
     atom   26 type  2   force =     0.00256110    0.00771268    0.00054781
     atom   27 type  2   force =     0.00337743   -0.00895294    0.00062184
     atom   28 type  2   force =    -0.00413808   -0.00062589    0.00595544
     atom   29 type  2   force =     0.00054446   -0.00384774   -0.00291017
     atom   30 type  2   force =    -0.00220046   -0.00107929   -0.00066759
     atom   31 type  2   force =     0.00282714   -0.00261247   -0.00054161
     atom   32 type  2   force =    -0.00693625   -0.00080676   -0.00042297
     atom   33 type  2   force =    -0.00097433    0.00515872   -0.00511123
     atom   34 type  2   force =     0.00459036   -0.00156516    0.00457958
     atom   35 type  2   force =     0.00697706    0.00348728    0.00462252
     atom   36 type  2   force =    -0.00579342   -0.00855198   -0.00302763
     atom   37 type  2   force =    -0.00485182    0.00386217    0.00271009
     atom   38 type  2   force =     0.00061578    0.00211326   -0.00521900
     atom   39 type  2   force =    -0.00065634    0.01020300    0.05644239
     atom   40 type  2   force =    -0.00001898    0.00651171   -0.04995845

     Total force =     0.090044     Total SCF correction =     0.002396


     Computing stress (Cartesian axis) and pressure

          total   stress  (Ry/bohr**3)                   (kbar)     P=       38.70
   0.00023629  -0.00002548   0.00003697           34.76       -3.75        5.44
  -0.00002548   0.00022439   0.00003047           -3.75       33.01        4.48
   0.00003697   0.00003047   0.00032863            5.44        4.48       48.34

     Energy error            =      8.4E-02 Ry
     Gradient error          =      5.6E-02 Ry/Bohr
     Cell gradient error     =      4.8E+01 kbar

     number of scf cycles    =   3
     number of bfgs steps    =   2

     enthalpy           old  =    -303.5789906402 Ry
     enthalpy           new  =    -303.6629244355 Ry

     CASE: enthalpy          _new < enthalpy          _old

     new trust radius        =       0.2071489287 bohr
     new conv_thr            =       0.0000005644 Ry

     new unit-cell volume =   1697.22512 a.u.^3 (   251.50282 Ang^3 )
     density =      2.00972 g/cm^3

CELL_PARAMETERS (alat=  8.00000437)
   1.176593971  -0.000772522   0.007059707
  -0.588922399   1.019319393   0.001445585
   0.017231349   0.012582710   2.765174583

ATOMIC_POSITIONS (crystal)
C               -0.0001100022       -0.0000979412        0.1920379322    0   0   1
C                0.0001569593        0.0001405718        0.4020690240    0   0   1
C               -0.0004060165       -0.0005080303        0.8899018074    0   0   1
C                0.1665852167        0.3333520053        0.1905720582    0   0   1
C                0.3334640906        0.1667247352        0.4016470014    0   0   1
C                0.1665550097        0.3333943862        0.8892320758    0   0   1
C                0.5000919153        0.0001570210        0.1918918266    0   0   1
C                0.5001105458       -0.0000576228        0.4006398349    0   0   1
C                0.4999049834       -0.0002390303        0.8891222032    0   0   1
C                0.6667010249        0.3333188374        0.1902045411    0   0   1
C                0.8334379649        0.1667069100        0.4042645591    0   0   1
C                0.6665782793        0.3332608265        0.8902236499    0   0   1
C                0.0000090952        0.4999155053        0.1901261174    0   0   1
C                0.0001896699        0.5000550156        0.4006963802    0   0   1
C                0.0000788246        0.5001827863        0.8848872630    0   0   1
C                0.1666512135        0.8332121555        0.1905658424    0   0   1
C                0.3335273913        0.6667593820        0.4009631417    0   0   1
C                0.1666786311        0.8332097406        0.8860128878    0   0   1
C                0.4999392682        0.4999184658        0.1919244658    0   0   1
C                0.5002613053        0.5002344259        0.4013467447    0   0   1
C                0.4999377946        0.5000842934        0.8894491205    0   0   1
C                0.6666788094        0.8334762207        0.1908954496    0   0   1
C                0.8335359504        0.6666743372        0.4017793135    0   0   1
C                0.6663944749        0.8329674246        0.8873490679    0   0   1
H                0.8407327962        1.3080240772        0.6455926938
H                0.5995514932        1.1247919037        0.6456254488
H                0.5513854762        0.8980109743        0.6436650248
H                0.6947992950        0.5842213237        0.6476678145
H                0.8813114853        0.5422925008        0.6450830953
H                0.4488020459        0.3890700679        0.6460665045
H                0.1652410027       -0.0349810785        0.6435166974
H                0.4066870609        0.1610814355        0.6479527925
H                0.1152170111        0.7290035210        0.6421058464
H                0.2993740796        0.6872399726        0.6480901129
H                0.9856934504        1.0238050132        0.6426754532
H                0.7588500052        0.8441912858        0.6403704440
H                0.0273529656        0.2559142315        0.6433693719
H                0.2538170458        0.4399453476        0.6423411949
H                0.5306755360        0.6821107718        0.7298592983
H                0.5255518608        0.6770614551        0.5598234748



     Writing config-only to output data dir ../results/8h2_abs/8H2abs_C.save/ :
     XML data file
     NEW-OLD atomic charge density approx. for the potential

     Check: negative core charge=   -0.000002

     total cpu time spent up to now is      351.0 secs

     Self-consistent Calculation

     iteration #  1     ecut=    40.00 Ry     beta= 0.05
     Davidson diagonalization with overlap
     ethr =  1.00E-06,  avg # of iterations = 14.0

     total cpu time spent up to now is      365.8 secs

     total energy              =    -303.68656230 Ry
     estimated scf accuracy    <       0.00652925 Ry

     iteration #  2     ecut=    40.00 Ry     beta= 0.05
     Davidson diagonalization with overlap
     ethr =  5.83E-06,  avg # of iterations =  1.0

     total cpu time spent up to now is      369.2 secs

     total energy              =    -303.68344173 Ry
     estimated scf accuracy    <       0.00615022 Ry

     iteration #  3     ecut=    40.00 Ry     beta= 0.05
     Davidson diagonalization with overlap
     ethr =  5.49E-06,  avg # of iterations =  2.0

     total cpu time spent up to now is      372.9 secs

     total energy              =    -303.68417856 Ry
     estimated scf accuracy    <       0.00081766 Ry

     iteration #  4     ecut=    40.00 Ry     beta= 0.05
     Davidson diagonalization with overlap
     ethr =  7.30E-07,  avg # of iterations =  2.0

     total cpu time spent up to now is      376.9 secs

     total energy              =    -303.68430799 Ry
     estimated scf accuracy    <       0.00082917 Ry

     iteration #  5     ecut=    40.00 Ry     beta= 0.05
     Davidson diagonalization with overlap
     ethr =  7.30E-07,  avg # of iterations =  1.0

     total cpu time spent up to now is      380.2 secs

     total energy              =    -303.68422841 Ry
     estimated scf accuracy    <       0.00080693 Ry

     iteration #  6     ecut=    40.00 Ry     beta= 0.05
     Davidson diagonalization with overlap
     ethr =  7.20E-07,  avg # of iterations =  1.0

     total cpu time spent up to now is      383.5 secs

     total energy              =    -303.68403702 Ry
     estimated scf accuracy    <       0.00053594 Ry

     iteration #  7     ecut=    40.00 Ry     beta= 0.05
     Davidson diagonalization with overlap
     ethr =  4.79E-07,  avg # of iterations =  2.0

     total cpu time spent up to now is      387.1 secs

     total energy              =    -303.68410242 Ry
     estimated scf accuracy    <       0.00023236 Ry

     iteration #  8     ecut=    40.00 Ry     beta= 0.05
     Davidson diagonalization with overlap
     ethr =  2.07E-07,  avg # of iterations =  1.0

     total cpu time spent up to now is      390.6 secs

     total energy              =    -303.68403022 Ry
     estimated scf accuracy    <       0.00022579 Ry

     iteration #  9     ecut=    40.00 Ry     beta= 0.05
     Davidson diagonalization with overlap
     ethr =  2.02E-07,  avg # of iterations =  2.0

     total cpu time spent up to now is      394.2 secs

     total energy              =    -303.68405102 Ry
     estimated scf accuracy    <       0.00004450 Ry

     iteration # 10     ecut=    40.00 Ry     beta= 0.05
     Davidson diagonalization with overlap
     ethr =  3.97E-08,  avg # of iterations =  4.0

     total cpu time spent up to now is      397.9 secs

     total energy              =    -303.68405382 Ry
     estimated scf accuracy    <       0.00003178 Ry

     iteration # 11     ecut=    40.00 Ry     beta= 0.05
     Davidson diagonalization with overlap
     ethr =  2.84E-08,  avg # of iterations =  1.0

     total cpu time spent up to now is      401.2 secs

     total energy              =    -303.68404880 Ry
     estimated scf accuracy    <       0.00003051 Ry

     iteration # 12     ecut=    40.00 Ry     beta= 0.05
     Davidson diagonalization with overlap
     ethr =  2.72E-08,  avg # of iterations =  2.0

     total cpu time spent up to now is      404.8 secs

     total energy              =    -303.68405214 Ry
     estimated scf accuracy    <       0.00000562 Ry

     iteration # 13     ecut=    40.00 Ry     beta= 0.05
     Davidson diagonalization with overlap
     ethr =  5.02E-09,  avg # of iterations =  4.0

     total cpu time spent up to now is      408.6 secs

     total energy              =    -303.68405228 Ry
     estimated scf accuracy    <       0.00000512 Ry

     iteration # 14     ecut=    40.00 Ry     beta= 0.05
     Davidson diagonalization with overlap
     ethr =  4.57E-09,  avg # of iterations =  1.0

     total cpu time spent up to now is      411.9 secs

     total energy              =    -303.68405090 Ry
     estimated scf accuracy    <       0.00000412 Ry

     iteration # 15     ecut=    40.00 Ry     beta= 0.05
     Davidson diagonalization with overlap
     ethr =  3.68E-09,  avg # of iterations =  2.0

     total cpu time spent up to now is      415.6 secs

     total energy              =    -303.68405150 Ry
     estimated scf accuracy    <       0.00000184 Ry

     iteration # 16     ecut=    40.00 Ry     beta= 0.05
     Davidson diagonalization with overlap
     ethr =  1.65E-09,  avg # of iterations =  1.0

     total cpu time spent up to now is      418.9 secs

     total energy              =    -303.68405159 Ry
     estimated scf accuracy    <       0.00000170 Ry

     iteration # 17     ecut=    40.00 Ry     beta= 0.05
     Davidson diagonalization with overlap
     ethr =  1.51E-09,  avg # of iterations =  1.0

     total cpu time spent up to now is      422.3 secs

     total energy              =    -303.68405156 Ry
     estimated scf accuracy    <       0.00000165 Ry

     iteration # 18     ecut=    40.00 Ry     beta= 0.05
     Davidson diagonalization with overlap
     ethr =  1.47E-09,  avg # of iterations =  1.0

     total cpu time spent up to now is      425.6 secs

     total energy              =    -303.68405114 Ry
     estimated scf accuracy    <       0.00000141 Ry

     iteration # 19     ecut=    40.00 Ry     beta= 0.05
     Davidson diagonalization with overlap
     ethr =  1.26E-09,  avg # of iterations =  2.0

     total cpu time spent up to now is      429.1 secs

     total energy              =    -303.68405128 Ry
     estimated scf accuracy    <       0.00000091 Ry

     iteration # 20     ecut=    40.00 Ry     beta= 0.05
     Davidson diagonalization with overlap
     ethr =  8.15E-10,  avg # of iterations =  1.0

     total cpu time spent up to now is      432.4 secs

     total energy              =    -303.68405131 Ry
     estimated scf accuracy    <       0.00000092 Ry

     iteration # 21     ecut=    40.00 Ry     beta= 0.05
     Davidson diagonalization with overlap
     ethr =  8.15E-10,  avg # of iterations =  1.0

     total cpu time spent up to now is      435.8 secs

     total energy              =    -303.68405139 Ry
     estimated scf accuracy    <       0.00000089 Ry

     iteration # 22     ecut=    40.00 Ry     beta= 0.05
     Davidson diagonalization with overlap
     ethr =  7.91E-10,  avg # of iterations =  1.0

     total cpu time spent up to now is      439.1 secs

     total energy              =    -303.68405132 Ry
     estimated scf accuracy    <       0.00000068 Ry

     iteration # 23     ecut=    40.00 Ry     beta= 0.05
     Davidson diagonalization with overlap
     ethr =  6.08E-10,  avg # of iterations =  2.0

     total cpu time spent up to now is      442.4 secs

     End of self-consistent calculation

          k = 0.0000 0.0000 0.0000 (  6689 PWs)   bands (ev):

   -13.1434 -12.4398 -11.9912  -8.5985  -7.7757  -7.7554  -7.6888  -7.3475
    -7.3224  -7.3051  -7.2538  -7.2344  -7.1560  -6.4494  -6.4251  -6.4091
    -6.3120  -6.2941  -6.2746  -6.1362  -6.1220  -6.1072  -2.5453  -1.7642
    -1.0169  -0.9398  -0.9086  -0.8311  -0.7698  -0.6427   0.1145   0.1506
     0.1593   0.3783   0.4349   0.4742   0.4860   0.5144   0.5234   0.8393
     3.0009   3.1725   3.2584   3.5518   3.5781   3.7091   3.7195   3.7363
     3.7393   3.8988   4.2156   4.3077   4.6085   4.7051   4.7968   5.8071
     7.7978   7.9103   7.9544   8.3247   8.3578   8.4402   8.8269   8.9021
     8.9177  10.8471  11.9008

     the Fermi energy is     6.7539 ev

!    total energy              =    -303.68405106 Ry
     estimated scf accuracy    <       0.00000051 Ry
     smearing contrib. (-TS)   =      -0.00000000 Ry
     internal energy E=F+TS    =    -303.68405106 Ry

     The total energy is F=E-TS. E is the sum of the following terms:
     one-electron contribution =    -138.17761465 Ry
     hartree contribution      =     124.23307586 Ry
     xc contribution           =    -110.46097034 Ry
     ewald contribution        =    -179.27854193 Ry

     convergence has been achieved in  23 iterations

     Forces acting on atoms (cartesian axes, Ry/au):

     atom    1 type  1   force =     0.00193362    0.00227635    0.00483328
     atom    2 type  1   force =    -0.00022207   -0.00224780   -0.00854769
     atom    3 type  1   force =    -0.00100891    0.01728283    0.00417496
     atom    4 type  1   force =    -0.00225094   -0.00118456    0.00306200
     atom    5 type  1   force =     0.00580316   -0.00292211   -0.00878172
     atom    6 type  1   force =     0.00454348   -0.01827213    0.00468780
     atom    7 type  1   force =     0.00168620    0.00205588    0.00594389
     atom    8 type  1   force =    -0.01253097    0.00368447   -0.01103781
     atom    9 type  1   force =    -0.00116630    0.01928085    0.00500548
     atom   10 type  1   force =     0.00646336    0.00223381    0.00313765
     atom   11 type  1   force =    -0.00010850   -0.00311112   -0.00682141
     atom   12 type  1   force =    -0.01459146   -0.01539403    0.00362347
     atom   13 type  1   force =    -0.00160693   -0.00337175    0.00656698
     atom   14 type  1   force =    -0.00259166    0.01605215   -0.01100524
     atom   15 type  1   force =     0.00716545    0.00352472    0.00219477
     atom   16 type  1   force =    -0.00183808    0.00066223    0.00348532
     atom   17 type  1   force =    -0.01885998   -0.00406826   -0.00997725
     atom   18 type  1   force =     0.00057768   -0.00087539    0.00129040
     atom   19 type  1   force =     0.00142402    0.00178827    0.00348290
     atom   20 type  1   force =     0.00207798   -0.00871695   -0.01080615
     atom   21 type  1   force =     0.00622679   -0.02133855    0.00814150
     atom   22 type  1   force =     0.00175426   -0.00080772    0.00421519
     atom   23 type  1   force =     0.01574018   -0.00623610   -0.00927520
     atom   24 type  1   force =     0.00255410    0.01131135    0.00701049
     atom   25 type  2   force =     0.00087171   -0.00147200   -0.00091159
     atom   26 type  2   force =     0.00312024    0.00188889    0.00016387
     atom   27 type  2   force =     0.00542470   -0.01180436    0.00065446
     atom   28 type  2   force =    -0.00881102    0.00170387    0.00504213
     atom   29 type  2   force =    -0.00228316   -0.00308477   -0.00269593
     atom   30 type  2   force =    -0.00288771    0.00485460   -0.00039153
     atom   31 type  2   force =     0.00150442   -0.00155012   -0.00076420
     atom   32 type  2   force =    -0.00502100   -0.00033288   -0.00114779
     atom   33 type  2   force =     0.00159395    0.00358988   -0.00365513
     atom   34 type  2   force =     0.00942003   -0.00154888    0.00442740
     atom   35 type  2   force =     0.00285531   -0.00123917    0.00372462
     atom   36 type  2   force =    -0.00844240   -0.01104395   -0.00334410
     atom   37 type  2   force =    -0.00319193    0.00313490    0.00248084
     atom   38 type  2   force =     0.00430489    0.00640387   -0.00348825
     atom   39 type  2   force =    -0.00062065    0.01054905    0.00800292
     atom   40 type  2   force =     0.00098811    0.00834464   -0.00270132

     Total force =     0.046923     Total SCF correction =     0.002243


     Computing stress (Cartesian axis) and pressure

          total   stress  (Ry/bohr**3)                   (kbar)     P=      -31.69
  -0.00038680   0.00003402   0.00001938          -56.90        5.00        2.85
   0.00003402  -0.00037038   0.00001432            5.00      -54.48        2.11
   0.00001938   0.00001432   0.00011081            2.85        2.11       16.30

     Energy error            =      2.1E-02 Ry
     Gradient error          =      1.2E-02 Ry/Bohr
     Cell gradient error     =      5.7E+01 kbar

     number of scf cycles    =   4
     number of bfgs steps    =   3

     enthalpy           old  =    -303.6629244355 Ry
     enthalpy           new  =    -303.6840510625 Ry

     CASE: enthalpy          _new < enthalpy          _old

     new trust radius        =       0.0941948794 bohr
     new conv_thr            =       0.0000001180 Ry

     new unit-cell volume =   1693.67752 a.u.^3 (   250.97711 Ang^3 )
     density =      2.01393 g/cm^3

CELL_PARAMETERS (alat=  8.00000437)
   1.169101049  -0.000224174   0.008673632
  -0.584701056   1.012813482   0.001738852
   0.020782544   0.015364378   2.794247712

ATOMIC_POSITIONS (crystal)
C               -0.0001051173       -0.0000948047        0.1923509917    0   0   1
C                0.0001480692        0.0001348613        0.4014835425    0   0   1
C               -0.0003993244       -0.0005037021        0.8905115282    0   0   1
C                0.1665901746        0.3333551934        0.1909705053    0   0   1
C                0.3334511018        0.1667163726        0.4005980099    0   0   1
C                0.1665620370        0.3333989167        0.8898228143    0   0   1
C                0.5000981229        0.0001610066        0.1922962277    0   0   1
C                0.5000974214       -0.0000660646        0.3996833575    0   0   1
C                0.4999120344       -0.0002344836        0.8897029563    0   0   1
C                0.6667057198        0.3333218537        0.1905638788    0   0   1
C                0.8334293617        0.1667013870        0.4036529085    0   0   1
C                0.6665843616        0.3332647574        0.8907783001    0   0   1
C                0.0000150708        0.4999193241        0.1904307512    0   0   1
C                0.0001766928        0.5000466682        0.3997550623    0   0   1
C                0.0000793932        0.5001831345        0.8848130046    0   0   1
C                0.1666566245        0.8332156342        0.1909936146    0   0   1
C                0.3335117334        0.6667493060        0.3996874824    0   0   1
C                0.1666790926        0.8332100300        0.8859931199    0   0   1
C                0.4999426427        0.4999206326        0.1921366912    0   0   1
C                0.5002481442        0.5002259713        0.4004098961    0   0   1
C                0.4999494372        0.5000917853        0.8903686501    0   0   1
C                0.6666854645        0.8334805009        0.1914289631    0   0   1
C                0.8335222185        0.6666655017        0.4006842016    0   0   1
C                0.6664043467        0.8329737572        0.8880699517    0   0   1
H                0.8408578404        1.3076292049        0.6455306016
H                0.6005631107        1.1259206583        0.6456647820
H                0.5511258368        0.8963982640        0.6437272562
H                0.6939928564        0.5841138575        0.6482044152
H                0.8808748575        0.5416431170        0.6448141481
H                0.4483833475        0.3890755245        0.6460193757
H                0.1653575215       -0.0355115187        0.6434575096
H                0.4056170307        0.1610027007        0.6478842058
H                0.1156554659        0.7298859248        0.6416853900
H                0.3000281785        0.6868514652        0.6485178745
H                0.9868176812        1.0241878403        0.6430755178
H                0.7572056212        0.8425988692        0.6400638381
H                0.0269990909        0.2565979625        0.6436142741
H                0.2543764003        0.4405494533        0.6419128279
H                0.5316988684        0.6843585901        0.7340284109
H                0.5262480931        0.6785014606        0.5562229948



     Writing config-only to output data dir ../results/8h2_abs/8H2abs_C.save/ :
     XML data file
     NEW-OLD atomic charge density approx. for the potential

     Check: negative core charge=   -0.000002

     total cpu time spent up to now is      450.7 secs

     Self-consistent Calculation

     iteration #  1     ecut=    40.00 Ry     beta= 0.05
     Davidson diagonalization with overlap
     ethr =  1.00E-06,  avg # of iterations = 10.0

     total cpu time spent up to now is      460.9 secs

     total energy              =    -303.69232765 Ry
     estimated scf accuracy    <       0.00287900 Ry

     iteration #  2     ecut=    40.00 Ry     beta= 0.05
     Davidson diagonalization with overlap
     ethr =  2.57E-06,  avg # of iterations =  1.0

     total cpu time spent up to now is      464.3 secs

     total energy              =    -303.69083553 Ry
     estimated scf accuracy    <       0.00273003 Ry

     iteration #  3     ecut=    40.00 Ry     beta= 0.05
     Davidson diagonalization with overlap
     ethr =  2.44E-06,  avg # of iterations =  2.0

     total cpu time spent up to now is      467.9 secs

     total energy              =    -303.69122649 Ry
     estimated scf accuracy    <       0.00018416 Ry

     iteration #  4     ecut=    40.00 Ry     beta= 0.05
     Davidson diagonalization with overlap
     ethr =  1.64E-07,  avg # of iterations =  4.0

     total cpu time spent up to now is      472.1 secs

     total energy              =    -303.69127308 Ry
     estimated scf accuracy    <       0.00017462 Ry

     iteration #  5     ecut=    40.00 Ry     beta= 0.05
     Davidson diagonalization with overlap
     ethr =  1.56E-07,  avg # of iterations =  1.0

     total cpu time spent up to now is      475.4 secs

     total energy              =    -303.69124563 Ry
     estimated scf accuracy    <       0.00016815 Ry

     iteration #  6     ecut=    40.00 Ry     beta= 0.05
     Davidson diagonalization with overlap
     ethr =  1.50E-07,  avg # of iterations =  1.0

     total cpu time spent up to now is      478.8 secs

     total energy              =    -303.69123578 Ry
     estimated scf accuracy    <       0.00010057 Ry

     iteration #  7     ecut=    40.00 Ry     beta= 0.05
     Davidson diagonalization with overlap
     ethr =  8.98E-08,  avg # of iterations =  2.0

     total cpu time spent up to now is      482.4 secs

     total energy              =    -303.69123972 Ry
     estimated scf accuracy    <       0.00008689 Ry

     iteration #  8     ecut=    40.00 Ry     beta= 0.05
     Davidson diagonalization with overlap
     ethr =  7.76E-08,  avg # of iterations =  1.0

     total cpu time spent up to now is      485.7 secs

     total energy              =    -303.69121828 Ry
     estimated scf accuracy    <       0.00006808 Ry

     iteration #  9     ecut=    40.00 Ry     beta= 0.05
     Davidson diagonalization with overlap
     ethr =  6.08E-08,  avg # of iterations =  2.0

     total cpu time spent up to now is      491.2 secs

     total energy              =    -303.69122597 Ry
     estimated scf accuracy    <       0.00001324 Ry

     iteration # 10     ecut=    40.00 Ry     beta= 0.05
     Davidson diagonalization with overlap
     ethr =  1.18E-08,  avg # of iterations =  2.0

     total cpu time spent up to now is      495.3 secs

     total energy              =    -303.69122558 Ry
     estimated scf accuracy    <       0.00001061 Ry

     iteration # 11     ecut=    40.00 Ry     beta= 0.05
     Davidson diagonalization with overlap
     ethr =  9.47E-09,  avg # of iterations =  1.0

     total cpu time spent up to now is      499.2 secs

     total energy              =    -303.69122363 Ry
     estimated scf accuracy    <       0.00000689 Ry

     iteration # 12     ecut=    40.00 Ry     beta= 0.05
     Davidson diagonalization with overlap
     ethr =  6.15E-09,  avg # of iterations =  2.0

     total cpu time spent up to now is      503.1 secs

     total energy              =    -303.69122462 Ry
     estimated scf accuracy    <       0.00000064 Ry

     iteration # 13     ecut=    40.00 Ry     beta= 0.05
     Davidson diagonalization with overlap
     ethr =  5.69E-10,  avg # of iterations =  4.0

     total cpu time spent up to now is      507.7 secs

     total energy              =    -303.69122489 Ry
     estimated scf accuracy    <       0.00000069 Ry

     iteration # 14     ecut=    40.00 Ry     beta= 0.05
     Davidson diagonalization with overlap
     ethr =  5.69E-10,  avg # of iterations =  1.0

     total cpu time spent up to now is      511.0 secs

     total energy              =    -303.69122485 Ry
     estimated scf accuracy    <       0.00000054 Ry

     iteration # 15     ecut=    40.00 Ry     beta= 0.05
     Davidson diagonalization with overlap
     ethr =  4.78E-10,  avg # of iterations =  1.0

[...]
C                0.4997367164       -0.0003516274        0.1756618121    0   0   1
C                0.5002491568       -0.0002169638        0.3661215717    0   0   1
C                0.5003610975       -0.0000567819        0.9012486489    0   0   1
C                0.6666006836        0.3329925353        0.1736524472    0   0   1
C                0.8331352266        0.1662723991        0.3678589296    0   0   1
C                0.6669769785        0.3334492176        0.9002573843    0   0   1
C               -0.0003300949        0.4994248122        0.1750477409    0   0   1
C                0.0003406735        0.4999290073        0.3665175023    0   0   1
C                0.0011348458        0.5008199970        0.8993676507    0   0   1
C                0.1663221070        0.8327027445        0.1737558607    0   0   1
C                0.3338197876        0.6667201109        0.3682965332    0   0   1
C                0.1677552748        0.8338295434        0.9004031554    0   0   1
C                0.5001887000        0.4997953365        0.1761654776    0   0   1
C                0.5005624807        0.5002637368        0.3656524131    0   0   1
C                0.4999230842        0.4999253034        0.9007441821    0   0   1
C                0.6663678207        0.8330222093        0.1744197381    0   0   1
C                0.8337371903        0.6666319057        0.3683563012    0   0   1
C                0.6667476804        0.8329763668        0.9018867198    0   0   1
H                0.8112419398        1.2930888787        0.6768166661
H                0.5753760754        1.1009366351        0.6807718982
H                0.5309955403        0.8635749423        0.6930094752
H                0.6698930217        0.5895184281        0.6857228482
H                0.8557449396        0.5265349082        0.6782297454
H                0.4427389605        0.3970512445        0.6774999865
H                0.1525146061       -0.0444065354        0.6764490892
H                0.3871190440        0.1510100898        0.6772608514
H                0.0951837660        0.7150951464        0.6762338811
H                0.2920825729        0.6776496135        0.6828779177
H                0.9675197086        1.0139757419        0.6837772019
H                0.7415250752        0.8415688467        0.5419747769
H                0.0099365560        0.2511351942        0.6770193452
H                0.2455321988        0.4348198239        0.6763624960
H                0.7311826815        0.8333454215        0.6962103217
H                0.5737907115        0.8210458958        0.5416448230



     Writing config-only to output data dir ../results/8h2_abs/8H2abs_C.save/ :
     XML data file
     NEW-OLD atomic charge density approx. for the potential

     Check: negative core charge=   -0.000002

     total cpu time spent up to now is     4001.3 secs

     Self-consistent Calculation

     iteration #  1     ecut=    40.00 Ry     beta= 0.05
     Davidson diagonalization with overlap
     ethr =  1.00E-06,  avg # of iterations =  4.0

     total cpu time spent up to now is     4006.7 secs

     total energy              =    -303.90029710 Ry
     estimated scf accuracy    <       0.00028762 Ry

     iteration #  2     ecut=    40.00 Ry     beta= 0.05
     Davidson diagonalization with overlap
     ethr =  2.57E-07,  avg # of iterations =  2.0

     total cpu time spent up to now is     4010.5 secs

     total energy              =    -303.90034273 Ry
     estimated scf accuracy    <       0.00029547 Ry

     iteration #  3     ecut=    40.00 Ry     beta= 0.05
     Davidson diagonalization with overlap
     ethr =  2.57E-07,  avg # of iterations =  1.0

     total cpu time spent up to now is     4014.0 secs

     total energy              =    -303.90018408 Ry
     estimated scf accuracy    <       0.00036497 Ry

     iteration #  4     ecut=    40.00 Ry     beta= 0.05
     Davidson diagonalization with overlap
     ethr =  2.57E-07,  avg # of iterations =  2.0

     total cpu time spent up to now is     4017.9 secs

     total energy              =    -303.90022218 Ry
     estimated scf accuracy    <       0.00000816 Ry

     iteration #  5     ecut=    40.00 Ry     beta= 0.05
     Davidson diagonalization with overlap
     ethr =  7.29E-09,  avg # of iterations =  5.0

     total cpu time spent up to now is     4022.9 secs

     total energy              =    -303.90022833 Ry
     estimated scf accuracy    <       0.00000467 Ry

     iteration #  6     ecut=    40.00 Ry     beta= 0.05
     Davidson diagonalization with overlap
     ethr =  4.17E-09,  avg # of iterations =  1.0

     total cpu time spent up to now is     4026.5 secs

     total energy              =    -303.90022765 Ry
     estimated scf accuracy    <       0.00000571 Ry

     iteration #  7     ecut=    40.00 Ry     beta= 0.05
     Davidson diagonalization with overlap
     ethr =  4.17E-09,  avg # of iterations =  1.0

     total cpu time spent up to now is     4029.8 secs

     total energy              =    -303.90022704 Ry
     estimated scf accuracy    <       0.00000341 Ry

     iteration #  8     ecut=    40.00 Ry     beta= 0.05
     Davidson diagonalization with overlap
     ethr =  3.05E-09,  avg # of iterations =  1.0

     total cpu time spent up to now is     4033.4 secs

     total energy              =    -303.90022719 Ry
     estimated scf accuracy    <       0.00000115 Ry

     iteration #  9     ecut=    40.00 Ry     beta= 0.05
     Davidson diagonalization with overlap
     ethr =  1.03E-09,  avg # of iterations =  2.0

     total cpu time spent up to now is     4036.9 secs

     total energy              =    -303.90022730 Ry
     estimated scf accuracy    <       0.00000108 Ry

     iteration # 10     ecut=    40.00 Ry     beta= 0.05
     Davidson diagonalization with overlap
     ethr =  9.68E-10,  avg # of iterations =  2.0

     total cpu time spent up to now is     4040.6 secs

     total energy              =    -303.90022716 Ry
     estimated scf accuracy    <       0.00000045 Ry

     iteration # 11     ecut=    40.00 Ry     beta= 0.05
     Davidson diagonalization with overlap
     ethr =  4.05E-10,  avg # of iterations =  4.0

     total cpu time spent up to now is     4044.3 secs

     total energy              =    -303.90022720 Ry
     estimated scf accuracy    <       0.00000014 Ry

     iteration # 12     ecut=    40.00 Ry     beta= 0.05
     Davidson diagonalization with overlap
     ethr =  1.23E-10,  avg # of iterations =  4.0

     total cpu time spent up to now is     4048.7 secs

     total energy              =    -303.90022729 Ry
     estimated scf accuracy    <       0.00000007 Ry

     iteration # 13     ecut=    40.00 Ry     beta= 0.05
     Davidson diagonalization with overlap
     ethr =  6.40E-11,  avg # of iterations =  2.0

     total cpu time spent up to now is     4052.3 secs

     total energy              =    -303.90022729 Ry
     estimated scf accuracy    <       0.00000005 Ry

     iteration # 14     ecut=    40.00 Ry     beta= 0.05
     Davidson diagonalization with overlap
     ethr =  4.41E-11,  avg # of iterations =  1.0

     total cpu time spent up to now is     4055.9 secs

     total energy              =    -303.90022730 Ry
     estimated scf accuracy    <       0.00000002 Ry

     iteration # 15     ecut=    40.00 Ry     beta= 0.05
     Davidson diagonalization with overlap
     ethr =  2.06E-11,  avg # of iterations =  1.0

     total cpu time spent up to now is     4059.3 secs

     total energy              =    -303.90022730 Ry
     estimated scf accuracy    <       0.00000002 Ry

     iteration # 16     ecut=    40.00 Ry     beta= 0.05
     Davidson diagonalization with overlap
     ethr =  2.06E-11,  avg # of iterations =  1.0

     total cpu time spent up to now is     4062.8 secs

     total energy              =    -303.90022730 Ry
     estimated scf accuracy    <       0.00000002 Ry

     iteration # 17     ecut=    40.00 Ry     beta= 0.05
     Davidson diagonalization with overlap
     ethr =  2.04E-11,  avg # of iterations =  2.0

     total cpu time spent up to now is     4066.5 secs

     total energy              =    -303.90022731 Ry
     estimated scf accuracy    <       0.00000002 Ry

     iteration # 18     ecut=    40.00 Ry     beta= 0.05
     Davidson diagonalization with overlap
     ethr =  1.41E-11,  avg # of iterations =  1.0

     total cpu time spent up to now is     4069.8 secs

     End of self-consistent calculation

          k = 0.0000 0.0000 0.0000 (  6689 PWs)   bands (ev):

   -14.0855 -13.0016 -12.5716  -8.6160  -8.6062  -8.5706  -8.0805  -8.0673
    -8.0573  -7.7614  -7.7564  -7.7289  -7.5782  -7.0876  -7.0843  -7.0778
    -6.8578  -6.8480  -6.8381  -6.7439  -6.7360  -6.7315  -3.4635  -1.4037
    -0.8913  -0.6298  -0.6141  -0.6091  -0.1294  -0.1159  -0.1088  -0.0865
    -0.0693  -0.0630   0.0010   0.0578   0.1729   0.2064   0.2295   0.3155
     1.6927   2.2908   2.3038   2.4082   2.8744   2.8782   3.0930   3.0993
     3.2727   3.2785   3.7093   3.7210   3.7867   4.2370   4.2526   4.2787
     7.3923   7.4141   7.4235   8.0132   8.0306   8.0522   8.4137   8.4549
     8.4786   9.9868  11.6613

     the Fermi energy is     5.9049 ev

!    total energy              =    -303.90022739 Ry
     estimated scf accuracy    <          8.5E-09 Ry
     smearing contrib. (-TS)   =      -0.00000000 Ry
     internal energy E=F+TS    =    -303.90022739 Ry

     The total energy is F=E-TS. E is the sum of the following terms:
     one-electron contribution =    -265.58697262 Ry
     hartree contribution      =     186.14321791 Ry
     xc contribution           =    -110.79767040 Ry
     ewald contribution        =    -113.65880228 Ry

     convergence has been achieved in  18 iterations

     Forces acting on atoms (cartesian axes, Ry/au):

     atom    1 type  1   force =     0.00016799    0.00206343    0.00010594
     atom    2 type  1   force =     0.00614328    0.00537684   -0.00047980
     atom    3 type  1   force =     0.00120261    0.00294213   -0.00008770
     atom    4 type  1   force =    -0.00010942   -0.00321348    0.00050415
     atom    5 type  1   force =    -0.00123509    0.00011242    0.00024915
     atom    6 type  1   force =     0.00036548   -0.00267814   -0.00013459
     atom    7 type  1   force =    -0.00063219    0.00053785    0.00006521
     atom    8 type  1   force =    -0.00700774    0.00563335   -0.00031294
     atom    9 type  1   force =     0.00202438    0.00476731    0.00000032
     atom   10 type  1   force =     0.00095186   -0.00153564    0.00031140
     atom   11 type  1   force =     0.00300415    0.00953116   -0.00155570
     atom   12 type  1   force =     0.00074784    0.00063855    0.00018804
     atom   13 type  1   force =     0.00073536    0.00034770   -0.00066766
     atom   14 type  1   force =     0.00047169   -0.00186107    0.00042114
     atom   15 type  1   force =    -0.00410528   -0.00518943    0.00081739
     atom   16 type  1   force =    -0.00133164    0.00129692   -0.00021452
     atom   17 type  1   force =    -0.00727095   -0.00529096   -0.00038291
     atom   18 type  1   force =    -0.00536050   -0.00023757    0.00001429
     atom   19 type  1   force =    -0.00289169   -0.00152235   -0.00002510
     atom   20 type  1   force =     0.00021646   -0.00956473   -0.00074368
     atom   21 type  1   force =     0.00358064   -0.00116000    0.00100389
     atom   22 type  1   force =     0.00211045    0.00185866   -0.00047081
     atom   23 type  1   force =     0.00516086   -0.00313018   -0.00021320
     atom   24 type  1   force =     0.00070701    0.00154944    0.00171354
     atom   25 type  2   force =     0.00055215    0.00149691   -0.00001939
     atom   26 type  2   force =    -0.00048105    0.00024867    0.00040719
     atom   27 type  2   force =     0.00185969   -0.00013522   -0.00057283
     atom   28 type  2   force =     0.00129604    0.00006389    0.00031735
     atom   29 type  2   force =    -0.00046152    0.00087845   -0.00118072
     atom   30 type  2   force =     0.00058733   -0.00003609    0.00042137
     atom   31 type  2   force =    -0.00102087    0.00008121    0.00041796
     atom   32 type  2   force =     0.00041951    0.00027047    0.00049414
     atom   33 type  2   force =    -0.00069312   -0.00055142    0.00025968
     atom   34 type  2   force =    -0.00010016   -0.00028828    0.00040932
     atom   35 type  2   force =    -0.00055623    0.00017359   -0.00138064
     atom   36 type  2   force =     0.00080196   -0.00024492   -0.00006101
     atom   37 type  2   force =     0.00134726   -0.00055971    0.00069551
     atom   38 type  2   force =    -0.00064286   -0.00059878    0.00099408
     atom   39 type  2   force =    -0.00089380   -0.00152829   -0.00097661
     atom   40 type  2   force =     0.00034007   -0.00054267   -0.00033125

     Total force =     0.005979     Total SCF correction =     0.000266


     Computing stress (Cartesian axis) and pressure

          total   stress  (Ry/bohr**3)                   (kbar)     P=       -1.11
  -0.00000683   0.00000214   0.00000263           -1.00        0.31        0.39
   0.00000214  -0.00000649  -0.00000024            0.31       -0.96       -0.03
   0.00000263  -0.00000024  -0.00000926            0.39       -0.03       -1.36

     Energy error            =      1.1E-04 Ry
     Gradient error          =      1.9E-03 Ry/Bohr
     Cell gradient error     =      1.4E+00 kbar

     number of scf cycles    =  50
     number of bfgs steps    =  49

     enthalpy           old  =    -303.9001141303 Ry
     enthalpy           new  =    -303.9002273878 Ry

     CASE: enthalpy          _new < enthalpy          _old

     new trust radius        =       0.0123092547 bohr

     The maximum number of steps has been reached.

     End of BFGS Geometry Optimization
     new unit-cell volume =   1752.82616 a.u.^3 (   259.74204 Ang^3 )
     density =      1.94597 g/cm^3

CELL_PARAMETERS (alat=  8.00000437)
   1.171623671  -0.000019297  -0.003802365
  -0.585823019   1.014751478   0.000356574
   0.004576600   0.003529573   2.879528772

ATOMIC_POSITIONS (crystal)
C               -0.0002364945       -0.0004410364        0.1752598526    0   0   1
C               -0.0000892770       -0.0002308867        0.3661516457    0   0   1
C                0.0000813671       -0.0003145998        0.9012014466    0   0   1
C                0.1665215367        0.3330685917        0.1734997782    0   0   1
C                0.3336262215        0.1665941057        0.3673551057    0   0   1
C                0.1668846903        0.3335266220        0.9001833372    0   0   1
C                0.4997391930       -0.0003525121        0.1754822853    0   0   1
C                0.5002490985       -0.0002189229        0.3656763347    0   0   1
C                0.5003643463       -0.0000558202        0.9013234173    0   0   1
C                0.6666027868        0.3329918232        0.1735063789    0   0   1
C                0.8331354317        0.1662700803        0.3673897924    0   0   1
C                0.6669798411        0.3334500988        0.9003313425    0   0   1
C               -0.0003260933        0.4994244939        0.1748192504    0   0   1
C                0.0003389426        0.4999267260        0.3661737341    0   0   1
C                0.0011375310        0.5008218305        0.8995795697    0   0   1
C                0.1663245738        0.8327019348        0.1735241938    0   0   1
C                0.3338195187        0.6667186191        0.3679168119    0   0   1
C                0.1677596218        0.8338316618        0.9004936201    0   0   1
C                0.5001906152        0.4997949385        0.1760346629    0   0   1
C                0.5005613492        0.5002622184        0.3652752469    0   0   1
C                0.4999245966        0.4999251113        0.9008649287    0   0   1
C                0.6663711556        0.8330215442        0.1741775990    0   0   1
C                0.8337365955        0.6666304133        0.3679752979    0   0   1
C                0.6667478153        0.8329759992        0.9021390487    0   0   1
H                0.8119532552        1.2934577047        0.6771773223
H                0.5748952918        1.1008290417        0.6812316432
H                0.5318223714        0.8636533053        0.6932831061
H                0.6702840209        0.5894592647        0.6860255146
H                0.8558361448        0.5262627808        0.6785281474
H                0.4421341796        0.3965995311        0.6778199425
H                0.1519255476       -0.0440850621        0.6766543875
H                0.3878552698        0.1509702546        0.6775863335
H                0.0960082615        0.7151708296        0.6763601688
H                0.2913980791        0.6775950241        0.6833397682
H                0.9679155267        1.0145665910        0.6838449970
H                0.7412816125        0.8412687548        0.5417841072
H                0.0097104466        0.2507340453        0.6772741869
H                0.2456190831        0.4351630617        0.6767663072
H                0.7306453936        0.8328273669        0.6962217751
H                0.5738355696        0.8213284544        0.5417858901



     Writing config-only to output data dir ../results/8h2_abs/8H2abs_C.save/ :
     XML data file
     NEW-OLD atomic charge density approx. for the potential

     Check: negative core charge=   -0.000002

     Writing all to output data dir ../results/8h2_abs/8H2abs_C.save/ :
     XML data file, charge density, pseudopotentials, collected wavefunctions

     init_run     :      3.24s CPU      2.81s WALL (       1 calls)
     electrons    :   4437.94s CPU   3656.62s WALL (      50 calls)
     update_pot   :     12.71s CPU      8.90s WALL (      50 calls)
     forces       :    138.29s CPU    119.84s WALL (      50 calls)
     stress       :    381.33s CPU    259.51s WALL (      50 calls)

     Called by init_run:
     wfcinit      :      1.71s CPU      1.37s WALL (       1 calls)
     potinit      :      0.19s CPU      0.16s WALL (       1 calls)
     hinit0       :      0.64s CPU      0.60s WALL (       1 calls)

     Called by electrons:
     c_bands      :   2522.06s CPU   2008.74s WALL (     926 calls)
     sum_band     :   1089.01s CPU    983.27s WALL (     926 calls)
     v_of_rho     :     57.18s CPU     33.18s WALL (     977 calls)
     newd         :    532.54s CPU    504.74s WALL (     977 calls)
     mix_rho      :    233.98s CPU    133.31s WALL (     926 calls)

     Called by c_bands:
     init_us_2    :     19.55s CPU     15.78s WALL (    1853 calls)
     cegterg      :   2474.66s CPU   1981.11s WALL (     926 calls)

     Called by *egterg:
     cdiaghg      :     30.77s CPU     31.00s WALL (    3121 calls)
     h_psi        :   1601.42s CPU   1120.87s WALL (    3171 calls)
     s_psi        :    270.22s CPU    264.71s WALL (    3171 calls)
     g_psi        :      7.91s CPU      4.52s WALL (    2244 calls)

     Called by h_psi:
     h_psi:calbec :    263.68s CPU    258.19s WALL (    3171 calls)
     vloc_psi     :   1070.86s CPU    596.92s WALL (    3171 calls)
     add_vuspsi   :    260.77s CPU    262.54s WALL (    3171 calls)

     General routines
     calbec       :    398.81s CPU    391.75s WALL (    4347 calls)
     fft          :    130.43s CPU     80.04s WALL (    6212 calls)
     ffts         :     95.75s CPU     52.96s WALL (   21979 calls)
     fftw         :    940.21s CPU    543.06s WALL (  364994 calls)
     interpolate  :     28.65s CPU     17.35s WALL (     977 calls)

     Parallel routines

     PWSCF        :      1h23m CPU      1h 7m WALL


   This run was terminated on:  23:54: 7   7Aug2024            

=------------------------------------------------------------------------------=
   JOB DONE.
=------------------------------------------------------------------------------=
