
     Program PWSCF v.7.2 starts on  3Sep2024 at 11:47:46 

     This program is part of the open-source Quantum ESPRESSO suite
     for quantum simulation of materials; please cite
         "P. Giannozzi et al., J. Phys.:Condens. Matter 21 395502 (2009);
         "P. Giannozzi et al., J. Phys.:Condens. Matter 29 465901 (2017);
         "P. Giannozzi et al., J. Chem. Phys. 152 154105 (2020);
          URL http://www.quantum-espresso.org", 
     in publications or presentations arising from this work. More details at
     http://www.quantum-espresso.org/quote

     Parallel version (MPI & OpenMP), running on      96 processor cores
     Number of MPI processes:                96
     Threads/MPI process:                     1

     MPI processes distributed on     2 nodes
     359273 MiB available memory on the printing compute node when the environment starts
 
     Reading input from hydrogen_absorption9.in

     Current dimensions of program PWSCF are:
     Max number of different atomic species (ntypx) = 10
     Max number of k-points (npk) =  40000
     Max angular momentum in pseudopotentials (lmaxx) =  4

     IMPORTANT: XC functional enforced from input :
     Exchange-correlation= LDA
                           (   1   1   0   0   0   0   0)
     Any further DFT definition will be discarded
     Please, verify this is what you really want

 
     R & G space division:  proc/nbgrp/npool/nimage =      96
     Subspace diagonalization in iterative solution of the eigenvalue problem:
     a serial algorithm will be used

 
     Parallelization info
     --------------------
     sticks:   dense  smooth     PW     G-vecs:    dense   smooth      PW
     Min          25      10      2                 2332      585      67
     Max          26      12      3                 2350      594      85
     Sum        2435     967    253               224335    56669    7119
 
     Using Slab Decomposition
 

     Title: 
     9H2_absorption_C                                                           


     bravais-lattice index     =            0
     lattice parameter (alat)  =       8.0000  a.u.
     unit-cell volume          =    1662.2145 (a.u.)^3
     number of atoms/cell      =           42
     number of atomic types    =            2
     number of electrons       =       114.00
     number of Kohn-Sham states=           68
     kinetic-energy cutoff     =      40.0000  Ry
     charge density cutoff     =     400.0000  Ry
     scf convergence threshold =      1.0E-06
     mixing beta               =       0.0500
     number of iterations used =            8  local-TF  mixing
     energy convergence thresh.=      1.0E-04
     force convergence thresh. =      1.0E-03
     press convergence thresh. =      5.0E-01
     Exchange-correlation= LDA
                           (   1   1   0   0   0   0   0)
     nstep                     =           50


     celldm(1)=   8.000004  celldm(2)=   0.000000  celldm(3)=   0.000000
     celldm(4)=   0.000000  celldm(5)=   0.000000  celldm(6)=   0.000000

     crystal axes: (cart. coord. in units of alat)
               a(1) = (   1.177267   0.008074   0.035361 )  
               a(2) = (  -0.590984   1.006486  -0.160729 )  
               a(3) = (   0.182102  -0.432570   2.795752 )  

     reciprocal axes: (cart. coord. in units 2 pi/alat)
               b(1) = (  0.845327  0.499915  0.022288 )  
               b(2) = ( -0.011665  1.011828  0.157314 )  
               b(3) = ( -0.011362  0.051847  0.366448 )  


     PseudoPot. # 1 for C  read from file:
     ../../potentials/C.pz-n-rrkjus_psl.0.1.UPF
     MD5 check sum: a3cecbabebb5b3a1aff122f23eb09bb0
     Pseudo is Ultrasoft + core correction, Zval =  4.0
     Generated using "atomic" code by A. Dal Corso  v.5.0.2 svn rev. 9415
     Using radial grid of 1073 points,  4 beta functions with: 
                l(1) =   0
                l(2) =   0
                l(3) =   1
                l(4) =   1
     Q(r) pseudized with 0 coefficients 


     PseudoPot. # 2 for H  read from file:
     ../../potentials/H.pz-rrkjus_psl.0.1.UPF
     MD5 check sum: 1467ebfaa2880178e80d097b970df8c7
     Pseudo is Ultrasoft, Zval =  1.0
     Generated using "atomic" code by A. Dal Corso  v.5.0.2 svn rev. 9415
     Using radial grid of  929 points,  2 beta functions with: 
                l(1) =   0
                l(2) =   0
     Q(r) pseudized with 0 coefficients 


     atomic species   valence    mass     pseudopotential
        C              4.00    12.01100     C ( 1.00)
        H              1.00     1.00784     H ( 1.00)

     No symmetry found



   Cartesian axes

     site n.     atom                  positions (alat units)
         1           C   tau(   1) = (  -0.0154572  -0.1385391   0.4668450  )
         2           C   tau(   2) = (  -0.0307648  -0.0600905   1.0403408  )
         3           C   tau(   3) = (   0.2134850  -0.3450615   2.5496915  )
         4           C   tau(   4) = (  -0.0162566   0.1974564   0.4163906  )
         5           C   tau(   5) = (   0.2641430   0.1112794   1.0332635  )
         6           C   tau(   6) = (   0.2127504  -0.0086353   2.5017914  )
         7           C   tau(   7) = (   0.5737200  -0.1348971   0.4832752  )
         8           C   tau(   8) = (   0.5591597  -0.0558681   1.0623158  )
         9           C   tau(   9) = (   0.8033435  -0.3438725   2.5649032  )
        10           C   tau(  10) = (   0.5734402   0.2014170   0.4341457  )
        11           C   tau(  11) = (   0.8531730   0.1133255   1.0373906  )
        12           C   tau(  12) = (   0.8025517  -0.0072676   2.5183220  )
        13           C   tau(  13) = (  -0.3104648   0.3639964   0.3840391  )
        14           C   tau(  14) = (  -0.3253567   0.4433319   0.9640850  )
        15           C   tau(  15) = (  -0.0822570   0.1581366   2.4682188  )
        16           C   tau(  16) = (  -0.3112004   0.7006707   0.3356630  )
        17           C   tau(  17) = (  -0.0312272   0.6143297   0.9518372  )
        18           C   tau(  18) = (  -0.0825383   0.4950606   2.4206983  )
        19           C   tau(  19) = (   0.2778564   0.3689845   0.4078755  )
        20           C   tau(  20) = (   0.2641165   0.4455809   0.9705993  )
        21           C   tau(  21) = (   0.5076278   0.1593537   2.4878309  )
        22           C   tau(  22) = (   0.2773145   0.7053947   0.3537075  )
        23           C   tau(  23) = (   0.5568160   0.6176060   0.9660793  )
        24           C   tau(  24) = (   0.5072275   0.4957560   2.4364086  )
        25           H   tau(  25) = (   0.2594863   0.9713233   1.4585639  )
        26           H   tau(  26) = (   0.2560792   0.7729165   1.4862345  )
        27           H   tau(  27) = (   0.2553839   0.3486814   2.0322374  )
        28           H   tau(  28) = (   0.1911302   0.1744219   2.0516958  )
        29           H   tau(  29) = (   0.7224428   0.3123475   2.0722814  )
        30           H   tau(  30) = (   0.8965235   0.2432747   2.0860748  )
        31           H   tau(  31) = (   0.4982260  -0.3232764   2.1336394  )
        32           H   tau(  32) = (   0.5355088  -0.1430024   2.1029270  )
        33           H   tau(  33) = (  -0.1272128   0.3051494   1.5342532  )
        34           H   tau(  34) = (   0.0432244   0.4106708   1.5309226  )
        35           H   tau(  35) = (   0.4625605   0.4233668   1.5465060  )
        36           H   tau(  36) = (   0.2468256   0.5387851   1.5424563  )
        37           H   tau(  37) = (   0.2208038  -0.2469314   1.5651373  )
        38           H   tau(  38) = (   0.2280524  -0.0659623   1.5467331  )
        39           H   tau(  39) = (   0.6118459   0.7523325   1.9850424  )
        40           H   tau(  40) = (   0.4331743   0.8055869   1.9741224  )
        41           H   tau(  41) = (   0.8384430   0.2014699   1.5969465  )
        42           H   tau(  42) = (   0.6340414   0.3199426   1.5565384  )

     number of k points=     1  Gaussian smearing, width (Ry)=  0.0100
                       cart. coord. in units 2pi/alat
        k(    1) = (   0.0000000   0.0000000   0.0000000), wk =   2.0000000

     Dense  grid:   224335 G-vectors     FFT dimensions: (  60,  64, 150)

     Smooth grid:    56669 G-vectors     FFT dimensions: (  40,  40,  96)

     Estimated max dynamical RAM per process >       7.78 MB

     Estimated total dynamical RAM >     747.30 MB

     Check: negative core charge=   -0.000002

     Initial potential from superposition of free atoms

     starting charge     113.9990, renormalised to     114.0000
     Starting wfcs are  114 randomized atomic wfcs

     total cpu time spent up to now is        0.5 secs

     Self-consistent Calculation

     iteration #  1     ecut=    40.00 Ry     beta= 0.05
     Davidson diagonalization with overlap
     ethr =  1.00E-02,  avg # of iterations =  3.0

     total cpu time spent up to now is        0.6 secs

     total energy              =    -306.89428730 Ry
     estimated scf accuracy    <       2.02355264 Ry

     iteration #  2     ecut=    40.00 Ry     beta= 0.05
     Davidson diagonalization with overlap
     ethr =  1.78E-03,  avg # of iterations =  4.0

     total cpu time spent up to now is        0.7 secs

     total energy              =    -307.76038887 Ry
     estimated scf accuracy    <       2.39029853 Ry

     iteration #  3     ecut=    40.00 Ry     beta= 0.05
     Davidson diagonalization with overlap
     ethr =  1.78E-03,  avg # of iterations =  1.0

     total cpu time spent up to now is        0.7 secs

     total energy              =    -305.79623638 Ry
     estimated scf accuracy    <       3.65703745 Ry

     iteration #  4     ecut=    40.00 Ry     beta= 0.05
     Davidson diagonalization with overlap
     ethr =  1.78E-03,  avg # of iterations =  2.0

     total cpu time spent up to now is        0.8 secs

     total energy              =    -306.04018941 Ry
     estimated scf accuracy    <       0.10565073 Ry

     iteration #  5     ecut=    40.00 Ry     beta= 0.05
     Davidson diagonalization with overlap
     c_bands:  1 eigenvalues not converged
     ethr =  9.27E-05,  avg # of iterations = 20.0

     total cpu time spent up to now is        1.0 secs

     total energy              =    -306.09743824 Ry
     estimated scf accuracy    <       0.04922605 Ry

     iteration #  6     ecut=    40.00 Ry     beta= 0.05
     Davidson diagonalization with overlap
     ethr =  4.32E-05,  avg # of iterations =  9.0

     total cpu time spent up to now is        1.0 secs

     total energy              =    -306.08637658 Ry
     estimated scf accuracy    <       0.04417306 Ry

     iteration #  7     ecut=    40.00 Ry     beta= 0.05
     Davidson diagonalization with overlap
     ethr =  3.87E-05,  avg # of iterations =  2.0

     total cpu time spent up to now is        1.1 secs

     total energy              =    -306.08403437 Ry
     estimated scf accuracy    <       0.01264417 Ry

     iteration #  8     ecut=    40.00 Ry     beta= 0.05
     Davidson diagonalization with overlap
     ethr =  1.11E-05,  avg # of iterations =  4.0

     total cpu time spent up to now is        1.2 secs

     total energy              =    -306.08727788 Ry
     estimated scf accuracy    <       0.00290212 Ry

     iteration #  9     ecut=    40.00 Ry     beta= 0.05
     Davidson diagonalization with overlap
     ethr =  2.55E-06,  avg # of iterations =  9.0

     total cpu time spent up to now is        1.3 secs

     total energy              =    -306.08781845 Ry
     estimated scf accuracy    <       0.00225070 Ry

     iteration # 10     ecut=    40.00 Ry     beta= 0.05
     Davidson diagonalization with overlap
     ethr =  1.97E-06,  avg # of iterations =  2.0

     total cpu time spent up to now is        1.3 secs

     total energy              =    -306.08804937 Ry
     estimated scf accuracy    <       0.00253788 Ry

     iteration # 11     ecut=    40.00 Ry     beta= 0.05
     Davidson diagonalization with overlap
     ethr =  1.97E-06,  avg # of iterations =  1.0

     total cpu time spent up to now is        1.4 secs

     total energy              =    -306.08773327 Ry
     estimated scf accuracy    <       0.00262621 Ry

     iteration # 12     ecut=    40.00 Ry     beta= 0.05
     Davidson diagonalization with overlap
     ethr =  1.97E-06,  avg # of iterations =  1.0

     total cpu time spent up to now is        1.5 secs

     total energy              =    -306.08726740 Ry
     estimated scf accuracy    <       0.00187475 Ry

     iteration # 13     ecut=    40.00 Ry     beta= 0.05
     Davidson diagonalization with overlap
     ethr =  1.64E-06,  avg # of iterations =  1.0

     total cpu time spent up to now is        1.5 secs

     total energy              =    -306.08723900 Ry
     estimated scf accuracy    <       0.00082243 Ry

     iteration # 14     ecut=    40.00 Ry     beta= 0.05
     Davidson diagonalization with overlap
     ethr =  7.21E-07,  avg # of iterations =  2.0

     total cpu time spent up to now is        1.6 secs

     total energy              =    -306.08700731 Ry
     estimated scf accuracy    <       0.00060622 Ry

     iteration # 15     ecut=    40.00 Ry     beta= 0.05
     Davidson diagonalization with overlap
     ethr =  5.32E-07,  avg # of iterations =  8.0

     total cpu time spent up to now is        1.7 secs

     total energy              =    -306.08709863 Ry
     estimated scf accuracy    <       0.00012704 Ry

     iteration # 16     ecut=    40.00 Ry     beta= 0.05
     Davidson diagonalization with overlap
     ethr =  1.11E-07,  avg # of iterations =  4.0

     total cpu time spent up to now is        1.7 secs

     total energy              =    -306.08713075 Ry
     estimated scf accuracy    <       0.00004666 Ry

     iteration # 17     ecut=    40.00 Ry     beta= 0.05
     Davidson diagonalization with overlap
     ethr =  4.09E-08,  avg # of iterations =  2.0

     total cpu time spent up to now is        1.8 secs

     total energy              =    -306.08712649 Ry
     estimated scf accuracy    <       0.00004642 Ry

     iteration # 18     ecut=    40.00 Ry     beta= 0.05
     Davidson diagonalization with overlap
     ethr =  4.07E-08,  avg # of iterations =  2.0

     total cpu time spent up to now is        1.9 secs

     total energy              =    -306.08712553 Ry
     estimated scf accuracy    <       0.00003131 Ry

     iteration # 19     ecut=    40.00 Ry     beta= 0.05
     Davidson diagonalization with overlap
     ethr =  2.75E-08,  avg # of iterations =  2.0

     total cpu time spent up to now is        1.9 secs

     total energy              =    -306.08712152 Ry
     estimated scf accuracy    <       0.00002513 Ry

     iteration # 20     ecut=    40.00 Ry     beta= 0.05
     Davidson diagonalization with overlap
     ethr =  2.20E-08,  avg # of iterations =  2.0

     total cpu time spent up to now is        2.0 secs

     total energy              =    -306.08712380 Ry
     estimated scf accuracy    <       0.00001162 Ry

     iteration # 21     ecut=    40.00 Ry     beta= 0.05
     Davidson diagonalization with overlap
     ethr =  1.02E-08,  avg # of iterations =  2.0

     total cpu time spent up to now is        2.1 secs

     total energy              =    -306.08712523 Ry
     estimated scf accuracy    <       0.00000666 Ry

     iteration # 22     ecut=    40.00 Ry     beta= 0.05
     Davidson diagonalization with overlap
     ethr =  5.84E-09,  avg # of iterations =  1.0

     total cpu time spent up to now is        2.1 secs

     total energy              =    -306.08712433 Ry
     estimated scf accuracy    <       0.00000614 Ry

     iteration # 23     ecut=    40.00 Ry     beta= 0.05
     Davidson diagonalization with overlap
     ethr =  5.39E-09,  avg # of iterations =  2.0

     total cpu time spent up to now is        2.2 secs

     total energy              =    -306.08712437 Ry
     estimated scf accuracy    <       0.00000383 Ry

     iteration # 24     ecut=    40.00 Ry     beta= 0.05
     Davidson diagonalization with overlap
     ethr =  3.36E-09,  avg # of iterations =  1.0

     total cpu time spent up to now is        2.2 secs

     total energy              =    -306.08712431 Ry
     estimated scf accuracy    <       0.00000206 Ry

     iteration # 25     ecut=    40.00 Ry     beta= 0.05
     Davidson diagonalization with overlap
     ethr =  1.81E-09,  avg # of iterations =  2.0

     total cpu time spent up to now is        2.3 secs

     total energy              =    -306.08712449 Ry
     estimated scf accuracy    <       0.00000168 Ry

     iteration # 26     ecut=    40.00 Ry     beta= 0.05
     Davidson diagonalization with overlap
     ethr =  1.48E-09,  avg # of iterations =  1.0

     total cpu time spent up to now is        2.3 secs

     total energy              =    -306.08712438 Ry
     estimated scf accuracy    <       0.00000154 Ry

     iteration # 27     ecut=    40.00 Ry     beta= 0.05
     Davidson diagonalization with overlap
     ethr =  1.35E-09,  avg # of iterations =  2.0

     total cpu time spent up to now is        2.4 secs

     total energy              =    -306.08712438 Ry
     estimated scf accuracy    <       0.00000132 Ry

     iteration # 28     ecut=    40.00 Ry     beta= 0.05
     Davidson diagonalization with overlap
     ethr =  1.16E-09,  avg # of iterations =  1.0

     total cpu time spent up to now is        2.4 secs

     End of self-consistent calculation

          k = 0.0000 0.0000 0.0000 (  7119 PWs)   bands (ev):

   -13.1506 -12.7211 -11.9080  -7.7285  -7.7159  -7.7078  -7.5199  -7.5064
    -7.4855  -7.2406  -7.2196  -7.2162  -6.6454  -6.6158  -6.6071  -6.3441
    -6.3392  -6.3236  -6.0882  -6.0717  -6.0635  -5.2740  -3.7309  -1.8592
     0.1524   0.1594   0.1712   0.2480   0.2572   0.2662   0.2739   0.4671
     0.5397   0.5560   0.5723   1.2122   1.2438   1.3225   1.8748   2.0023
     2.0740   2.8053   3.1111   3.1398   3.2116   3.4632   3.5470   3.5576
     3.5684   3.5978   3.6078   3.6392   3.7428   3.7552   4.7223   4.7863
     4.9768   8.0577   8.2035   8.3256   8.8637   8.9491   9.0291   9.0916
     9.1727   9.3078  11.0962  11.6556

     the Fermi energy is     6.1343 ev

!    total energy              =    -306.08712442 Ry
     estimated scf accuracy    <       0.00000098 Ry
     smearing contrib. (-TS)   =      -0.00000000 Ry
     internal energy E=F+TS    =    -306.08712442 Ry

     The total energy is F=E-TS. E is the sum of the following terms:
     one-electron contribution =    -200.91557215 Ry
     hartree contribution      =     157.46258986 Ry
     xc contribution           =    -112.10021308 Ry
     ewald contribution        =    -150.53392905 Ry

     convergence has been achieved in  28 iterations

     Forces acting on atoms (cartesian axes, Ry/au):

     atom    1 type  1   force =     0.00029023   -0.00036091    0.00040898
     atom    2 type  1   force =     0.00007343    0.00001243   -0.00025317
     atom    3 type  1   force =    -0.00011599    0.00032548    0.00017042
     atom    4 type  1   force =     0.00015355   -0.00013990   -0.00154206
     atom    5 type  1   force =    -0.00012182    0.00014129   -0.00020798
     atom    6 type  1   force =    -0.00043608   -0.00016421   -0.00028628
     atom    7 type  1   force =     0.00018420   -0.00024369   -0.00018984
     atom    8 type  1   force =     0.00006393   -0.00006143   -0.00057118
     atom    9 type  1   force =    -0.00026935    0.00039962    0.00053474
     atom   10 type  1   force =     0.00012141   -0.00013431   -0.00055446
     atom   11 type  1   force =    -0.00031960    0.00007964    0.00042210
     atom   12 type  1   force =    -0.00039626   -0.00010230    0.00037396
     atom   13 type  1   force =     0.00005435   -0.00027889    0.00034537
     atom   14 type  1   force =     0.00023292   -0.00018494   -0.00037772
     atom   15 type  1   force =    -0.00017155    0.00028935   -0.00015258
     atom   16 type  1   force =     0.00005985    0.00011042    0.00045290
     atom   17 type  1   force =    -0.00023753    0.00011362   -0.00002872
     atom   18 type  1   force =    -0.00038294   -0.00010053    0.00012930
     atom   19 type  1   force =     0.00016781   -0.00014352    0.00082255
     atom   20 type  1   force =    -0.00023570    0.00049271    0.00131293
     atom   21 type  1   force =    -0.00013163    0.00024136   -0.00002629
     atom   22 type  1   force =     0.00001486   -0.00012047   -0.00082544
     atom   23 type  1   force =    -0.00003468   -0.00010175   -0.00022261
     atom   24 type  1   force =    -0.00038394   -0.00016620   -0.00030964
     atom   25 type  2   force =    -0.00033403   -0.00009069   -0.00039534
     atom   26 type  2   force =    -0.00014566   -0.00006736    0.00002130
     atom   27 type  2   force =     0.00011636    0.00020532   -0.00002562
     atom   28 type  2   force =    -0.00008320    0.00000552    0.00000008
     atom   29 type  2   force =    -0.00013236   -0.00008608    0.00022835
     atom   30 type  2   force =     0.00022766    0.00013901   -0.00014291
     atom   31 type  2   force =     0.00008015    0.00004367   -0.00032223
     atom   32 type  2   force =    -0.00035284    0.00039229    0.00011648
     atom   33 type  2   force =     0.00099504    0.00058374   -0.00022322
     atom   34 type  2   force =     0.00054659    0.00037282    0.00015607
     atom   35 type  2   force =     0.00023664   -0.00069562   -0.00003234
     atom   36 type  2   force =     0.00024691   -0.00066034   -0.00042507
     atom   37 type  2   force =     0.00029024   -0.00021618    0.00067676
     atom   38 type  2   force =    -0.00017407   -0.00029886   -0.00053527
     atom   39 type  2   force =     0.00001405    0.00002637    0.00025721
     atom   40 type  2   force =    -0.00013513    0.00028874    0.00031421
     atom   41 type  2   force =     0.00028668   -0.00023223    0.00093582
     atom   42 type  2   force =     0.00013750    0.00038702   -0.00002958
     The non-local contrib.  to forces
     atom    1 type  1   force =     0.00229121    0.00179052    0.03846701
     atom    2 type  1   force =     0.02464036   -0.01052723   -0.03281095
     atom    3 type  1   force =     0.00175829   -0.02089375   -0.12130894
     atom    4 type  1   force =     0.00593762    0.01364123    0.06846285
     atom    5 type  1   force =    -0.00203980   -0.01661428   -0.06738800
     atom    6 type  1   force =    -0.00420739   -0.01478413   -0.11825681
     atom    7 type  1   force =    -0.00033697    0.00537759    0.03639265
     atom    8 type  1   force =    -0.00985981   -0.00513942   -0.03231152
     atom    9 type  1   force =     0.01049828   -0.01977894   -0.12545754
     atom   10 type  1   force =    -0.01104437    0.01279595    0.06957691
     atom   11 type  1   force =    -0.00752222    0.00101245   -0.04378211
     atom   12 type  1   force =     0.00637258   -0.00598032   -0.11496102
     atom   13 type  1   force =    -0.00171277    0.00506937    0.03731257
     atom   14 type  1   force =     0.00262594    0.00490605   -0.02750858
     atom   15 type  1   force =     0.00547536   -0.02048206   -0.12607286
     atom   16 type  1   force =    -0.00480133    0.01416768    0.07738993
     atom   17 type  1   force =    -0.00138276   -0.01345914   -0.07029809
     atom   18 type  1   force =    -0.00636363   -0.02267061   -0.11302884
     atom   19 type  1   force =     0.00115003    0.00685952    0.03746127
     atom   20 type  1   force =    -0.00712416   -0.00619638   -0.02551850
     atom   21 type  1   force =     0.00606410   -0.01296314   -0.11993008
     atom   22 type  1   force =    -0.00264991    0.00010052    0.06956220
     atom   23 type  1   force =     0.01078963   -0.00515357   -0.06565262
     atom   24 type  1   force =     0.00793927   -0.01759022   -0.12018155
     atom   25 type  2   force =    -0.00191665   -0.02126603    0.00346842
     atom   26 type  2   force =     0.00001477    0.02257488   -0.00143612
     atom   27 type  2   force =    -0.01969057   -0.05315134    0.00850777
     atom   28 type  2   force =     0.01958481    0.05404539   -0.00321397
     atom   29 type  2   force =     0.05171413   -0.01991763    0.00749782
     atom   30 type  2   force =    -0.05196174    0.02092031   -0.00091730
     atom   31 type  2   force =     0.01136443    0.05602319   -0.00686355
     atom   32 type  2   force =    -0.01155882   -0.05531369    0.01209356
     atom   33 type  2   force =     0.01868391    0.01324919    0.00109396
     atom   34 type  2   force =    -0.01912490   -0.01210543    0.00133216
     atom   35 type  2   force =     0.01993391   -0.01339989    0.00138030
     atom   36 type  2   force =     0.00060408   -0.00034681   -0.00572043
     atom   37 type  2   force =     0.00241722    0.06208838   -0.00733749
     atom   38 type  2   force =    -0.00259855   -0.06248552    0.00531764
     atom   39 type  2   force =    -0.05501267    0.01659083   -0.00044297
     atom   40 type  2   force =     0.05479314   -0.01588707    0.00608900
     atom   41 type  2   force =     0.00144693   -0.00153533   -0.00423742
     atom   42 type  2   force =    -0.01907922    0.01231414    0.00091106
     The ionic contribution  to forces
     atom    1 type  1   force =     0.10062685   -0.22936722   -1.47102104
     atom    2 type  1   force =    -0.16020431    1.10930923    8.07347484
     atom    3 type  1   force =     0.19042964   -0.81312944   -6.06291502
     atom    4 type  1   force =     0.08618656   -0.20274773   -1.55940323
     atom    5 type  1   force =    -0.25336059    1.12092982    8.37378897
     atom    6 type  1   force =     0.17906949   -0.85093672   -6.12076407
     atom    7 type  1   force =    -0.00139364   -0.22512525   -1.49580347
     atom    8 type  1   force =    -0.30866758    1.12642883    8.25765413
     atom    9 type  1   force =     0.20143789   -0.88222600   -6.18866899
     atom   10 type  1   force =     0.01055294   -0.21202740   -1.55425441
     atom   11 type  1   force =    -0.28739390    1.10067597    7.68363582
     atom   12 type  1   force =     0.18051875   -0.90880091   -6.11126400
     atom   13 type  1   force =     0.04634163   -0.17448119   -1.55112113
     atom   14 type  1   force =    -0.22594154    1.21619479    8.19009126
     atom   15 type  1   force =     0.22407655   -0.87199674   -6.09741077
     atom   16 type  1   force =     0.04666457   -0.20104676   -1.49335908
     atom   17 type  1   force =    -0.29211336    1.21607182    8.32455642
     atom   18 type  1   force =     0.21221066   -0.83284993   -6.08758450
     atom   19 type  1   force =     0.04742247   -0.20079803   -1.37294037
     atom   20 type  1   force =    -0.27962661    1.07683634    7.67708129
     atom   21 type  1   force =     0.16546300   -0.89274135   -6.05122809
     atom   22 type  1   force =     0.04274317   -0.26568273   -1.56735739
     atom   23 type  1   force =    -0.20606094    1.19860623    8.16432555
     atom   24 type  1   force =     0.15072845   -0.85862868   -6.15453030
     atom   25 type  2   force =    -0.04986436    0.32735953    1.33459196
     atom   26 type  2   force =    -0.08248227    0.03002488    1.34574710
     atom   27 type  2   force =     0.30654104    0.29904669   -2.32303342
     atom   28 type  2   force =    -0.15597919   -1.01525254   -2.21255872
     atom   29 type  2   force =    -0.56961630   -0.09743183   -2.44449368
     atom   30 type  2   force =     0.72236494   -0.59070164   -2.32308719
     atom   31 type  2   force =    -0.09634594   -0.97429481   -2.16230546
     atom   32 type  2   force =     0.17273701    0.38302086   -2.37440419
     atom   33 type  2   force =    -0.15947378    0.10509971    1.38197422
     atom   34 type  2   force =     0.09557983    0.30393503    1.34380636
     atom   35 type  2   force =    -0.19262886    0.27572614    1.32845557
     atom   36 type  2   force =    -0.07352507    0.18448291    1.32222206
     atom   37 type  2   force =    -0.01893714   -0.44748055    1.99023563
     atom   38 type  2   force =     0.04135788    1.01234190    1.79739050
     atom   39 type  2   force =     0.77896128   -0.49796759   -2.25264882
     atom   40 type  2   force =    -0.57669674   -0.10815299   -2.30470693
     atom   41 type  2   force =    -0.08487596    0.19525549    1.37259355
     atom   42 type  2   force =     0.07317346    0.07252188    1.37523902
     The local contribution  to forces
     atom    1 type  1   force =    -0.10246056    0.22730723    1.43455820
     atom    2 type  1   force =     0.13644018   -1.09907981   -8.04131569
     atom    3 type  1   force =    -0.19234497    0.83391481    6.18207345
     atom    4 type  1   force =    -0.09172372    0.18934501    1.49111093
     atom    5 type  1   force =     0.25508047   -1.10449376   -8.30681090
     atom    6 type  1   force =    -0.17552794    0.86531514    6.23631526
     atom    7 type  1   force =     0.00176923    0.21968085    1.46063565
     atom    8 type  1   force =     0.31834183   -1.12137254   -8.22602873
     atom    9 type  1   force =    -0.21185866    0.90194947    6.31199061
     atom   10 type  1   force =     0.00023143    0.19946268    1.48589062
     atom   11 type  1   force =     0.29429806   -1.10155088   -7.64101565
     atom   12 type  1   force =    -0.18709839    0.91453485    6.22418014
     atom   13 type  1   force =    -0.04463905    0.16942957    1.51545859
     atom   14 type  1   force =     0.22360001   -1.22105614   -8.16293836
     atom   15 type  1   force =    -0.22962964    0.89236704    6.22079379
     atom   16 type  1   force =    -0.04196660    0.18738454    1.41840055
     atom   17 type  1   force =     0.29320295   -1.20269847   -8.25472334
     atom   18 type  1   force =    -0.20643997    0.85496483    6.19846934
     atom   19 type  1   force =    -0.04840083    0.19410098    1.33816180
     atom   20 type  1   force =     0.28625266   -1.07042269   -7.65167517
     atom   21 type  1   force =    -0.17144561    0.90570808    6.16887217
     atom   22 type  1   force =    -0.04014195    0.26533432    1.49870373
     atom   23 type  1   force =     0.19558189   -1.19338488   -8.09951108
     atom   24 type  1   force =    -0.15884550    0.87566286    6.27177631
     atom   25 type  2   force =     0.05145627   -0.30618487   -1.33861284
     atom   26 type  2   force =     0.08233056   -0.05268635   -1.34444540
     atom   27 type  2   force =    -0.28672436   -0.24569859    2.31433789
     atom   28 type  2   force =     0.13630668    0.96117444    2.21561563
     atom   29 type  2   force =     0.51776603    0.11724493    2.43707319
     atom   30 type  2   force =    -0.67016093    0.56989304    2.32371030
     atom   31 type  2   force =     0.08506273    0.91827731    2.16869421
     atom   32 type  2   force =    -0.16151949   -0.32732002    2.36226709
     atom   33 type  2   force =     0.14177041   -0.11780100   -1.38344344
     atom   34 type  2   force =    -0.07590588   -0.29148271   -1.34513989
     atom   35 type  2   force =     0.17293724   -0.26304253   -1.33002808
     atom   36 type  2   force =     0.07317361   -0.18481848   -1.31709539
     atom   37 type  2   force =     0.01680925    0.38515176   -1.98236516
     atom   38 type  2   force =    -0.03893570   -0.95017277   -1.80339037
     atom   39 type  2   force =    -0.72391504    0.48137486    2.25319367
     atom   40 type  2   force =     0.52175519    0.12431549    2.29877184
     atom   41 type  2   force =     0.08372605   -0.19397684   -1.36758269
     atom   42 type  2   force =    -0.05393103   -0.08447965   -1.37633057
     The core correction contribution to forces
     atom    1 type  1   force =    -0.00018712   -0.00000292   -0.00095233
     atom    2 type  1   force =    -0.00079086    0.00033350    0.00061033
     atom    3 type  1   force =     0.00003898    0.00040677    0.00231310
     atom    4 type  1   force =    -0.00024430   -0.00027138   -0.00106436
     atom    5 type  1   force =     0.00018586    0.00031933    0.00040333
     atom    6 type  1   force =     0.00021283    0.00022508    0.00242641
     atom    7 type  1   force =     0.00013977   -0.00009846   -0.00077819
     atom    8 type  1   force =     0.00021901    0.00004777    0.00031090
     atom    9 type  1   force =    -0.00033823    0.00047175    0.00266539
     atom   10 type  1   force =     0.00033130   -0.00026160   -0.00111344
     atom   11 type  1   force =     0.00030968   -0.00002057    0.00178148
     atom   12 type  1   force =    -0.00018037    0.00017260    0.00239828
     atom   13 type  1   force =     0.00004863   -0.00021115   -0.00065999
     atom   14 type  1   force =    -0.00006645   -0.00017460    0.00018005
     atom   15 type  1   force =    -0.00012403    0.00038788    0.00252465
     atom   16 type  1   force =     0.00013832   -0.00029100   -0.00134290
     atom   17 type  1   force =     0.00001829    0.00022743    0.00064432
     atom   18 type  1   force =     0.00016483    0.00044967    0.00226110
     atom   19 type  1   force =    -0.00002598   -0.00021414   -0.00122690
     atom   20 type  1   force =     0.00026414    0.00030592    0.00163914
     atom   21 type  1   force =    -0.00017413    0.00023964    0.00224905
     atom   22 type  1   force =     0.00002694    0.00020333   -0.00108134
     atom   23 type  1   force =    -0.00031674   -0.00013220    0.00081976
     atom   24 type  1   force =    -0.00016594    0.00039344    0.00262443
     atom   25 type  2   force =     0.00000000    0.00000000    0.00000000
     atom   26 type  2   force =     0.00000000    0.00000000    0.00000000
     atom   27 type  2   force =     0.00000000    0.00000000    0.00000000
     atom   28 type  2   force =     0.00000000    0.00000000    0.00000000
     atom   29 type  2   force =     0.00000000    0.00000000    0.00000000
     atom   30 type  2   force =     0.00000000    0.00000000    0.00000000
     atom   31 type  2   force =     0.00000000    0.00000000    0.00000000
     atom   32 type  2   force =     0.00000000    0.00000000    0.00000000
     atom   33 type  2   force =     0.00000000    0.00000000    0.00000000
     atom   34 type  2   force =     0.00000000    0.00000000    0.00000000
     atom   35 type  2   force =     0.00000000    0.00000000    0.00000000
     atom   36 type  2   force =     0.00000000    0.00000000    0.00000000
     atom   37 type  2   force =     0.00000000    0.00000000    0.00000000
     atom   38 type  2   force =     0.00000000    0.00000000    0.00000000
     atom   39 type  2   force =     0.00000000    0.00000000    0.00000000
     atom   40 type  2   force =     0.00000000    0.00000000    0.00000000
     atom   41 type  2   force =     0.00000000    0.00000000    0.00000000
     atom   42 type  2   force =     0.00000000    0.00000000    0.00000000
     The Hubbard contrib.    to forces
     atom    1 type  1   force =     0.00000000    0.00000000    0.00000000
     atom    2 type  1   force =     0.00000000    0.00000000    0.00000000
     atom    3 type  1   force =     0.00000000    0.00000000    0.00000000
     atom    4 type  1   force =     0.00000000    0.00000000    0.00000000
     atom    5 type  1   force =     0.00000000    0.00000000    0.00000000
     atom    6 type  1   force =     0.00000000    0.00000000    0.00000000
     atom    7 type  1   force =     0.00000000    0.00000000    0.00000000
     atom    8 type  1   force =     0.00000000    0.00000000    0.00000000
     atom    9 type  1   force =     0.00000000    0.00000000    0.00000000
     atom   10 type  1   force =     0.00000000    0.00000000    0.00000000
     atom   11 type  1   force =     0.00000000    0.00000000    0.00000000
     atom   12 type  1   force =     0.00000000    0.00000000    0.00000000
     atom   13 type  1   force =     0.00000000    0.00000000    0.00000000
     atom   14 type  1   force =     0.00000000    0.00000000    0.00000000
     atom   15 type  1   force =     0.00000000    0.00000000    0.00000000
     atom   16 type  1   force =     0.00000000    0.00000000    0.00000000
     atom   17 type  1   force =     0.00000000    0.00000000    0.00000000
     atom   18 type  1   force =     0.00000000    0.00000000    0.00000000
     atom   19 type  1   force =     0.00000000    0.00000000    0.00000000
     atom   20 type  1   force =     0.00000000    0.00000000    0.00000000
     atom   21 type  1   force =     0.00000000    0.00000000    0.00000000
     atom   22 type  1   force =     0.00000000    0.00000000    0.00000000
     atom   23 type  1   force =     0.00000000    0.00000000    0.00000000
     atom   24 type  1   force =     0.00000000    0.00000000    0.00000000
     atom   25 type  2   force =     0.00000000    0.00000000    0.00000000
     atom   26 type  2   force =     0.00000000    0.00000000    0.00000000
     atom   27 type  2   force =     0.00000000    0.00000000    0.00000000
     atom   28 type  2   force =     0.00000000    0.00000000    0.00000000
     atom   29 type  2   force =     0.00000000    0.00000000    0.00000000
     atom   30 type  2   force =     0.00000000    0.00000000    0.00000000
     atom   31 type  2   force =     0.00000000    0.00000000    0.00000000
     atom   32 type  2   force =     0.00000000    0.00000000    0.00000000
     atom   33 type  2   force =     0.00000000    0.00000000    0.00000000
     atom   34 type  2   force =     0.00000000    0.00000000    0.00000000
     atom   35 type  2   force =     0.00000000    0.00000000    0.00000000
     atom   36 type  2   force =     0.00000000    0.00000000    0.00000000
     atom   37 type  2   force =     0.00000000    0.00000000    0.00000000
     atom   38 type  2   force =     0.00000000    0.00000000    0.00000000
     atom   39 type  2   force =     0.00000000    0.00000000    0.00000000
     atom   40 type  2   force =     0.00000000    0.00000000    0.00000000
     atom   41 type  2   force =     0.00000000    0.00000000    0.00000000
     atom   42 type  2   force =     0.00000000    0.00000000    0.00000000
     The SCF correction term to forces
     atom    1 type  1   force =     0.00001973   -0.00008942   -0.00064833
     atom    2 type  1   force =    -0.00001203   -0.00002416   -0.00021717
     atom    3 type  1   force =     0.00000196    0.00002619    0.00000236
     atom    4 type  1   force =    -0.00000272   -0.00010793   -0.00065373
     atom    5 type  1   force =     0.00001214   -0.00000071   -0.00020686
     atom    6 type  1   force =     0.00001683    0.00001552   -0.00001255
     atom    7 type  1   force =     0.00000570   -0.00007933   -0.00064195
     atom    8 type  1   force =     0.00003039   -0.00002697   -0.00020143
     atom    9 type  1   force =    -0.00000872   -0.00001757   -0.00000021
     atom   10 type  1   force =     0.00005000   -0.00010482   -0.00065960
     atom   11 type  1   force =    -0.00001132   -0.00003823   -0.00020291
     atom   12 type  1   force =    -0.00000893   -0.00002942    0.00001509
     atom   13 type  1   force =     0.00001580   -0.00008640   -0.00065014
     atom   14 type  1   force =     0.00001485   -0.00005594   -0.00020756
     atom   15 type  1   force =     0.00003011    0.00001232    0.00000713
     atom   16 type  1   force =     0.00002479   -0.00010494   -0.00064108
     atom   17 type  1   force =     0.00003724   -0.00002891   -0.00021351
     atom   18 type  1   force =     0.00004506    0.00000461    0.00000672
     atom   19 type  1   force =     0.00002200   -0.00009275   -0.00063872
     atom   20 type  1   force =    -0.00000183   -0.00003138   -0.00021931
     atom   21 type  1   force =    -0.00003910   -0.00000276    0.00000518
     atom   22 type  1   force =     0.00003651   -0.00007680   -0.00065812
     atom   23 type  1   force =    -0.00002862   -0.00003823   -0.00020969
     atom   24 type  1   force =    -0.00004034   -0.00000450   -0.00000400
     atom   25 type  2   force =    -0.00000940   -0.00000022    0.00015165
     atom   26 type  2   force =    -0.00000883    0.00001834    0.00015024
     atom   27 type  2   force =    -0.00000986    0.00000766    0.00015666
     atom   28 type  2   force =     0.00000440    0.00003733    0.00015167
     atom   29 type  2   force =     0.00000367    0.00001755    0.00014553
     atom   30 type  2   force =    -0.00001472    0.00002640    0.00014580
     atom   31 type  2   force =    -0.00000118    0.00003707    0.00014711
     atom   32 type  2   force =    -0.00001165    0.00000424    0.00015454
     atom   33 type  2   force =     0.00001441    0.00003493    0.00014656
     atom   34 type  2   force =    -0.00000256    0.00002503    0.00015197
     atom   35 type  2   force =    -0.00000576    0.00001976    0.00015439
     atom   36 type  2   force =    -0.00000581    0.00002113    0.00016322
     atom   37 type  2   force =     0.00000080    0.00002332    0.00013830
     atom   38 type  2   force =     0.00000219    0.00001662    0.00014148
     atom   39 type  2   force =    -0.00001964    0.00002736    0.00014985
     atom   40 type  2   force =     0.00001317    0.00001241    0.00015483
     atom   41 type  2   force =    -0.00001044    0.00002356    0.00015691
     atom   42 type  2   force =    -0.00002581    0.00002974    0.00014544

     Total force =     0.004079     Total SCF correction =     0.002059
     SCF correction compared to forces is large: reduce conv_thr to get better values


     Computing stress (Cartesian axis) and pressure

          total   stress  (Ry/bohr**3)                   (kbar)     P=       -0.71
   0.00000202  -0.00000069  -0.00000740            0.30       -0.10       -1.09
  -0.00000069   0.00000052  -0.00000453           -0.10        0.08       -0.67
  -0.00000740  -0.00000453  -0.00001708           -1.09       -0.67       -2.51


     BFGS Geometry Optimization
     Energy error            =      0.0E+00 Ry
     Gradient error          =      1.5E-03 Ry/Bohr
     Cell gradient error     =      2.5E+00 kbar

     number of scf cycles    =   1
     number of bfgs steps    =   0

     enthalpy           new  =    -306.0871244243 Ry

     new trust radius        =       0.0039049618 bohr
     new conv_thr            =       0.0000010000 Ry

     new unit-cell volume =   1661.61023 a.u.^3 (   246.22523 Ang^3 )
     density =      2.06639 g/cm^3

CELL_PARAMETERS (alat=  8.00000437)
   1.177319684   0.008050288   0.035127052
  -0.591001805   1.006527909  -0.160664777
   0.181601601  -0.432895642   2.794573457

ATOMIC_POSITIONS (crystal)
C            -0.0719097301       -0.0665942662        0.1640829723
C            -0.0328512440        0.1032141984        0.3784528611
C             0.0648000198        0.0495135324        0.9140223634
C             0.0942529910        0.2654373096        0.1629359000
C             0.3019423830        0.2720750849        0.3813968018
C             0.2312300516        0.3823217098        0.9138969972
C             0.4283188907       -0.0671939869        0.1635716539
C             0.4684218602        0.1040464894        0.3800064989
C             0.5643460489        0.0462457086        0.9129735180
C             0.5951149725        0.2653793324        0.1629925310
C             0.8009570912        0.2679285634        0.3763512367
C             0.7308670267        0.3794468369        0.9133545613
C            -0.0719283200        0.4323093849        0.1631440245
C            -0.0319048920        0.6040037523        0.3799502698
C             0.0645324671        0.5492856025        0.9136017586
C             0.0947053008        0.7654155875        0.1628882167
C             0.3019119125        0.7717116313        0.3810044915
C             0.2316229256        0.8826789385        0.9136704723
C             0.4284421071        0.4342699625        0.1654753096
C             0.4676596461        0.6005475793        0.3758387342
C             0.5642251595        0.5467177919        0.9141546108
C             0.5949337494        0.7661148595        0.1629985918
C             0.8009633452        0.7703762730        0.3797011892
C             0.7308601740        0.8789575110        0.9127418920
H             0.7373962190        1.2092188171        0.5818813181
H             0.6359688829        1.0128689034        0.5817919484
H             0.4355138400        0.6695511581        0.7598850853
H             0.2944837827        0.4970165627        0.7587109208
H             0.8130161259        0.6336072297        0.7673785122
H             0.9259992278        0.5638773339        0.7668578242
H             0.3071185930        0.0027384125        0.7594305495
H             0.4280490176        0.1799316337        0.7571221181
H             0.0793490523        0.5516700073        0.5794822837
H             0.2760421528        0.6559088464        0.5818128638
H             0.6371123771        0.6661766480        0.5834018633
H             0.5123571685        0.7848363052        0.5903354984
H             0.0981099489       -0.0062242649        0.5582585105
H             0.1942386921        0.1738718872        0.5607593527
H             0.9375587679        1.0663771423        0.7594805364
H             0.8129028797        1.1206622947        0.7602746977
H             0.8450876279        0.4452830086        0.5861572676
H             0.7306473686        0.5612441788        0.5797748143



     Writing config-only to output data dir ../../results/server/9h2_abs/9H2abs_C.save/
     NEW-OLD atomic charge density approx. for the potential

     Check: negative core charge=   -0.000002
     extrapolated charge  113.95854, renormalised to  114.00000

     total cpu time spent up to now is        2.9 secs

     Self-consistent Calculation

     iteration #  1     ecut=    40.00 Ry     beta= 0.05
     Davidson diagonalization with overlap
     ethr =  1.00E-06,  avg # of iterations =  2.0

     total cpu time spent up to now is        2.9 secs

     total energy              =    -306.08710046 Ry
     estimated scf accuracy    <       0.00017609 Ry

     iteration #  2     ecut=    40.00 Ry     beta= 0.05
     Davidson diagonalization with overlap
     ethr =  1.54E-07,  avg # of iterations =  4.0

     total cpu time spent up to now is        3.0 secs

     total energy              =    -306.08714908 Ry
     estimated scf accuracy    <       0.00001078 Ry

     iteration #  3     ecut=    40.00 Ry     beta= 0.05
     Davidson diagonalization with overlap
     ethr =  9.46E-09,  avg # of iterations =  5.0

     total cpu time spent up to now is        3.1 secs

     total energy              =    -306.08715657 Ry
     estimated scf accuracy    <       0.00000915 Ry

     iteration #  4     ecut=    40.00 Ry     beta= 0.05
     Davidson diagonalization with overlap
     ethr =  8.02E-09,  avg # of iterations =  1.0

     total cpu time spent up to now is        3.2 secs

     total energy              =    -306.08715551 Ry
     estimated scf accuracy    <       0.00000965 Ry

     iteration #  5     ecut=    40.00 Ry     beta= 0.05
     Davidson diagonalization with overlap
     ethr =  8.02E-09,  avg # of iterations =  1.0

     total cpu time spent up to now is        3.2 secs

     total energy              =    -306.08715490 Ry
     estimated scf accuracy    <       0.00000511 Ry

     iteration #  6     ecut=    40.00 Ry     beta= 0.05
     Davidson diagonalization with overlap
     ethr =  4.49E-09,  avg # of iterations =  1.0

     total cpu time spent up to now is        3.3 secs

     total energy              =    -306.08715519 Ry
     estimated scf accuracy    <       0.00000209 Ry

     iteration #  7     ecut=    40.00 Ry     beta= 0.05
     Davidson diagonalization with overlap
     ethr =  1.83E-09,  avg # of iterations =  1.0

     total cpu time spent up to now is        3.3 secs

     total energy              =    -306.08715458 Ry
     estimated scf accuracy    <       0.00000196 Ry

     iteration #  8     ecut=    40.00 Ry     beta= 0.05
     Davidson diagonalization with overlap
     ethr =  1.72E-09,  avg # of iterations =  2.0

     total cpu time spent up to now is        3.4 secs

     End of self-consistent calculation

          k = 0.0000 0.0000 0.0000 (  7119 PWs)   bands (ev):

   -13.1457 -12.7201 -11.8998  -7.7228  -7.7107  -7.7023  -7.5190  -7.5063
    -7.4848  -7.2348  -7.2147  -7.2099  -6.6451  -6.6153  -6.6062  -6.3370
    -6.3324  -6.3170  -6.0804  -6.0639  -6.0556  -5.2689  -3.7308  -1.8526
     0.1573   0.1646   0.1760   0.2525   0.2584   0.2668   0.2760   0.4745
     0.5472   0.5636   0.5794   1.2142   1.2471   1.3253   1.8761   2.0047
     2.0769   2.8144   3.1122   3.1435   3.2146   3.4634   3.5474   3.5591
     3.5696   3.6033   3.6127   3.6417   3.7505   3.7609   4.7290   4.7928
     4.9847   8.0617   8.2123   8.3338   8.8689   8.9544   9.0334   9.0992
     9.1768   9.3109  11.1020  11.6599

     the Fermi energy is     6.1388 ev

!    total energy              =    -306.08715439 Ry
     estimated scf accuracy    <       0.00000066 Ry
     smearing contrib. (-TS)   =      -0.00000000 Ry
     internal energy E=F+TS    =    -306.08715439 Ry

     The total energy is F=E-TS. E is the sum of the following terms:
     one-electron contribution =    -200.63548323 Ry
     hartree contribution      =     157.33744463 Ry
     xc contribution           =    -112.10029975 Ry
     ewald contribution        =    -150.68881604 Ry

     convergence has been achieved in   8 iterations

     Forces acting on atoms (cartesian axes, Ry/au):

     atom    1 type  1   force =    -0.00011132    0.00018496   -0.00002386
     atom    2 type  1   force =    -0.00021379    0.00002260   -0.00026014
     atom    3 type  1   force =    -0.00050588   -0.00025624    0.00023103
     atom    4 type  1   force =     0.00030345   -0.00060227   -0.00099034
     atom    5 type  1   force =     0.00010037    0.00011403   -0.00001398
     atom    6 type  1   force =     0.00004828    0.00045736   -0.00026107
     atom    7 type  1   force =    -0.00008777    0.00004526   -0.00041765
     atom    8 type  1   force =    -0.00030354    0.00012460   -0.00041026
     atom    9 type  1   force =    -0.00046527   -0.00025604    0.00054038
     atom   10 type  1   force =     0.00019348   -0.00038379   -0.00026850
     atom   11 type  1   force =     0.00021156   -0.00008648    0.00033816
     atom   12 type  1   force =    -0.00000070    0.00049377    0.00031947
     atom   13 type  1   force =    -0.00002256    0.00016011   -0.00007497
     atom   14 type  1   force =    -0.00027345   -0.00003932   -0.00031461
     atom   15 type  1   force =    -0.00045059   -0.00031193   -0.00002181
     atom   16 type  1   force =     0.00025435   -0.00036933    0.00047387
     atom   17 type  1   force =     0.00011323    0.00008811    0.00010933
     atom   18 type  1   force =     0.00004519    0.00051370    0.00012162
     atom   19 type  1   force =    -0.00009708    0.00018511    0.00017431
     atom   20 type  1   force =    -0.00014076    0.00023807    0.00091794
     atom   21 type  1   force =    -0.00048857   -0.00030299    0.00006057
     atom   22 type  1   force =     0.00032884   -0.00046490   -0.00046838
     atom   23 type  1   force =     0.00009504   -0.00001587   -0.00003443
     atom   24 type  1   force =     0.00002303    0.00040332   -0.00025608
     atom   25 type  2   force =    -0.00030477   -0.00006873   -0.00037862
     atom   26 type  2   force =    -0.00014182   -0.00018329    0.00006697
     atom   27 type  2   force =     0.00001693    0.00007311   -0.00004881
     atom   28 type  2   force =    -0.00009791    0.00012877   -0.00004984
     atom   29 type  2   force =    -0.00011680   -0.00012180    0.00020235
     atom   30 type  2   force =     0.00009113    0.00013952   -0.00016328
     atom   31 type  2   force =     0.00006291    0.00011840   -0.00036254
     atom   32 type  2   force =    -0.00041966    0.00027974    0.00009822
     atom   33 type  2   force =     0.00056135    0.00034436   -0.00016730
     atom   34 type  2   force =     0.00056476    0.00039126    0.00014567
     atom   35 type  2   force =     0.00005008   -0.00053104   -0.00002407
     atom   36 type  2   force =     0.00038213   -0.00043838   -0.00037700
     atom   37 type  2   force =     0.00031358   -0.00020374    0.00071331
     atom   38 type  2   force =    -0.00015212   -0.00029125   -0.00050316
     atom   39 type  2   force =    -0.00014278    0.00002456    0.00022068
     atom   40 type  2   force =    -0.00008744    0.00024663    0.00026340
     atom   41 type  2   force =     0.00043932   -0.00007935    0.00089507
     atom   42 type  2   force =     0.00042554    0.00022939   -0.00000164
     The non-local contrib.  to forces
     atom    1 type  1   force =     0.00172266    0.00258109    0.03785009
     atom    2 type  1   force =     0.02426964   -0.01054622   -0.03290210
     atom    3 type  1   force =     0.00139662   -0.02164861   -0.12150123
     atom    4 type  1   force =     0.00593875    0.01318306    0.06993946
     atom    5 type  1   force =    -0.00178470   -0.01661153   -0.06717287
     atom    6 type  1   force =    -0.00363997   -0.01413664   -0.11835728
     atom    7 type  1   force =    -0.00048781    0.00568633    0.03611751
     atom    8 type  1   force =    -0.01029596   -0.00498767   -0.03213041
     atom    9 type  1   force =     0.01035635   -0.02061097   -0.12597767
     atom   10 type  1   force =    -0.01098941    0.01259374    0.07030273
     atom   11 type  1   force =    -0.00687713    0.00073261   -0.04445671
     atom   12 type  1   force =     0.00681673   -0.00538851   -0.11539071
     atom   13 type  1   force =    -0.00161148    0.00549270    0.03674117
     atom   14 type  1   force =     0.00206348    0.00514838   -0.02750719
     atom   15 type  1   force =     0.00512058   -0.02117745   -0.12621287
     atom   16 type  1   force =    -0.00449567    0.01352358    0.07731348
     atom   17 type  1   force =    -0.00105633   -0.01349143   -0.07027379
     atom   18 type  1   force =    -0.00590863   -0.02204116   -0.11335067
     atom   19 type  1   force =     0.00098555    0.00716907    0.03657855
     atom   20 type  1   force =    -0.00701355   -0.00668131   -0.02638085
     atom   21 type  1   force =     0.00573560   -0.01365902   -0.12012665
     atom   22 type  1   force =    -0.00234222   -0.00008964    0.07046927
     atom   23 type  1   force =     0.01094990   -0.00502647   -0.06545493
     atom   24 type  1   force =     0.00831749   -0.01696213   -0.12033858
     atom   25 type  2   force =    -0.00190372   -0.02124262    0.00349474
     atom   26 type  2   force =     0.00001395    0.02257622   -0.00145867
     atom   27 type  2   force =    -0.01968434   -0.05311156    0.00851603
     atom   28 type  2   force =     0.01957258    0.05400727   -0.00321141
     atom   29 type  2   force =     0.05167995   -0.01989225    0.00747817
     atom   30 type  2   force =    -0.05193339    0.02089490   -0.00088101
     atom   31 type  2   force =     0.01133823    0.05599684   -0.00684075
     atom   32 type  2   force =    -0.01153870   -0.05528653    0.01208092
     atom   33 type  2   force =     0.01874260    0.01328035    0.00110629
     atom   34 type  2   force =    -0.01912464   -0.01211616    0.00132015
     atom   35 type  2   force =     0.01998646   -0.01340076    0.00137698
     atom   36 type  2   force =     0.00056840   -0.00035991   -0.00569498
     atom   37 type  2   force =     0.00239898    0.06207637   -0.00739212
     atom   38 type  2   force =    -0.00257699   -0.06247284    0.00537321
     atom   39 type  2   force =    -0.05497753    0.01658854   -0.00041905
     atom   40 type  2   force =     0.05475433   -0.01588498    0.00607855
     atom   41 type  2   force =     0.00142790   -0.00156908   -0.00426179
     atom   42 type  2   force =    -0.01914737    0.01231958    0.00091572
     The ionic contribution  to forces
     atom    1 type  1   force =     0.09877538   -0.22697007   -1.46697433
     atom    2 type  1   force =    -0.15938627    1.10946218    8.07187561
     atom    3 type  1   force =     0.18823254   -0.81489985   -6.06192404
     atom    4 type  1   force =     0.08633395   -0.20520328   -1.56551738
     atom    5 type  1   force =    -0.25087932    1.12096617    8.37116833
     atom    6 type  1   force =     0.17900192   -0.84979473   -6.12260537
     atom    7 type  1   force =    -0.00203357   -0.22452602   -1.49518625
     atom    8 type  1   force =    -0.30814296    1.12661579    8.25413537
     atom    9 type  1   force =     0.19966385   -0.88396183   -6.18662996
     atom   10 type  1   force =     0.00995645   -0.21282191   -1.55568350
     atom   11 type  1   force =    -0.28455325    1.10069766    7.68599994
     atom   12 type  1   force =     0.18036763   -0.90721357   -6.11061678
     atom   13 type  1   force =     0.04612058   -0.17287312   -1.54738166
     atom   14 type  1   force =    -0.22517082    1.21649080    8.18749659
     atom   15 type  1   force =     0.22194417   -0.87387101   -6.09803785
     atom   16 type  1   force =     0.04726249   -0.20228564   -1.49031767
     atom   17 type  1   force =    -0.29053183    1.21670782    8.32284365
     atom   18 type  1   force =     0.21194813   -0.83197916   -6.08833443
     atom   19 type  1   force =     0.04662100   -0.19883666   -1.36519651
     atom   20 type  1   force =    -0.27816646    1.07765735    7.68264034
     atom   21 type  1   force =     0.16320903   -0.89436089   -6.05128650
     atom   22 type  1   force =     0.04328960   -0.26710563   -1.57003119
     atom   23 type  1   force =    -0.20330269    1.19876833    8.16183733
     atom   24 type  1   force =     0.15032376   -0.85779600   -6.15728211
     atom   25 type  2   force =    -0.04967242    0.32726252    1.33433435
     atom   26 type  2   force =    -0.08204080    0.03010248    1.34604088
     atom   27 type  2   force =     0.30581716    0.29855071   -2.32284337
     atom   28 type  2   force =    -0.15640834   -1.01481588   -2.21237278
     atom   29 type  2   force =    -0.56977377   -0.09787799   -2.44398847
     atom   30 type  2   force =     0.72143319   -0.59053380   -2.32305953
     atom   31 type  2   force =    -0.09654292   -0.97403271   -2.16195117
     atom   32 type  2   force =     0.17203928    0.38251550   -2.37420840
     atom   33 type  2   force =    -0.16061509    0.10433195    1.38178689
     atom   34 type  2   force =     0.09550863    0.30390133    1.34378641
     atom   35 type  2   force =    -0.19294613    0.27585539    1.32853246
     atom   36 type  2   force =    -0.07249673    0.18512448    1.32235268
     atom   37 type  2   force =    -0.01838646   -0.44724735    1.99011099
     atom   38 type  2   force =     0.04141712    1.01224808    1.79694124
     atom   39 type  2   force =     0.77794369   -0.49813455   -2.25300039
     atom   40 type  2   force =    -0.57687878   -0.10832660   -2.30447341
     atom   41 type  2   force =    -0.08402246    0.19572333    1.37207383
     atom   42 type  2   force =     0.07474151    0.07248635    1.37494615
     The local contribution  to forces
     atom    1 type  1   force =    -0.10042301    0.22456352    1.42984375
     atom    2 type  1   force =     0.13572080   -1.09924596   -8.03961470
     atom    3 type  1   force =    -0.19017608    0.83574353    6.18084895
     atom    4 type  1   force =    -0.09174818    0.19161701    1.49550351
     atom    5 type  1   force =     0.25260908   -1.10454185   -8.30421181
     atom    6 type  1   force =    -0.17548729    0.86415164    6.23779685
     atom    7 type  1   force =     0.00226432    0.21893585    1.45923831
     atom    8 type  1   force =     0.31782254   -1.12156564   -8.22251402
     atom    9 type  1   force =    -0.21012828    0.90371361    6.30996735
     atom   10 type  1   force =     0.00092503    0.20002993    1.48606826
     atom   11 type  1   force =     0.29136629   -1.10147726   -7.64278576
     atom   12 type  1   force =    -0.18693258    0.91293272    6.22341771
     atom   13 type  1   force =    -0.04456782    0.16781525    1.51102669
     atom   14 type  1   force =     0.22286494   -1.22138048   -8.16027892
     atom   15 type  1   force =    -0.22740742    0.89425487    6.22125046
     atom   16 type  1   force =    -0.04258686    0.18862217    1.41459126
     atom   17 type  1   force =     0.29166677   -1.20331789   -8.25292020
     atom   18 type  1   force =    -0.20613243    0.85400990    6.19903579
     atom   19 type  1   force =    -0.04766750    0.19208575    1.32986553
     atom   20 type  1   force =     0.28477727   -1.07103776   -7.65682405
     atom   21 type  1   force =    -0.16925081    0.90738257    6.16874607
     atom   22 type  1   force =    -0.04064769    0.26653926    1.49999747
     atom   23 type  1   force =     0.19281231   -1.19359407   -8.09701741
     atom   24 type  1   force =    -0.15838804    0.87472908    6.27425690
     atom   25 type  2   force =     0.05127671   -0.30607020   -1.33810587
     atom   26 type  2   force =     0.08189144   -0.05283899   -1.34441224
     atom   27 type  2   force =    -0.28611794   -0.24536022    2.31433078
     atom   28 type  2   force =     0.13673913    0.96094442    2.21558546
     atom   29 type  2   force =     0.51798293    0.11765619    2.43675964
     atom   30 type  2   force =    -0.66940552    0.56978579    2.32382485
     atom   31 type  2   force =     0.08527091    0.91816139    2.16848201
     atom   32 type  2   force =    -0.16091764   -0.32695085    2.36227964
     atom   33 type  2   force =     0.14241818   -0.11726228   -1.38295742
     atom   34 type  2   force =    -0.07582924   -0.29138300   -1.34485697
     atom   35 type  2   force =     0.17301924   -0.26296734   -1.32983154
     atom   36 type  2   force =     0.07231554   -0.18517671   -1.31693072
     atom   37 type  2   force =     0.01629846    0.38497728   -1.98190809
     atom   38 type  2   force =    -0.03899504   -0.95006145   -1.80271783
     atom   39 type  2   force =    -0.72310640    0.48157805    2.25368668
     atom   40 type  2   force =     0.52203980    0.12446573    2.29870683
     atom   41 type  2   force =     0.08303895   -0.19421975   -1.36681750
     atom   42 type  2   force =    -0.05515188   -0.08456622   -1.37576201
     The core correction contribution to forces
     atom    1 type  1   force =    -0.00017017   -0.00002758   -0.00095101
     atom    2 type  1   force =    -0.00077960    0.00033477    0.00061399
     atom    3 type  1   force =     0.00005055    0.00042792    0.00231056
     atom    4 type  1   force =    -0.00024604   -0.00025198   -0.00106880
     atom    5 type  1   force =     0.00017613    0.00031857    0.00040463
     atom    6 type  1   force =     0.00019720    0.00020575    0.00243212
     atom    7 type  1   force =     0.00014479   -0.00010736   -0.00077288
     atom    8 type  1   force =     0.00023238    0.00004612    0.00031477
     atom    9 type  1   force =    -0.00033211    0.00049456    0.00266721
     atom   10 type  1   force =     0.00033104   -0.00025304   -0.00111739
     atom   11 type  1   force =     0.00029371   -0.00001354    0.00178306
     atom   12 type  1   force =    -0.00019364    0.00015282    0.00240408
     atom   13 type  1   force =     0.00004711   -0.00022683   -0.00065860
     atom   14 type  1   force =    -0.00005282   -0.00018038    0.00018494
     atom   15 type  1   force =    -0.00011203    0.00040842    0.00252806
     atom   16 type  1   force =     0.00012644   -0.00027149   -0.00134720
     atom   17 type  1   force =     0.00001365    0.00022523    0.00064560
     atom   18 type  1   force =     0.00015243    0.00043170    0.00226863
     atom   19 type  1   force =    -0.00002334   -0.00022699   -0.00123155
     atom   20 type  1   force =     0.00026390    0.00031269    0.00163398
     atom   21 type  1   force =    -0.00016216    0.00025941    0.00225037
     atom   22 type  1   force =     0.00001754    0.00021244   -0.00108575
     atom   23 type  1   force =    -0.00032549   -0.00013298    0.00082174
     atom   24 type  1   force =    -0.00017593    0.00037439    0.00263474
     atom   25 type  2   force =     0.00000000    0.00000000    0.00000000
     atom   26 type  2   force =     0.00000000    0.00000000    0.00000000
     atom   27 type  2   force =     0.00000000    0.00000000    0.00000000
     atom   28 type  2   force =     0.00000000    0.00000000    0.00000000
     atom   29 type  2   force =     0.00000000    0.00000000    0.00000000
     atom   30 type  2   force =     0.00000000    0.00000000    0.00000000
     atom   31 type  2   force =     0.00000000    0.00000000    0.00000000
     atom   32 type  2   force =     0.00000000    0.00000000    0.00000000
     atom   33 type  2   force =     0.00000000    0.00000000    0.00000000
     atom   34 type  2   force =     0.00000000    0.00000000    0.00000000
     atom   35 type  2   force =     0.00000000    0.00000000    0.00000000
     atom   36 type  2   force =     0.00000000    0.00000000    0.00000000
     atom   37 type  2   force =     0.00000000    0.00000000    0.00000000
     atom   38 type  2   force =     0.00000000    0.00000000    0.00000000
     atom   39 type  2   force =     0.00000000    0.00000000    0.00000000
     atom   40 type  2   force =     0.00000000    0.00000000    0.00000000
     atom   41 type  2   force =     0.00000000    0.00000000    0.00000000
     atom   42 type  2   force =     0.00000000    0.00000000    0.00000000
     The Hubbard contrib.    to forces
     atom    1 type  1   force =     0.00000000    0.00000000    0.00000000
     atom    2 type  1   force =     0.00000000    0.00000000    0.00000000
     atom    3 type  1   force =     0.00000000    0.00000000    0.00000000
     atom    4 type  1   force =     0.00000000    0.00000000    0.00000000
     atom    5 type  1   force =     0.00000000    0.00000000    0.00000000
     atom    6 type  1   force =     0.00000000    0.00000000    0.00000000
     atom    7 type  1   force =     0.00000000    0.00000000    0.00000000
     atom    8 type  1   force =     0.00000000    0.00000000    0.00000000
     atom    9 type  1   force =     0.00000000    0.00000000    0.00000000
     atom   10 type  1   force =     0.00000000    0.00000000    0.00000000
     atom   11 type  1   force =     0.00000000    0.00000000    0.00000000
     atom   12 type  1   force =     0.00000000    0.00000000    0.00000000
     atom   13 type  1   force =     0.00000000    0.00000000    0.00000000
     atom   14 type  1   force =     0.00000000    0.00000000    0.00000000
     atom   15 type  1   force =     0.00000000    0.00000000    0.00000000
     atom   16 type  1   force =     0.00000000    0.00000000    0.00000000
     atom   17 type  1   force =     0.00000000    0.00000000    0.00000000
     atom   18 type  1   force =     0.00000000    0.00000000    0.00000000
     atom   19 type  1   force =     0.00000000    0.00000000    0.00000000
     atom   20 type  1   force =     0.00000000    0.00000000    0.00000000
     atom   21 type  1   force =     0.00000000    0.00000000    0.00000000
     atom   22 type  1   force =     0.00000000    0.00000000    0.00000000
     atom   23 type  1   force =     0.00000000    0.00000000    0.00000000
     atom   24 type  1   force =     0.00000000    0.00000000    0.00000000
     atom   25 type  2   force =     0.00000000    0.00000000    0.00000000
     atom   26 type  2   force =     0.00000000    0.00000000    0.00000000
     atom   27 type  2   force =     0.00000000    0.00000000    0.00000000
     atom   28 type  2   force =     0.00000000    0.00000000    0.00000000
     atom   29 type  2   force =     0.00000000    0.00000000    0.00000000
     atom   30 type  2   force =     0.00000000    0.00000000    0.00000000
     atom   31 type  2   force =     0.00000000    0.00000000    0.00000000
     atom   32 type  2   force =     0.00000000    0.00000000    0.00000000
     atom   33 type  2   force =     0.00000000    0.00000000    0.00000000
     atom   34 type  2   force =     0.00000000    0.00000000    0.00000000
     atom   35 type  2   force =     0.00000000    0.00000000    0.00000000
     atom   36 type  2   force =     0.00000000    0.00000000    0.00000000
     atom   37 type  2   force =     0.00000000    0.00000000    0.00000000
     atom   38 type  2   force =     0.00000000    0.00000000    0.00000000
     atom   39 type  2   force =     0.00000000    0.00000000    0.00000000
     atom   40 type  2   force =     0.00000000    0.00000000    0.00000000
     atom   41 type  2   force =     0.00000000    0.00000000    0.00000000
     atom   42 type  2   force =     0.00000000    0.00000000    0.00000000
     The SCF correction term to forces
     atom    1 type  1   force =    -0.00001157    0.00003594    0.00019819
     atom    2 type  1   force =    -0.00003375    0.00001577   -0.00024241
     atom    3 type  1   force =    -0.00000490    0.00011870    0.00048734
     atom    4 type  1   force =     0.00002958    0.00005085    0.00014341
     atom    5 type  1   force =    -0.00001621   -0.00001939   -0.00021171
     atom    6 type  1   force =    -0.00001897    0.00002929    0.00046315
     atom    7 type  1   force =     0.00002910    0.00005441    0.00017620
     atom    8 type  1   force =     0.00008507    0.00001395   -0.00022543
     atom    9 type  1   force =    -0.00002047    0.00010653    0.00050399
     atom   10 type  1   force =    -0.00002502    0.00006543    0.00015195
     atom   11 type  1   force =    -0.00001345   -0.00002800   -0.00021184
     atom   12 type  1   force =    -0.00005423    0.00000825    0.00049571
     atom   13 type  1   force =    -0.00000632   -0.00004995    0.00018797
     atom   14 type  1   force =     0.00002638   -0.00011971   -0.00021949
     atom   15 type  1   force =     0.00000872    0.00007119    0.00044094
     atom   16 type  1   force =    -0.00004744    0.00003999    0.00022455
     atom   17 type  1   force =     0.00002558   -0.00003767   -0.00019538
     atom   18 type  1   force =    -0.00000969    0.00009035    0.00049284
     atom   19 type  1   force =    -0.00000818   -0.00000813    0.00014883
     atom   20 type  1   force =     0.00000269   -0.00001494   -0.00016093
     atom   21 type  1   force =    -0.00001561    0.00007288    0.00046781
     atom   22 type  1   force =     0.00001622   -0.00002340    0.00017236
     atom   23 type  1   force =    -0.00003437   -0.00003273   -0.00023062
     atom   24 type  1   force =    -0.00004965    0.00005591    0.00046350
     atom   25 type  2   force =    -0.00000073   -0.00002048   -0.00011130
     atom   26 type  2   force =    -0.00000180   -0.00002506   -0.00011246
     atom   27 type  2   force =     0.00000667   -0.00000788   -0.00006171
     atom   28 type  2   force =     0.00000334   -0.00000910   -0.00006057
     atom   29 type  2   force =    -0.00000130   -0.00000980   -0.00005645
     atom   30 type  2   force =     0.00000146   -0.00000943   -0.00005705
     atom   31 type  2   force =     0.00000131   -0.00000918   -0.00006209
     atom   32 type  2   force =     0.00000200   -0.00000044   -0.00006340
     atom   33 type  2   force =     0.00002028   -0.00000772   -0.00011253
     atom   34 type  2   force =     0.00001461   -0.00001297   -0.00011338
     atom   35 type  2   force =    -0.00000488   -0.00002039   -0.00011142
     atom   36 type  2   force =    -0.00000046   -0.00002829   -0.00011344
     atom   37 type  2   force =     0.00000721   -0.00001210   -0.00010693
     atom   38 type  2   force =     0.00000740   -0.00000710   -0.00010924
     atom   39 type  2   force =     0.00000207   -0.00000953   -0.00005603
     atom   40 type  2   force =     0.00000181   -0.00000957   -0.00005802
     atom   41 type  2   force =    -0.00000046   -0.00001590   -0.00010893
     atom   42 type  2   force =    -0.00001212   -0.00001238   -0.00011096

     Total force =     0.003533     Total SCF correction =     0.001643
     SCF correction compared to forces is large: reduce conv_thr to get better values


     Computing stress (Cartesian axis) and pressure

          total   stress  (Ry/bohr**3)                   (kbar)     P=       -0.91
  -0.00000178  -0.00000133  -0.00000530           -0.26       -0.20       -0.78
  -0.00000133  -0.00000238  -0.00000303           -0.20       -0.35       -0.45
  -0.00000530  -0.00000303  -0.00001444           -0.78       -0.45       -2.12

     Energy error            =      3.0E-05 Ry
     Gradient error          =      9.9E-04 Ry/Bohr
     Cell gradient error     =      2.1E+00 kbar

     number of scf cycles    =   2
     number of bfgs steps    =   1

     enthalpy           old  =    -306.0871244243 Ry
     enthalpy           new  =    -306.0871543854 Ry

     CASE: enthalpy          _new < enthalpy          _old

     new trust radius        =       0.0042968662 bohr
     new conv_thr            =       0.0000000100 Ry

     new unit-cell volume =   1660.74593 a.u.^3 (   246.09716 Ang^3 )
     density =      2.06747 g/cm^3

CELL_PARAMETERS (alat=  8.00000437)
   1.177305840   0.008007647   0.034885461
  -0.591000618   1.006529261  -0.160588860
   0.181083219  -0.433200776   2.793250509

ATOMIC_POSITIONS (crystal)
C            -0.0719051515       -0.0665973794        0.1640914039
C            -0.0328628533        0.1032110014        0.3784386793
C             0.0647552442        0.0495171899        0.9140344521
C             0.0942487019        0.2653437754        0.1628633905
C             0.3019526431        0.2720922889        0.3813924178
C             0.2312241399        0.3823460473        0.9138835301
C             0.4283153723       -0.0672136256        0.1635528535
C             0.4684043773        0.1040424627        0.3799802166
C             0.5642995149        0.0462623300        0.9130046545
C             0.5951134068        0.2653261981        0.1629681363
C             0.8009556286        0.2679349873        0.3763721566
C             0.7308652998        0.3794933690        0.9133760827
C            -0.0719285513        0.4323080979        0.1631495222
C            -0.0319217281        0.6039799996        0.3799303614
C             0.0644842256        0.5492750295        0.9135975500
C             0.0947164197        0.7654003414        0.1629127771
C             0.3019152897        0.7717283102        0.3810082363
C             0.2316255953        0.8827220708        0.9136797818
C             0.4284490869        0.4342880960        0.1655007974
C             0.4676663788        0.6006277602        0.3759028497
C             0.5641754220        0.5467073431        0.9141559714
C             0.5949326395        0.7660496814        0.1629608662
C             0.8009642569        0.7703653868        0.3796943187
C             0.7308526951        0.8789766542        0.9127277671
H             0.7373476958        1.2091979357        0.5818595252
H             0.6359400423        1.0128493571        0.5817938212
H             0.4355312082        0.6695701080        0.7598838049
H             0.2944776858        0.4970280280        0.7587100670
H             0.8129926062        0.6335959836        0.7673898922
H             0.9260286989        0.5638950039        0.7668499560
H             0.3071332283        0.0027434798        0.7594116461
H             0.4280235949        0.1799857702        0.7571313762
H             0.0794792060        0.5517332603        0.5794737791
H             0.2761445849        0.6559711542        0.5818233966
H             0.6370828288        0.6660823803        0.5833953047
H             0.5123572695        0.7847434219        0.5903083145
H             0.0981357586       -0.0062404518        0.5582956390
H             0.1941933208        0.1738138674        0.5607281806
H             0.9375515027        1.0663869272        0.7594941704
H             0.8129102021        1.1207104969        0.7602930337
H             0.8451285068        0.4452820681        0.5862068594
H             0.7307096666        0.5612892850        0.5797758817



     Writing config-only to output data dir ../../results/server/9h2_abs/9H2abs_C.save/
     NEW-OLD atomic charge density approx. for the potential

     Check: negative core charge=   -0.000002
     extrapolated charge  113.94067, renormalised to  114.00000

     total cpu time spent up to now is        3.9 secs

     Self-consistent Calculation

     iteration #  1     ecut=    40.00 Ry     beta= 0.05
     Davidson diagonalization with overlap
     ethr =  1.00E-06,  avg # of iterations =  2.0

     total cpu time spent up to now is        3.9 secs

     total energy              =    -306.08707678 Ry
     estimated scf accuracy    <       0.00031731 Ry

     iteration #  2     ecut=    40.00 Ry     beta= 0.05
     Davidson diagonalization with overlap
     ethr =  2.78E-07,  avg # of iterations =  2.0

     total cpu time spent up to now is        4.0 secs

     total energy              =    -306.08716452 Ry
     estimated scf accuracy    <       0.00001285 Ry

     iteration #  3     ecut=    40.00 Ry     beta= 0.05
     Davidson diagonalization with overlap
     ethr =  1.13E-08,  avg # of iterations =  6.0

     total cpu time spent up to now is        4.1 secs

     total energy              =    -306.08717978 Ry
     estimated scf accuracy    <       0.00000456 Ry

     iteration #  4     ecut=    40.00 Ry     beta= 0.05
     Davidson diagonalization with overlap
     ethr =  4.00E-09,  avg # of iterations =  2.0

     total cpu time spent up to now is        4.2 secs

     total energy              =    -306.08718014 Ry
     estimated scf accuracy    <       0.00000455 Ry

     iteration #  5     ecut=    40.00 Ry     beta= 0.05
     Davidson diagonalization with overlap
     ethr =  4.00E-09,  avg # of iterations =  1.0

     total cpu time spent up to now is        4.2 secs

     total energy              =    -306.08717929 Ry
     estimated scf accuracy    <       0.00000444 Ry

     iteration #  6     ecut=    40.00 Ry     beta= 0.05
     Davidson diagonalization with overlap
     ethr =  3.89E-09,  avg # of iterations =  1.0

     total cpu time spent up to now is        4.3 secs

     total energy              =    -306.08717924 Ry
     estimated scf accuracy    <       0.00000228 Ry

     iteration #  7     ecut=    40.00 Ry     beta= 0.05
     Davidson diagonalization with overlap
     ethr =  2.00E-09,  avg # of iterations =  2.0

     total cpu time spent up to now is        4.3 secs

     total energy              =    -306.08717939 Ry
     estimated scf accuracy    <       0.00000104 Ry

     iteration #  8     ecut=    40.00 Ry     beta= 0.05
     Davidson diagonalization with overlap
     ethr =  9.11E-10,  avg # of iterations =  1.0

     total cpu time spent up to now is        4.4 secs

     total energy              =    -306.08717913 Ry
     estimated scf accuracy    <       0.00000100 Ry

     iteration #  9     ecut=    40.00 Ry     beta= 0.05
     Davidson diagonalization with overlap
     ethr =  8.79E-10,  avg # of iterations =  2.0

     total cpu time spent up to now is        4.4 secs

     total energy              =    -306.08717937 Ry
     estimated scf accuracy    <       0.00000057 Ry

     iteration # 10     ecut=    40.00 Ry     beta= 0.05
     Davidson diagonalization with overlap
     ethr =  4.96E-10,  avg # of iterations =  1.0

     total cpu time spent up to now is        4.5 secs

     total energy              =    -306.08717933 Ry
     estimated scf accuracy    <       0.00000047 Ry

     iteration # 11     ecut=    40.00 Ry     beta= 0.05
[...]
     atom   31 type  2   force =     0.00984905    0.05664668   -0.00596468
     atom   32 type  2   force =    -0.01002816   -0.05595686    0.01104744
     atom   33 type  2   force =     0.01832317    0.01291491    0.00228580
     atom   34 type  2   force =    -0.01841329   -0.01211555    0.00056928
     atom   35 type  2   force =     0.02088127   -0.01208224    0.00116914
     atom   36 type  2   force =    -0.00058654   -0.00054386   -0.00502717
     atom   37 type  2   force =     0.00059559    0.06142255   -0.01172217
     atom   38 type  2   force =    -0.00073612   -0.06181856    0.00964203
     atom   39 type  2   force =    -0.05480124    0.01731831   -0.00045318
     atom   40 type  2   force =     0.05458981   -0.01661694    0.00605218
     atom   41 type  2   force =     0.00120333   -0.00143928   -0.00637768
     atom   42 type  2   force =    -0.02025142    0.01138059    0.00147060
     The ionic contribution  to forces
     atom    1 type  1   force =     0.09710101   -0.21163958   -1.34169963
     atom    2 type  1   force =    -0.14681125    1.10476621    8.01525525
     atom    3 type  1   force =     0.19049092   -0.82587133   -6.13321028
     atom    4 type  1   force =     0.07894365   -0.18721154   -1.46209045
     atom    5 type  1   force =    -0.24633470    1.11635326    8.31697511
     atom    6 type  1   force =     0.18016593   -0.86406206   -6.20232211
     atom    7 type  1   force =    -0.00396760   -0.21011726   -1.37474124
     atom    8 type  1   force =    -0.29856124    1.12208911    8.19856428
     atom    9 type  1   force =     0.19400180   -0.89983840   -6.25210666
     atom   10 type  1   force =     0.00380850   -0.19542175   -1.43217603
     atom   11 type  1   force =    -0.27656748    1.09428447    7.62466028
     atom   12 type  1   force =     0.17668514   -0.91586883   -6.16805588
     atom   13 type  1   force =     0.04506087   -0.15977592   -1.42198358
     atom   14 type  1   force =    -0.21516846    1.21562090    8.12804233
     atom   15 type  1   force =     0.21780582   -0.88124201   -6.16532861
     atom   16 type  1   force =     0.03984150   -0.17913231   -1.35157861
     atom   17 type  1   force =    -0.28793829    1.21041167    8.26655281
     atom   18 type  1   force =     0.20941805   -0.84432986   -6.16830704
     atom   19 type  1   force =     0.04178305   -0.18249223   -1.24308200
     atom   20 type  1   force =    -0.27031956    1.06874522    7.62368380
     atom   21 type  1   force =     0.15753978   -0.90850897   -6.12497023
     atom   22 type  1   force =     0.03395617   -0.24933459   -1.45002127
     atom   23 type  1   force =    -0.18879472    1.19352967    8.09647051
     atom   24 type  1   force =     0.14250191   -0.87053249   -6.23587511
     atom   25 type  2   force =    -0.06181525    0.32668742    1.32783321
     atom   26 type  2   force =    -0.08172493    0.03080874    1.35868956
     atom   27 type  2   force =     0.31061555    0.30046479   -2.30294576
     atom   28 type  2   force =    -0.16665045   -1.01326791   -2.19275264
     atom   29 type  2   force =    -0.57765625   -0.10752963   -2.43177211
     atom   30 type  2   force =     0.72496681   -0.57952912   -2.31314214
     atom   31 type  2   force =    -0.08130835   -0.97796088   -2.13509848
     atom   32 type  2   force =     0.15433864    0.38877256   -2.35285113
     atom   33 type  2   force =    -0.15590192    0.10376294    1.36546792
     atom   34 type  2   force =     0.08818409    0.30060575    1.34234339
     atom   35 type  2   force =    -0.20739350    0.25866875    1.33245633
     atom   36 type  2   force =    -0.04727782    0.18972790    1.32352478
     atom   37 type  2   force =     0.00123899   -0.44188018    1.98375452
     atom   38 type  2   force =     0.01565248    1.01252035    1.77499395
     atom   39 type  2   force =     0.77287658   -0.50730023   -2.24822241
     atom   40 type  2   force =    -0.57787351   -0.10057954   -2.30235152
     atom   41 type  2   force =    -0.07106908    0.18563339    1.36389312
     atom   42 type  2   force =     0.08615711    0.08997350    1.36352375
     The local contribution  to forces
     atom    1 type  1   force =    -0.09921778    0.20983970    1.30767881
     atom    2 type  1   force =     0.12238951   -1.09628290   -7.98629057
     atom    3 type  1   force =    -0.19202696    0.84586999    6.24883635
     atom    4 type  1   force =    -0.08419420    0.17332313    1.39313121
     atom    5 type  1   force =     0.24898375   -1.10002871   -8.25327526
     atom    6 type  1   force =    -0.17710983    0.87809159    6.31412966
     atom    7 type  1   force =     0.00344630    0.20497800    1.34185684
     atom    8 type  1   force =     0.30878187   -1.11787761   -8.16917027
     atom    9 type  1   force =    -0.20524445    0.91960203    6.37349064
     atom   10 type  1   force =     0.00682622    0.18310717    1.36550729
     atom   11 type  1   force =     0.28355552   -1.09473604   -7.58475102
     atom   12 type  1   force =    -0.18324978    0.92061159    6.27817207
     atom   13 type  1   force =    -0.04417822    0.15590874    1.38837130
     atom   14 type  1   force =     0.21249292   -1.22124424   -8.10230277
     atom   15 type  1   force =    -0.22199226    0.90074569    6.28575192
     atom   16 type  1   force =    -0.03495303    0.16582499    1.28070720
     atom   17 type  1   force =     0.28928640   -1.19724397   -8.19881526
     atom   18 type  1   force =    -0.20351979    0.86695910    6.27574139
     atom   19 type  1   force =    -0.04269121    0.17570459    1.21045486
     atom   20 type  1   force =     0.27799389   -1.06142715   -7.59958104
     atom   21 type  1   force =    -0.16354251    0.92125298    6.24092664
     atom   22 type  1   force =    -0.03114158    0.24964881    1.38240081
     atom   23 type  1   force =     0.17819220   -1.18921162   -8.03492829
     atom   24 type  1   force =    -0.14944645    0.88736306    6.35004169
     atom   25 type  2   force =     0.06325903   -0.30587269   -1.33303174
     atom   26 type  2   force =     0.08159846   -0.05363334   -1.35595808
     atom   27 type  2   force =    -0.29034026   -0.24738445    2.29476456
     atom   28 type  2   force =     0.14619002    0.95927048    2.19617261
     atom   29 type  2   force =     0.52525007    0.12687316    2.42535913
     atom   30 type  2   force =    -0.67263342    0.55965303    2.31393349
     atom   31 type  2   force =     0.07149968    0.92121095    2.14146969
     atom   32 type  2   force =    -0.14445394   -0.33274811    2.34173675
     atom   33 type  2   force =     0.13768806   -0.11670752   -1.36770342
     atom   34 type  2   force =    -0.06964536   -0.28845462   -1.34275030
     atom   35 type  2   force =     0.18678436   -0.24593586   -1.33364113
     atom   36 type  2   force =     0.04822371   -0.18885509   -1.31815821
     atom   37 type  2   force =    -0.00134921    0.38028505   -1.97156746
     atom   38 type  2   force =    -0.01503045   -0.95056416   -1.78507738
     atom   39 type  2   force =    -0.71816091    0.48997249    2.24867428
     atom   40 type  2   force =     0.52319948    0.11743514    2.29620532
     atom   41 type  2   force =     0.07025273   -0.18430869   -1.35848394
     atom   42 type  2   force =    -0.06594518   -0.10160398   -1.36493557
     The core correction contribution to forces
     atom    1 type  1   force =    -0.00021347    0.00000916   -0.00091478
     atom    2 type  1   force =    -0.00082308    0.00030153    0.00055264
     atom    3 type  1   force =     0.00005362    0.00039897    0.00223356
     atom    4 type  1   force =    -0.00020899   -0.00028721   -0.00101319
     atom    5 type  1   force =     0.00022372    0.00030143    0.00034359
     atom    6 type  1   force =     0.00016762    0.00021338    0.00238200
     atom    7 type  1   force =     0.00009957   -0.00008165   -0.00072012
     atom    8 type  1   force =     0.00021355    0.00003576    0.00026833
     atom    9 type  1   force =    -0.00035853    0.00051059    0.00261321
     atom   10 type  1   force =     0.00034321   -0.00026618   -0.00107124
     atom   11 type  1   force =     0.00032085    0.00000316    0.00173471
     atom   12 type  1   force =    -0.00020463    0.00010949    0.00232301
     atom   13 type  1   force =     0.00000638   -0.00017014   -0.00063085
     atom   14 type  1   force =    -0.00008241   -0.00021100    0.00015593
     atom   15 type  1   force =    -0.00006291    0.00037821    0.00246832
     atom   16 type  1   force =     0.00016841   -0.00030251   -0.00129361
     atom   17 type  1   force =     0.00005087    0.00021712    0.00059400
     atom   18 type  1   force =     0.00015840    0.00045516    0.00223125
     atom   19 type  1   force =    -0.00004014   -0.00021952   -0.00119787
     atom   20 type  1   force =     0.00027812    0.00035415    0.00161416
     atom   21 type  1   force =    -0.00015432    0.00025711    0.00222194
     atom   22 type  1   force =     0.00005412    0.00021343   -0.00105055
     atom   23 type  1   force =    -0.00033706   -0.00015253    0.00078287
     atom   24 type  1   force =    -0.00013270    0.00036775    0.00260292
     atom   25 type  2   force =     0.00000000    0.00000000    0.00000000
     atom   26 type  2   force =     0.00000000    0.00000000    0.00000000
     atom   27 type  2   force =     0.00000000    0.00000000    0.00000000
     atom   28 type  2   force =     0.00000000    0.00000000    0.00000000
     atom   29 type  2   force =     0.00000000    0.00000000    0.00000000
     atom   30 type  2   force =     0.00000000    0.00000000    0.00000000
     atom   31 type  2   force =     0.00000000    0.00000000    0.00000000
     atom   32 type  2   force =     0.00000000    0.00000000    0.00000000
     atom   33 type  2   force =     0.00000000    0.00000000    0.00000000
     atom   34 type  2   force =     0.00000000    0.00000000    0.00000000
     atom   35 type  2   force =     0.00000000    0.00000000    0.00000000
     atom   36 type  2   force =     0.00000000    0.00000000    0.00000000
     atom   37 type  2   force =     0.00000000    0.00000000    0.00000000
     atom   38 type  2   force =     0.00000000    0.00000000    0.00000000
     atom   39 type  2   force =     0.00000000    0.00000000    0.00000000
     atom   40 type  2   force =     0.00000000    0.00000000    0.00000000
     atom   41 type  2   force =     0.00000000    0.00000000    0.00000000
     atom   42 type  2   force =     0.00000000    0.00000000    0.00000000
     The Hubbard contrib.    to forces
     atom    1 type  1   force =     0.00000000    0.00000000    0.00000000
     atom    2 type  1   force =     0.00000000    0.00000000    0.00000000
     atom    3 type  1   force =     0.00000000    0.00000000    0.00000000
     atom    4 type  1   force =     0.00000000    0.00000000    0.00000000
     atom    5 type  1   force =     0.00000000    0.00000000    0.00000000
     atom    6 type  1   force =     0.00000000    0.00000000    0.00000000
     atom    7 type  1   force =     0.00000000    0.00000000    0.00000000
     atom    8 type  1   force =     0.00000000    0.00000000    0.00000000
     atom    9 type  1   force =     0.00000000    0.00000000    0.00000000
     atom   10 type  1   force =     0.00000000    0.00000000    0.00000000
     atom   11 type  1   force =     0.00000000    0.00000000    0.00000000
     atom   12 type  1   force =     0.00000000    0.00000000    0.00000000
     atom   13 type  1   force =     0.00000000    0.00000000    0.00000000
     atom   14 type  1   force =     0.00000000    0.00000000    0.00000000
     atom   15 type  1   force =     0.00000000    0.00000000    0.00000000
     atom   16 type  1   force =     0.00000000    0.00000000    0.00000000
     atom   17 type  1   force =     0.00000000    0.00000000    0.00000000
     atom   18 type  1   force =     0.00000000    0.00000000    0.00000000
     atom   19 type  1   force =     0.00000000    0.00000000    0.00000000
     atom   20 type  1   force =     0.00000000    0.00000000    0.00000000
     atom   21 type  1   force =     0.00000000    0.00000000    0.00000000
     atom   22 type  1   force =     0.00000000    0.00000000    0.00000000
     atom   23 type  1   force =     0.00000000    0.00000000    0.00000000
     atom   24 type  1   force =     0.00000000    0.00000000    0.00000000
     atom   25 type  2   force =     0.00000000    0.00000000    0.00000000
     atom   26 type  2   force =     0.00000000    0.00000000    0.00000000
     atom   27 type  2   force =     0.00000000    0.00000000    0.00000000
     atom   28 type  2   force =     0.00000000    0.00000000    0.00000000
     atom   29 type  2   force =     0.00000000    0.00000000    0.00000000
     atom   30 type  2   force =     0.00000000    0.00000000    0.00000000
     atom   31 type  2   force =     0.00000000    0.00000000    0.00000000
     atom   32 type  2   force =     0.00000000    0.00000000    0.00000000
     atom   33 type  2   force =     0.00000000    0.00000000    0.00000000
     atom   34 type  2   force =     0.00000000    0.00000000    0.00000000
     atom   35 type  2   force =     0.00000000    0.00000000    0.00000000
     atom   36 type  2   force =     0.00000000    0.00000000    0.00000000
     atom   37 type  2   force =     0.00000000    0.00000000    0.00000000
     atom   38 type  2   force =     0.00000000    0.00000000    0.00000000
     atom   39 type  2   force =     0.00000000    0.00000000    0.00000000
     atom   40 type  2   force =     0.00000000    0.00000000    0.00000000
     atom   41 type  2   force =     0.00000000    0.00000000    0.00000000
     atom   42 type  2   force =     0.00000000    0.00000000    0.00000000
     The SCF correction term to forces
     atom    1 type  1   force =     0.00000561   -0.00000652   -0.00004420
     atom    2 type  1   force =    -0.00000422   -0.00000041   -0.00000656
     atom    3 type  1   force =     0.00000051    0.00000086    0.00000103
     atom    4 type  1   force =     0.00000254   -0.00000815   -0.00004397
     atom    5 type  1   force =     0.00000171    0.00000272   -0.00000574
     atom    6 type  1   force =     0.00000083    0.00000033    0.00000178
     atom    7 type  1   force =    -0.00000261   -0.00000562   -0.00004442
     atom    8 type  1   force =     0.00000538   -0.00000127   -0.00000429
     atom    9 type  1   force =    -0.00000014   -0.00000050    0.00000137
     atom   10 type  1   force =    -0.00000036   -0.00000711   -0.00004559
     atom   11 type  1   force =    -0.00000080   -0.00000292   -0.00000226
     atom   12 type  1   force =    -0.00000123   -0.00000252    0.00000294
     atom   13 type  1   force =     0.00000058   -0.00000455   -0.00004509
     atom   14 type  1   force =     0.00000119   -0.00000348   -0.00000497
     atom   15 type  1   force =     0.00000141    0.00000117    0.00000302
     atom   16 type  1   force =     0.00000005   -0.00000397   -0.00004438
     atom   17 type  1   force =     0.00000589   -0.00000002   -0.00000489
     atom   18 type  1   force =     0.00000225    0.00000181    0.00000246
     atom   19 type  1   force =     0.00000230   -0.00000904   -0.00004320
     atom   20 type  1   force =    -0.00000013    0.00000212   -0.00000701
     atom   21 type  1   force =    -0.00000127    0.00000004    0.00000198
     atom   22 type  1   force =     0.00000212   -0.00000587   -0.00004450
     atom   23 type  1   force =    -0.00000515   -0.00000197   -0.00000508
     atom   24 type  1   force =    -0.00000285    0.00000140    0.00000228
     atom   25 type  2   force =    -0.00000076    0.00000123    0.00001153
     atom   26 type  2   force =    -0.00000051    0.00000205    0.00001193
     atom   27 type  2   force =     0.00000012    0.00000153    0.00000208
     atom   28 type  2   force =    -0.00000011   -0.00000038    0.00000230
     atom   29 type  2   force =    -0.00000122    0.00000074    0.00000121
     atom   30 type  2   force =     0.00000080   -0.00000009    0.00000154
     atom   31 type  2   force =     0.00000018   -0.00000008    0.00000253
     atom   32 type  2   force =     0.00000014    0.00000041    0.00000245
     atom   33 type  2   force =    -0.00000016    0.00000191    0.00001153
     atom   34 type  2   force =    -0.00000037    0.00000176    0.00001212
     atom   35 type  2   force =     0.00000005    0.00000138    0.00001209
     atom   36 type  2   force =    -0.00000008    0.00000173    0.00001276
     atom   37 type  2   force =    -0.00000013    0.00000043    0.00001260
     atom   38 type  2   force =     0.00000012    0.00000311    0.00001206
     atom   39 type  2   force =     0.00000044   -0.00000007    0.00000207
     atom   40 type  2   force =    -0.00000088   -0.00000011    0.00000199
     atom   41 type  2   force =    -0.00000098    0.00000161    0.00001180
     atom   42 type  2   force =    -0.00000096    0.00000177    0.00001140

     Total force =     0.003902     Total SCF correction =     0.000135


     Computing stress (Cartesian axis) and pressure

          total   stress  (Ry/bohr**3)                   (kbar)     P=       -0.13
  -0.00000132  -0.00000072  -0.00000130           -0.19       -0.11       -0.19
  -0.00000072   0.00000051  -0.00000059           -0.11        0.08       -0.09
  -0.00000130  -0.00000059  -0.00000191           -0.19       -0.09       -0.28


     Writing all to output data dir ../../results/server/9h2_abs/9H2abs_C.save/
 
     init_run     :      0.31s CPU      0.48s WALL (       2 calls)
     electrons    :     15.52s CPU     16.87s WALL (      14 calls)
     update_pot   :      1.22s CPU      1.24s WALL (      12 calls)
     forces       :      0.88s CPU      1.60s WALL (      14 calls)
     stress       :      2.38s CPU      2.55s WALL (      14 calls)

     Called by init_run:
     wfcinit      :      0.06s CPU      0.09s WALL (       2 calls)
     potinit      :      0.06s CPU      0.09s WALL (       2 calls)
     hinit0       :      0.10s CPU      0.15s WALL (       2 calls)

     Called by electrons:
     c_bands      :     10.97s CPU     11.54s WALL (     247 calls)
     sum_band     :      2.14s CPU      2.28s WALL (     247 calls)
     v_of_rho     :      0.21s CPU      0.22s WALL (     256 calls)
     newd         :      0.75s CPU      0.77s WALL (     256 calls)
     mix_rho      :      1.19s CPU      1.22s WALL (     247 calls)

     Called by c_bands:
     init_us_2    :      0.04s CPU      0.05s WALL (     496 calls)
     init_us_2:cp :      0.04s CPU      0.05s WALL (     496 calls)
     cegterg      :     10.79s CPU     11.14s WALL (     247 calls)

     Called by *egterg:
     cdiaghg      :      3.86s CPU      3.92s WALL (     854 calls)
     h_psi        :      5.73s CPU      6.03s WALL (     873 calls)
     s_psi        :      0.20s CPU      0.20s WALL (     873 calls)
     g_psi        :      0.01s CPU      0.01s WALL (     624 calls)

     Called by h_psi:
     h_psi:calbec :      0.65s CPU      0.71s WALL (     873 calls)
     vloc_psi     :      4.83s CPU      5.05s WALL (     873 calls)
     add_vuspsi   :      0.23s CPU      0.24s WALL (     873 calls)

     General routines
     calbec       :      0.96s CPU      1.04s WALL (    1190 calls)
     fft          :      0.53s CPU      0.61s WALL (    1637 calls)
     ffts         :      0.55s CPU      0.57s WALL (    5249 calls)
     fftw         :      5.25s CPU      5.51s WALL (  100470 calls)
     interpolate  :      0.11s CPU      0.13s WALL (     256 calls)
 
     Parallel routines
 
     PWSCF        :     20.76s CPU     23.63s WALL

 
   This run was terminated on:  11:48:10   3Sep2024            

=------------------------------------------------------------------------------=
   JOB DONE.
=------------------------------------------------------------------------------=
