
     Program PWSCF v.7.2 starts on  3Sep2024 at 12: 0: 5 

     This program is part of the open-source Quantum ESPRESSO suite
     for quantum simulation of materials; please cite
         "P. Giannozzi et al., J. Phys.:Condens. Matter 21 395502 (2009);
         "P. Giannozzi et al., J. Phys.:Condens. Matter 29 465901 (2017);
         "P. Giannozzi et al., J. Chem. Phys. 152 154105 (2020);
          URL http://www.quantum-espresso.org", 
     in publications or presentations arising from this work. More details at
     http://www.quantum-espresso.org/quote

     Parallel version (MPI & OpenMP), running on      96 processor cores
     Number of MPI processes:                96
     Threads/MPI process:                     1

     MPI processes distributed on     2 nodes
     348675 MiB available memory on the printing compute node when the environment starts
 
     Reading input from hydrogen_absorption9.in

     Current dimensions of program PWSCF are:
     Max number of different atomic species (ntypx) = 10
     Max number of k-points (npk) =  40000
     Max angular momentum in pseudopotentials (lmaxx) =  4

     IMPORTANT: XC functional enforced from input :
     Exchange-correlation= LDA
                           (   1   1   0   0   0   0   0)
     Any further DFT definition will be discarded
     Please, verify this is what you really want

 
     R & G space division:  proc/nbgrp/npool/nimage =      96
     Subspace diagonalization in iterative solution of the eigenvalue problem:
     a serial algorithm will be used

 
     Parallelization info
     --------------------
     sticks:   dense  smooth     PW     G-vecs:    dense   smooth      PW
     Min          24       9      2                 2815      701      83
     Max          25      10      3                 2837      724     103
     Sum        2347     955    241               271283    68765    8607
 
     Using Slab Decomposition
 

     Title: 
     9H2_absorption_C                                                           


     bravais-lattice index     =            0
     lattice parameter (alat)  =       8.0000  a.u.
     unit-cell volume          =    2008.3697 (a.u.)^3
     number of atoms/cell      =           42
     number of atomic types    =            2
     number of electrons       =       114.00
     number of Kohn-Sham states=           68
     kinetic-energy cutoff     =      40.0000  Ry
     charge density cutoff     =     400.0000  Ry
     scf convergence threshold =      1.0E-06
     mixing beta               =       0.0500
     number of iterations used =            8  local-TF  mixing
     energy convergence thresh.=      1.0E-04
     force convergence thresh. =      1.0E-03
     press convergence thresh. =      5.0E-01
     Exchange-correlation= LDA
                           (   1   1   0   0   0   0   0)
     nstep                     =           50


     celldm(1)=   8.000004  celldm(2)=   0.000000  celldm(3)=   0.000000
     celldm(4)=   0.000000  celldm(5)=   0.000000  celldm(6)=   0.000000

     crystal axes: (cart. coord. in units of alat)
               a(1) = (   1.155472   0.009927   0.049388 )  
               a(2) = (  -0.579777   0.985643  -0.174769 )  
               a(3) = (   0.164239  -0.333808   3.484703 )  

     reciprocal axes: (cart. coord. in units 2 pi/alat)
               b(1) = (  0.860740  0.507737  0.008069 )  
               b(2) = ( -0.013022  1.024416  0.098745 )  
               b(3) = ( -0.012852  0.044182  0.291807 )  


     PseudoPot. # 1 for C  read from file:
     ../../potentials/C.pz-n-rrkjus_psl.0.1.UPF
     MD5 check sum: a3cecbabebb5b3a1aff122f23eb09bb0
     Pseudo is Ultrasoft + core correction, Zval =  4.0
     Generated using "atomic" code by A. Dal Corso  v.5.0.2 svn rev. 9415
     Using radial grid of 1073 points,  4 beta functions with: 
                l(1) =   0
                l(2) =   0
                l(3) =   1
                l(4) =   1
     Q(r) pseudized with 0 coefficients 


     PseudoPot. # 2 for H  read from file:
     ../../potentials/H.pz-rrkjus_psl.0.1.UPF
     MD5 check sum: 1467ebfaa2880178e80d097b970df8c7
     Pseudo is Ultrasoft, Zval =  1.0
     Generated using "atomic" code by A. Dal Corso  v.5.0.2 svn rev. 9415
     Using radial grid of  929 points,  2 beta functions with: 
                l(1) =   0
                l(2) =   0
     Q(r) pseudized with 0 coefficients 


     atomic species   valence    mass     pseudopotential
        C              4.00    12.01100     C ( 1.00)
        H              1.00     1.00784     H ( 1.00)

     No symmetry found



   Cartesian axes

     site n.     atom                  positions (alat units)
         1           C   tau(   1) = (  -0.0056242  -0.1278986   0.5721062  )
         2           C   tau(   2) = (  -0.0648672   0.0082772   1.3376823  )
         3           C   tau(   3) = (   0.2008841  -0.2618503   3.2382133  )
         4           C   tau(   4) = (  -0.0063637   0.2022385   0.5217650  )
         5           C   tau(   5) = (   0.2236670   0.1758614   1.3250481  )
         6           C   tau(   6) = (   0.2002355   0.0683446   3.1882681  )
         7           C   tau(   7) = (   0.5721215  -0.1229549   0.5967494  )
         8           C   tau(   8) = (   0.5129106   0.0132095   1.3621940  )
         9           C   tau(   9) = (   0.7786377  -0.2569119   3.2627087  )
        10           C   tau(  10) = (   0.5713632   0.2072037   0.5463981  )
        11           C   tau(  11) = (   0.8014073   0.1808086   1.3495494  )
        12           C   tau(  12) = (   0.7780133   0.0732334   3.2125185  )
        13           C   tau(  13) = (  -0.2955593   0.3649226   0.4847763  )
        14           C   tau(  14) = (  -0.3546858   0.5010384   1.2499702  )
        15           C   tau(  15) = (  -0.0889580   0.2310197   3.1510028  )
        16           C   tau(  16) = (  -0.2962094   0.6950771   0.4346179  )
        17           C   tau(  17) = (  -0.0661760   0.6686092   1.2374210  )
        18           C   tau(  18) = (  -0.0896650   0.5611124   3.1006008  )
        19           C   tau(  19) = (   0.2822014   0.3698413   0.5091286  )
        20           C   tau(  20) = (   0.2230533   0.5059454   1.2745857  )
        21           C   tau(  21) = (   0.4887842   0.2359018   3.1753398  )
        22           C   tau(  22) = (   0.2815362   0.7000316   0.4589593  )
        23           C   tau(  23) = (   0.5115378   0.6736058   1.2622558  )
        24           C   tau(  24) = (   0.4880566   0.5660584   3.1252780  )
        25           H   tau(  25) = (   0.1057386   0.9415070   1.8258757  )
        26           H   tau(  26) = (   0.2809174   0.9010927   1.8571150  )
        27           H   tau(  27) = (   0.2516009   0.3969882   2.5125048  )
        28           H   tau(  28) = (   0.2018604   0.2215855   2.5224852  )
        29           H   tau(  29) = (   0.7138195   0.3334293   2.5034659  )
        30           H   tau(  30) = (   0.8915539   0.2992612   2.5270482  )
        31           H   tau(  31) = (   0.4936614  -0.2741832   2.5802348  )
        32           H   tau(  32) = (   0.5399650  -0.0978335   2.5728399  )
        33           H   tau(  33) = (  -0.1182706   0.3357536   1.9063197  )
        34           H   tau(  34) = (  -0.0708006   0.5120066   1.9049888  )
        35           H   tau(  35) = (   0.5677324   0.4115995   1.9726850  )
        36           H   tau(  36) = (   0.3943935   0.4556531   1.9362202  )
        37           H   tau(  37) = (   0.1701051  -0.1521173   2.0292303  )
        38           H   tau(  38) = (   0.2146946   0.0248195   2.0249247  )
        39           H   tau(  39) = (   0.5981000   0.7864873   2.4807092  )
        40           H   tau(  40) = (   0.4263357   0.8371859   2.4457130  )
        41           H   tau(  41) = (   0.2039113   0.2476174   1.7501933  )
        42           H   tau(  42) = (   0.2245867   0.4135034   1.7162202  )

     number of k points=     1  Gaussian smearing, width (Ry)=  0.0100
                       cart. coord. in units 2pi/alat
        k(    1) = (   0.0000000   0.0000000   0.0000000), wk =   2.0000000

     Dense  grid:   271283 G-vectors     FFT dimensions: (  60,  60, 180)

     Smooth grid:    68765 G-vectors     FFT dimensions: (  40,  40, 120)

     Estimated max dynamical RAM per process >       8.87 MB

     Estimated total dynamical RAM >     851.80 MB

     Check: negative core charge=   -0.000002

     Initial potential from superposition of free atoms

     starting charge     113.9990, renormalised to     114.0000
     Starting wfcs are  114 randomized atomic wfcs

     total cpu time spent up to now is        0.5 secs

     Self-consistent Calculation

     iteration #  1     ecut=    40.00 Ry     beta= 0.05
     Davidson diagonalization with overlap
     ethr =  1.00E-02,  avg # of iterations =  4.0

     total cpu time spent up to now is        0.6 secs

     total energy              =    -306.78931450 Ry
     estimated scf accuracy    <       2.89265298 Ry

     iteration #  2     ecut=    40.00 Ry     beta= 0.05
     Davidson diagonalization with overlap
     ethr =  2.54E-03,  avg # of iterations =  2.0

     total cpu time spent up to now is        0.7 secs

     total energy              =    -308.11800435 Ry
     estimated scf accuracy    <       3.19971205 Ry

     iteration #  3     ecut=    40.00 Ry     beta= 0.05
     Davidson diagonalization with overlap
     ethr =  2.54E-03,  avg # of iterations =  2.0

     total cpu time spent up to now is        0.8 secs

     total energy              =    -305.14220091 Ry
     estimated scf accuracy    <       5.48340144 Ry

     iteration #  4     ecut=    40.00 Ry     beta= 0.05
     Davidson diagonalization with overlap
     ethr =  2.54E-03,  avg # of iterations =  2.0

     total cpu time spent up to now is        0.8 secs

     total energy              =    -305.47322063 Ry
     estimated scf accuracy    <       0.20690216 Ry

     iteration #  5     ecut=    40.00 Ry     beta= 0.05
     Davidson diagonalization with overlap
     ethr =  1.81E-04,  avg # of iterations =  5.0

     total cpu time spent up to now is        0.9 secs

     total energy              =    -305.55420050 Ry
     estimated scf accuracy    <       0.10601575 Ry

     iteration #  6     ecut=    40.00 Ry     beta= 0.05
     Davidson diagonalization with overlap
     ethr =  9.30E-05,  avg # of iterations =  2.0

     total cpu time spent up to now is        1.0 secs

     total energy              =    -305.53221809 Ry
     estimated scf accuracy    <       0.10236531 Ry

     iteration #  7     ecut=    40.00 Ry     beta= 0.05
     Davidson diagonalization with overlap
     ethr =  8.98E-05,  avg # of iterations =  2.0

     total cpu time spent up to now is        1.1 secs

     total energy              =    -305.51885093 Ry
     estimated scf accuracy    <       0.04242568 Ry

     iteration #  8     ecut=    40.00 Ry     beta= 0.05
     Davidson diagonalization with overlap
     ethr =  3.72E-05,  avg # of iterations = 15.0

     total cpu time spent up to now is        1.3 secs

     total energy              =    -305.52493217 Ry
     estimated scf accuracy    <       0.01016031 Ry

     iteration #  9     ecut=    40.00 Ry     beta= 0.05
     Davidson diagonalization with overlap
     ethr =  8.91E-06,  avg # of iterations =  6.0

     total cpu time spent up to now is        1.4 secs

     total energy              =    -305.52641228 Ry
     estimated scf accuracy    <       0.00775617 Ry

     iteration # 10     ecut=    40.00 Ry     beta= 0.05
     Davidson diagonalization with overlap
     ethr =  6.80E-06,  avg # of iterations =  2.0

     total cpu time spent up to now is        1.5 secs

     total energy              =    -305.52729201 Ry
     estimated scf accuracy    <       0.00612285 Ry

     iteration # 11     ecut=    40.00 Ry     beta= 0.05
     Davidson diagonalization with overlap
     ethr =  5.37E-06,  avg # of iterations =  9.0

     total cpu time spent up to now is        1.6 secs

     total energy              =    -305.52627396 Ry
     estimated scf accuracy    <       0.00833488 Ry

     iteration # 12     ecut=    40.00 Ry     beta= 0.05
     Davidson diagonalization with overlap
     ethr =  5.37E-06,  avg # of iterations =  1.0

     total cpu time spent up to now is        1.7 secs

     total energy              =    -305.52750623 Ry
     estimated scf accuracy    <       0.00529280 Ry

     iteration # 13     ecut=    40.00 Ry     beta= 0.05
     Davidson diagonalization with overlap
     ethr =  4.64E-06,  avg # of iterations =  2.0

     total cpu time spent up to now is        1.7 secs

     total energy              =    -305.52818948 Ry
     estimated scf accuracy    <       0.00718342 Ry

     iteration # 14     ecut=    40.00 Ry     beta= 0.05
     Davidson diagonalization with overlap
     ethr =  4.64E-06,  avg # of iterations =  2.0

     total cpu time spent up to now is        1.8 secs

     total energy              =    -305.52407062 Ry
     estimated scf accuracy    <       0.00793462 Ry

     iteration # 15     ecut=    40.00 Ry     beta= 0.05
     Davidson diagonalization with overlap
     ethr =  4.64E-06,  avg # of iterations =  2.0

     total cpu time spent up to now is        1.9 secs

     total energy              =    -305.52435294 Ry
     estimated scf accuracy    <       0.00102508 Ry

     iteration # 16     ecut=    40.00 Ry     beta= 0.05
     Davidson diagonalization with overlap
     ethr =  8.99E-07,  avg # of iterations = 16.0

     total cpu time spent up to now is        2.0 secs

     total energy              =    -305.52469698 Ry
     estimated scf accuracy    <       0.00036898 Ry

     iteration # 17     ecut=    40.00 Ry     beta= 0.05
     Davidson diagonalization with overlap
     ethr =  3.24E-07,  avg # of iterations =  2.0

     total cpu time spent up to now is        2.1 secs

     total energy              =    -305.52467089 Ry
     estimated scf accuracy    <       0.00034346 Ry

     iteration # 18     ecut=    40.00 Ry     beta= 0.05
     Davidson diagonalization with overlap
     ethr =  3.01E-07,  avg # of iterations =  1.0

     total cpu time spent up to now is        2.2 secs

     total energy              =    -305.52460440 Ry
     estimated scf accuracy    <       0.00029550 Ry

     iteration # 19     ecut=    40.00 Ry     beta= 0.05
     Davidson diagonalization with overlap
     ethr =  2.59E-07,  avg # of iterations =  2.0

     total cpu time spent up to now is        2.2 secs

     total energy              =    -305.52463052 Ry
     estimated scf accuracy    <       0.00012442 Ry

     iteration # 20     ecut=    40.00 Ry     beta= 0.05
     Davidson diagonalization with overlap
     ethr =  1.09E-07,  avg # of iterations =  2.0

     total cpu time spent up to now is        2.3 secs

     total energy              =    -305.52465243 Ry
     estimated scf accuracy    <       0.00011649 Ry

     iteration # 21     ecut=    40.00 Ry     beta= 0.05
     Davidson diagonalization with overlap
     ethr =  1.02E-07,  avg # of iterations =  2.0

     total cpu time spent up to now is        2.4 secs

     total energy              =    -305.52459964 Ry
     estimated scf accuracy    <       0.00015470 Ry

     iteration # 22     ecut=    40.00 Ry     beta= 0.05
     Davidson diagonalization with overlap
     ethr =  1.02E-07,  avg # of iterations =  2.0

     total cpu time spent up to now is        2.4 secs

     total energy              =    -305.52460048 Ry
     estimated scf accuracy    <       0.00004607 Ry

     iteration # 23     ecut=    40.00 Ry     beta= 0.05
     Davidson diagonalization with overlap
     ethr =  4.04E-08,  avg # of iterations =  4.0

     total cpu time spent up to now is        2.5 secs

     total energy              =    -305.52460696 Ry
     estimated scf accuracy    <       0.00002463 Ry

     iteration # 24     ecut=    40.00 Ry     beta= 0.05
     Davidson diagonalization with overlap
     ethr =  2.16E-08,  avg # of iterations =  1.0

     total cpu time spent up to now is        2.6 secs

     total energy              =    -305.52460232 Ry
     estimated scf accuracy    <       0.00002294 Ry

     iteration # 25     ecut=    40.00 Ry     beta= 0.05
     Davidson diagonalization with overlap
     ethr =  2.01E-08,  avg # of iterations =  2.0

     total cpu time spent up to now is        2.7 secs

     total energy              =    -305.52460120 Ry
     estimated scf accuracy    <       0.00001207 Ry

     iteration # 26     ecut=    40.00 Ry     beta= 0.05
     Davidson diagonalization with overlap
     ethr =  1.06E-08,  avg # of iterations =  2.0

     total cpu time spent up to now is        2.7 secs

     total energy              =    -305.52460219 Ry
     estimated scf accuracy    <       0.00000902 Ry

     iteration # 27     ecut=    40.00 Ry     beta= 0.05
     Davidson diagonalization with overlap
     ethr =  7.91E-09,  avg # of iterations =  2.0

     total cpu time spent up to now is        2.8 secs

     total energy              =    -305.52460282 Ry
     estimated scf accuracy    <       0.00000835 Ry

     iteration # 28     ecut=    40.00 Ry     beta= 0.05
     Davidson diagonalization with overlap
     ethr =  7.32E-09,  avg # of iterations =  1.0

     total cpu time spent up to now is        2.9 secs

     total energy              =    -305.52460160 Ry
     estimated scf accuracy    <       0.00000777 Ry

     iteration # 29     ecut=    40.00 Ry     beta= 0.05
     Davidson diagonalization with overlap
     ethr =  6.81E-09,  avg # of iterations =  2.0

     total cpu time spent up to now is        2.9 secs

     total energy              =    -305.52460196 Ry
     estimated scf accuracy    <       0.00000462 Ry

     iteration # 30     ecut=    40.00 Ry     beta= 0.05
     Davidson diagonalization with overlap
     ethr =  4.06E-09,  avg # of iterations =  1.0

     total cpu time spent up to now is        3.0 secs

     total energy              =    -305.52460114 Ry
     estimated scf accuracy    <       0.00000440 Ry

     iteration # 31     ecut=    40.00 Ry     beta= 0.05
     Davidson diagonalization with overlap
     ethr =  3.86E-09,  avg # of iterations =  1.0

     total cpu time spent up to now is        3.0 secs

     total energy              =    -305.52460141 Ry
     estimated scf accuracy    <       0.00000294 Ry

     iteration # 32     ecut=    40.00 Ry     beta= 0.05
     Davidson diagonalization with overlap
     ethr =  2.58E-09,  avg # of iterations =  2.0

     total cpu time spent up to now is        3.1 secs

     total energy              =    -305.52460155 Ry
     estimated scf accuracy    <       0.00000219 Ry

     iteration # 33     ecut=    40.00 Ry     beta= 0.05
     Davidson diagonalization with overlap
     ethr =  1.92E-09,  avg # of iterations =  1.0

     total cpu time spent up to now is        3.2 secs

     total energy              =    -305.52460164 Ry
     estimated scf accuracy    <       0.00000213 Ry

     iteration # 34     ecut=    40.00 Ry     beta= 0.05
     Davidson diagonalization with overlap
     ethr =  1.86E-09,  avg # of iterations =  1.0

     total cpu time spent up to now is        3.2 secs

     total energy              =    -305.52460169 Ry
     estimated scf accuracy    <       0.00000211 Ry

     iteration # 35     ecut=    40.00 Ry     beta= 0.05
     Davidson diagonalization with overlap
     ethr =  1.85E-09,  avg # of iterations =  1.0

     total cpu time spent up to now is        3.3 secs

     total energy              =    -305.52460144 Ry
     estimated scf accuracy    <       0.00000207 Ry

     iteration # 36     ecut=    40.00 Ry     beta= 0.05
     Davidson diagonalization with overlap
     ethr =  1.82E-09,  avg # of iterations =  2.0

     total cpu time spent up to now is        3.4 secs

     total energy              =    -305.52460151 Ry
     estimated scf accuracy    <       0.00000163 Ry

     iteration # 37     ecut=    40.00 Ry     beta= 0.05
     Davidson diagonalization with overlap
     ethr =  1.43E-09,  avg # of iterations =  2.0

     total cpu time spent up to now is        3.4 secs

     total energy              =    -305.52460140 Ry
     estimated scf accuracy    <       0.00000141 Ry

     iteration # 38     ecut=    40.00 Ry     beta= 0.05
     Davidson diagonalization with overlap
     ethr =  1.24E-09,  avg # of iterations =  1.0

     total cpu time spent up to now is        3.5 secs

     total energy              =    -305.52460159 Ry
     estimated scf accuracy    <       0.00000138 Ry

     iteration # 39     ecut=    40.00 Ry     beta= 0.05
     Davidson diagonalization with overlap
     ethr =  1.21E-09,  avg # of iterations =  1.0

     total cpu time spent up to now is        3.6 secs

     total energy              =    -305.52460176 Ry
     estimated scf accuracy    <       0.00000165 Ry

     iteration # 40     ecut=    40.00 Ry     beta= 0.05
     Davidson diagonalization with overlap
     ethr =  1.21E-09,  avg # of iterations =  1.0

     total cpu time spent up to now is        3.6 secs

     total energy              =    -305.52460135 Ry
     estimated scf accuracy    <       0.00000178 Ry

     iteration # 41     ecut=    40.00 Ry     beta= 0.05
     Davidson diagonalization with overlap
     ethr =  1.21E-09,  avg # of iterations =  1.0

     total cpu time spent up to now is        3.7 secs

     total energy              =    -305.52460123 Ry
     estimated scf accuracy    <       0.00000131 Ry

     iteration # 42     ecut=    40.00 Ry     beta= 0.05
     Davidson diagonalization with overlap
     ethr =  1.15E-09,  avg # of iterations =  1.0

     total cpu time spent up to now is        3.7 secs

     End of self-consistent calculation

          k = 0.0000 0.0000 0.0000 (  8607 PWs)   bands (ev):

   -14.9812 -14.6909 -14.4881  -9.6828  -9.5244  -9.4791  -9.2760  -9.2741
    -9.2672  -9.1363  -9.1293  -9.1238  -8.7256  -8.7167  -8.7042  -8.4650
    -8.4594  -8.4591  -8.3347  -8.3324  -8.3318  -6.5193  -4.4300  -3.4430
    -2.9623  -1.9491  -1.8425  -1.8077  -1.7963  -1.5796  -1.5774  -1.5732
    -1.4920  -1.4534  -1.4517  -1.4456  -0.4097  -0.2622   0.3297   0.4260
     0.5433   0.9123   1.6661   1.6698   1.8177   1.8926   1.8957   1.9015
     2.0178   2.0230   2.1300   2.1928   2.2260   2.5382   2.5585   2.6290
     3.4807   5.8477   5.9805   6.1172   6.3790   6.4357   6.4745   6.6874
     6.7433   6.7886   7.8980   8.1225

     the Fermi energy is     4.6409 ev

!    total energy              =    -305.52460072 Ry
     estimated scf accuracy    <       0.00000091 Ry
     smearing contrib. (-TS)   =      -0.00000000 Ry
     internal energy E=F+TS    =    -305.52460072 Ry

     The total energy is F=E-TS. E is the sum of the following terms:
     one-electron contribution =    -377.19648015 Ry
     hartree contribution      =     238.11707959 Ry
     xc contribution           =    -112.51543444 Ry
     ewald contribution        =     -53.92976572 Ry

     convergence has been achieved in  42 iterations

     Forces acting on atoms (cartesian axes, Ry/au):

     atom    1 type  1   force =    -0.00297865    0.00043721   -0.00158963
     atom    2 type  1   force =     0.01344791   -0.01598945   -0.00643219
     atom    3 type  1   force =    -0.00054104    0.00025726   -0.00285384
     atom    4 type  1   force =     0.00222969   -0.00090562    0.00122722
     atom    5 type  1   force =    -0.00171381   -0.03025133   -0.04983048
     atom    6 type  1   force =     0.00058483   -0.00027782   -0.00216286
     atom    7 type  1   force =    -0.00178449    0.00103595   -0.00109860
     atom    8 type  1   force =    -0.00811381   -0.01828352   -0.00741675
     atom    9 type  1   force =    -0.00055221   -0.00035057   -0.00272258
     atom   10 type  1   force =     0.00109407   -0.00122964    0.00111899
     atom   11 type  1   force =    -0.00212738    0.03214823    0.00035719
     atom   12 type  1   force =    -0.00020375    0.00050412   -0.00134972
     atom   13 type  1   force =    -0.00180726    0.00125538   -0.00066465
     atom   14 type  1   force =    -0.00194846   -0.03008719    0.00445797
     atom   15 type  1   force =    -0.00084123    0.00089813   -0.00266169
     atom   16 type  1   force =     0.00170318   -0.00027945    0.00132702
     atom   17 type  1   force =     0.01417068    0.00937109    0.00110021
     atom   18 type  1   force =     0.00040992   -0.00021407   -0.00057442
     atom   19 type  1   force =    -0.00194335    0.00059529   -0.00026174
     atom   20 type  1   force =     0.00050732    0.02188396   -0.04050526
     atom   21 type  1   force =     0.00000390   -0.00001079   -0.00180382
     atom   22 type  1   force =     0.00230762   -0.00004111   -0.00155404
     atom   23 type  1   force =    -0.01367248    0.00812494    0.00011620
     atom   24 type  1   force =     0.00055205   -0.00016880   -0.00211768
     atom   25 type  2   force =     0.03670933   -0.01429291   -0.00437578
     atom   26 type  2   force =    -0.03510751    0.00076370   -0.01358140
     atom   27 type  2   force =    -0.01116082   -0.03592728    0.00869999
     atom   28 type  2   force =     0.01024856    0.03784538    0.00220733
     atom   29 type  2   force =     0.04127243   -0.00753202    0.00432329
     atom   30 type  2   force =    -0.04138583    0.00611924   -0.00054903
     atom   31 type  2   force =     0.00971392    0.03847632   -0.00503817
     atom   32 type  2   force =    -0.00967094   -0.03793027    0.00484455
     atom   33 type  2   force =    -0.03783758    0.04729623    0.00852146
     atom   34 type  2   force =    -0.05749518   -0.02191349    0.01739052
     atom   35 type  2   force =     0.04284351    0.03658645    0.03223838
     atom   36 type  2   force =     0.05819950    0.00443140    0.02201928
     atom   37 type  2   force =     0.00594511    0.00301283    0.00195908
     atom   38 type  2   force =    -0.00519191   -0.01051462   -0.01181376
     atom   39 type  2   force =    -0.03715822    0.01193125    0.00143464
     atom   40 type  2   force =     0.03515176   -0.00890248    0.01387811
     atom   41 type  2   force =    -0.00951863   -0.08988018    0.03624699
     atom   42 type  2   force =     0.00565926    0.06200826   -0.00251032
     The non-local contrib.  to forces
     atom    1 type  1   force =     0.00011984    0.00073519   -0.00180038
     atom    2 type  1   force =     0.00756522    0.00161558   -0.00783865
     atom    3 type  1   force =    -0.00022035    0.00034621   -0.00365694
     atom    4 type  1   force =     0.00003535    0.00086109    0.00551247
     atom    5 type  1   force =     0.00098665   -0.01982288   -0.03359963
     atom    6 type  1   force =     0.00014140   -0.00066002   -0.00122060
     atom    7 type  1   force =    -0.00140315    0.00131804   -0.00081711
     atom    8 type  1   force =    -0.00418748   -0.00058116   -0.00845597
     atom    9 type  1   force =     0.00014570   -0.00032409   -0.00248204
     atom   10 type  1   force =     0.00059799    0.00038479    0.00562055
     atom   11 type  1   force =    -0.00252814    0.00145794    0.02644488
     atom   12 type  1   force =    -0.00030404    0.00015070    0.00153715
     atom   13 type  1   force =    -0.00049714    0.00028406    0.00049557
     atom   14 type  1   force =    -0.00117890   -0.00924305   -0.00008948
     atom   15 type  1   force =    -0.00011038   -0.00004840   -0.00215994
     atom   16 type  1   force =     0.00010153    0.00018482    0.00534525
     atom   17 type  1   force =     0.01226637    0.00846968    0.01741769
     atom   18 type  1   force =    -0.00008252    0.00078769    0.00185895
     atom   19 type  1   force =    -0.00071535   -0.00061462    0.00115760
     atom   20 type  1   force =     0.00093038    0.00664638   -0.04244153
     atom   21 type  1   force =    -0.00010237   -0.00027096   -0.00131410
     atom   22 type  1   force =     0.00041634   -0.00020072    0.00050129
     atom   23 type  1   force =    -0.01326894    0.00682866    0.01804666
     atom   24 type  1   force =     0.00018150    0.00052452   -0.00034081
     atom   25 type  2   force =     0.06299365   -0.01578374    0.01007551
     atom   26 type  2   force =    -0.06304113    0.01331080   -0.01231794
     atom   27 type  2   force =    -0.01800740   -0.06327001    0.00380134
     atom   28 type  2   force =     0.01785913    0.06329556   -0.00368272
     atom   29 type  2   force =     0.06418732   -0.01259697    0.00901619
     atom   30 type  2   force =    -0.06415961    0.01217721   -0.00799445
     atom   31 type  2   force =     0.01687619    0.06375813   -0.00263706
     atom   32 type  2   force =    -0.01662787   -0.06364135    0.00293950
     atom   33 type  2   force =     0.01640437    0.06323263   -0.00112207
     atom   34 type  2   force =    -0.01756559   -0.06281067    0.00011325
     atom   35 type  2   force =    -0.05748435    0.01719592   -0.01107051
     atom   36 type  2   force =     0.05634225   -0.01640789    0.00601507
     atom   37 type  2   force =     0.01557636    0.06204291   -0.00235701
     atom   38 type  2   force =    -0.01594317   -0.05982219   -0.00256207
     atom   39 type  2   force =    -0.06204403    0.01859447   -0.01185328
     atom   40 type  2   force =     0.06181249   -0.01806863    0.01298120
     atom   41 type  2   force =     0.00906135    0.06900830   -0.01245176
     atom   42 type  2   force =    -0.00504545   -0.06966949    0.01988635
     The ionic contribution  to forces
     atom    1 type  1   force =     0.01667110   -0.06035549   -0.39869110
     atom    2 type  1   force =    -0.50221643    0.96100735    7.37021544
     atom    3 type  1   force =     0.37172270   -1.22846636   -8.05893324
     atom    4 type  1   force =     0.01677340   -0.06336672   -0.40960484
     atom    5 type  1   force =    -0.30436016    0.83468125    6.80984481
     atom    6 type  1   force =     0.37067402   -1.22231429   -8.04186065
     atom    7 type  1   force =     0.01774435   -0.05911783   -0.40031107
     atom    8 type  1   force =    -0.14359316    0.96142079    7.38117809
     atom    9 type  1   force =     0.33733819   -1.21265191   -8.05821217
     atom   10 type  1   force =     0.02089252   -0.06423008   -0.41134574
     atom   11 type  1   force =    -0.33115171    1.11886877    7.48880274
     atom   12 type  1   force =     0.34112712   -1.21524256   -8.08023085
     atom   13 type  1   force =     0.01573424   -0.05841676   -0.39507400
     atom   14 type  1   force =    -0.33064639    1.17134757    7.51685784
     atom   15 type  1   force =     0.34139232   -1.20500359   -8.04484054
     atom   16 type  1   force =     0.01779104   -0.06245721   -0.39804651
     atom   17 type  1   force =    -0.41713969    1.20753976    7.43361955
     atom   18 type  1   force =     0.34452792   -1.21706500   -8.07833804
     atom   19 type  1   force =     0.01690976   -0.05828362   -0.41290839
     atom   20 type  1   force =    -0.31997775    1.37241455    6.97386700
     atom   21 type  1   force =     0.36799196   -1.22850654   -8.07415492
     atom   22 type  1   force =     0.01951906   -0.06371341   -0.41117966
     atom   23 type  1   force =    -0.23484790    1.21319067    7.44150020
     atom   24 type  1   force =     0.36617412   -1.23192384   -8.05117736
     atom   25 type  2   force =    -0.82943852    0.50844934    1.83238533
     atom   26 type  2   force =     0.66955914    0.17329366    2.02726943
     atom   27 type  2   force =     0.27806769    0.51586078   -1.64923462
     atom   28 type  2   force =    -0.14968658   -0.98698116   -1.48080475
     atom   29 type  2   force =    -0.69339025   -0.07035730   -1.48736726
     atom   30 type  2   force =     0.82508275   -0.37585141   -1.34182977
     atom   31 type  2   force =    -0.13931244   -0.95554947   -1.31450853
     atom   32 type  2   force =     0.26729729    0.54081081   -1.47938931
     atom   33 type  2   force =    -0.58112416   -0.45056326    2.09694992
     atom   34 type  2   force =    -0.13153904    1.17373821    1.96701950
     atom   35 type  2   force =     0.84937627    0.10387133    1.96466460
     atom   36 type  2   force =    -0.46682671    0.66172562    2.04883803
     atom   37 type  2   force =    -0.26966746   -0.57281697    1.81615375
     atom   38 type  2   force =     0.12383710    0.81232368    1.81875706
     atom   39 type  2   force =     0.81615555   -0.47563029   -1.54874441
     atom   40 type  2   force =    -0.67635422   -0.01498947   -1.74441286
     atom   41 type  2   force =    -0.24116486   -0.62101251    3.11104297
     atom   42 type  2   force =    -0.04992217    1.44432291    2.67223435
     The local contribution  to forces
     atom    1 type  1   force =    -0.01971607    0.06004312    0.39859579
     atom    2 type  1   force =     0.50787477   -0.97868004   -7.36909879
     atom    3 type  1   force =    -0.37199894    1.22834740    8.05941042
     atom    4 type  1   force =    -0.01457886    0.06154367    0.40506810
     atom    5 type  1   force =     0.30172750   -0.84563559   -6.82711860
     atom    6 type  1   force =    -0.37016672    1.22263793    8.04059899
     atom    7 type  1   force =    -0.01816202    0.05882070    0.39974274
     atom    8 type  1   force =     0.13993303   -0.97922003   -7.38043608
     atom    9 type  1   force =    -0.33806713    1.21257018    8.05762834
     atom   10 type  1   force =    -0.02035741    0.06253054    0.40659707
     atom   11 type  1   force =     0.33151620   -1.08853632   -7.51433012
     atom   12 type  1   force =    -0.34105009    1.21554574    8.07703848
     atom   13 type  1   force =    -0.01702899    0.05936676    0.39365461
     atom   14 type  1   force =     0.32987950   -1.19216617   -7.51245035
     atom   15 type  1   force =    -0.34210764    1.20594264    8.04402999
     atom   16 type  1   force =    -0.01616113    0.06196032    0.39379390
     atom   17 type  1   force =     0.41919887   -1.20637002   -7.44965548
     atom   18 type  1   force =    -0.34401485    1.21603289    8.07561192
     atom   19 type  1   force =    -0.01815040    0.05944153    0.41120783
     atom   20 type  1   force =     0.31957555   -1.35685334   -6.97325447
     atom   21 type  1   force =    -0.36788490    1.22871546    8.07335067
     atom   22 type  1   force =    -0.01761889    0.06382009    0.40876004
     atom   23 type  1   force =     0.23427759   -1.21164117   -7.45913504
     atom   24 type  1   force =    -0.36578524    1.23113772    8.04908289
     atom   25 type  2   force =     0.80315266   -0.50694683   -1.84672927
     atom   26 type  2   force =    -0.64163750   -0.18581931   -2.02842494
     atom   27 type  2   force =    -0.27122910   -0.48851897    1.65420132
     atom   28 type  2   force =     0.14207845    0.96154444    1.48675979
     atom   29 type  2   force =     0.67046182    0.07542238    1.48274466
     atom   30 type  2   force =    -0.80230467    0.36979685    1.34934137
     atom   31 type  2   force =     0.13215378    0.93028751    1.31217812
     atom   32 type  2   force =    -0.26034727   -0.51508633    1.48135253
     atom   33 type  2   force =     0.52687267    0.43461560   -2.08719088
     atom   34 type  2   force =     0.09161451   -1.13279531   -1.94962506
     atom   35 type  2   force =    -0.74904522   -0.08447824   -1.92123351
     atom   36 type  2   force =     0.46866996   -0.64085847   -2.03271390
     atom   37 type  2   force =     0.26002850    0.51381869   -1.81172248
     atom   38 type  2   force =    -0.11308855   -0.76300719   -1.82787988
     atom   39 type  2   force =    -0.79126686    0.46898544    1.56209222
     atom   40 type  2   force =     0.64968743    0.02416876    1.74536809
     atom   41 type  2   force =     0.22258178    0.46210509   -3.06227875
     atom   42 type  2   force =     0.06062444   -1.31261865   -2.69457115
     The core correction contribution to forces
     atom    1 type  1   force =    -0.00002322   -0.00002062    0.00001384
     atom    2 type  1   force =     0.00002603   -0.00003304    0.00026775
     atom    3 type  1   force =     0.00000132    0.00000148    0.00011960
     atom    4 type  1   force =     0.00000026   -0.00000102   -0.00003882
     atom    5 type  1   force =    -0.00004962    0.00038593    0.00100656
     atom    6 type  1   force =    -0.00000415    0.00003385    0.00009851
     atom    7 type  1   force =     0.00002461   -0.00003296    0.00000248
     atom    8 type  1   force =    -0.00006571    0.00000075    0.00028446
     atom    9 type  1   force =    -0.00001107    0.00000875    0.00011454
     atom   10 type  1   force =    -0.00001297    0.00001310   -0.00003523
     atom   11 type  1   force =     0.00002412    0.00016524   -0.00057561
     atom   12 type  1   force =    -0.00000961    0.00002731    0.00009125
     atom   13 type  1   force =     0.00000762   -0.00000831   -0.00002703
     atom   14 type  1   force =     0.00000570   -0.00005200    0.00009006
     atom   15 type  1   force =    -0.00000483    0.00001267    0.00008463
     atom   16 type  1   force =     0.00000164    0.00000407   -0.00005416
     atom   17 type  1   force =    -0.00011167   -0.00011395   -0.00032373
     atom   18 type  1   force =     0.00000039    0.00000797    0.00007026
     atom   19 type  1   force =     0.00001387   -0.00000394   -0.00002066
     atom   20 type  1   force =    -0.00002000   -0.00012448    0.00125075
     atom   21 type  1   force =    -0.00000337    0.00000832    0.00009276
     atom   22 type  1   force =    -0.00000657    0.00003739    0.00006753
     atom   23 type  1   force =     0.00011853   -0.00010900   -0.00033491
     atom   24 type  1   force =    -0.00000712    0.00001478    0.00010588
     atom   25 type  2   force =     0.00000000    0.00000000    0.00000000
     atom   26 type  2   force =     0.00000000    0.00000000    0.00000000
     atom   27 type  2   force =     0.00000000    0.00000000    0.00000000
     atom   28 type  2   force =     0.00000000    0.00000000    0.00000000
     atom   29 type  2   force =     0.00000000    0.00000000    0.00000000
     atom   30 type  2   force =     0.00000000    0.00000000    0.00000000
     atom   31 type  2   force =     0.00000000    0.00000000    0.00000000
     atom   32 type  2   force =     0.00000000    0.00000000    0.00000000
     atom   33 type  2   force =     0.00000000    0.00000000    0.00000000
     atom   34 type  2   force =     0.00000000    0.00000000    0.00000000
     atom   35 type  2   force =     0.00000000    0.00000000    0.00000000
     atom   36 type  2   force =     0.00000000    0.00000000    0.00000000
     atom   37 type  2   force =     0.00000000    0.00000000    0.00000000
     atom   38 type  2   force =     0.00000000    0.00000000    0.00000000
     atom   39 type  2   force =     0.00000000    0.00000000    0.00000000
     atom   40 type  2   force =     0.00000000    0.00000000    0.00000000
     atom   41 type  2   force =     0.00000000    0.00000000    0.00000000
     atom   42 type  2   force =     0.00000000    0.00000000    0.00000000
     The Hubbard contrib.    to forces
     atom    1 type  1   force =     0.00000000    0.00000000    0.00000000
     atom    2 type  1   force =     0.00000000    0.00000000    0.00000000
     atom    3 type  1   force =     0.00000000    0.00000000    0.00000000
     atom    4 type  1   force =     0.00000000    0.00000000    0.00000000
     atom    5 type  1   force =     0.00000000    0.00000000    0.00000000
     atom    6 type  1   force =     0.00000000    0.00000000    0.00000000
     atom    7 type  1   force =     0.00000000    0.00000000    0.00000000
     atom    8 type  1   force =     0.00000000    0.00000000    0.00000000
     atom    9 type  1   force =     0.00000000    0.00000000    0.00000000
     atom   10 type  1   force =     0.00000000    0.00000000    0.00000000
     atom   11 type  1   force =     0.00000000    0.00000000    0.00000000
     atom   12 type  1   force =     0.00000000    0.00000000    0.00000000
     atom   13 type  1   force =     0.00000000    0.00000000    0.00000000
     atom   14 type  1   force =     0.00000000    0.00000000    0.00000000
     atom   15 type  1   force =     0.00000000    0.00000000    0.00000000
     atom   16 type  1   force =     0.00000000    0.00000000    0.00000000
     atom   17 type  1   force =     0.00000000    0.00000000    0.00000000
     atom   18 type  1   force =     0.00000000    0.00000000    0.00000000
     atom   19 type  1   force =     0.00000000    0.00000000    0.00000000
     atom   20 type  1   force =     0.00000000    0.00000000    0.00000000
     atom   21 type  1   force =     0.00000000    0.00000000    0.00000000
     atom   22 type  1   force =     0.00000000    0.00000000    0.00000000
     atom   23 type  1   force =     0.00000000    0.00000000    0.00000000
     atom   24 type  1   force =     0.00000000    0.00000000    0.00000000
     atom   25 type  2   force =     0.00000000    0.00000000    0.00000000
     atom   26 type  2   force =     0.00000000    0.00000000    0.00000000
     atom   27 type  2   force =     0.00000000    0.00000000    0.00000000
     atom   28 type  2   force =     0.00000000    0.00000000    0.00000000
     atom   29 type  2   force =     0.00000000    0.00000000    0.00000000
     atom   30 type  2   force =     0.00000000    0.00000000    0.00000000
     atom   31 type  2   force =     0.00000000    0.00000000    0.00000000
     atom   32 type  2   force =     0.00000000    0.00000000    0.00000000
     atom   33 type  2   force =     0.00000000    0.00000000    0.00000000
     atom   34 type  2   force =     0.00000000    0.00000000    0.00000000
     atom   35 type  2   force =     0.00000000    0.00000000    0.00000000
     atom   36 type  2   force =     0.00000000    0.00000000    0.00000000
     atom   37 type  2   force =     0.00000000    0.00000000    0.00000000
     atom   38 type  2   force =     0.00000000    0.00000000    0.00000000
     atom   39 type  2   force =     0.00000000    0.00000000    0.00000000
     atom   40 type  2   force =     0.00000000    0.00000000    0.00000000
     atom   41 type  2   force =     0.00000000    0.00000000    0.00000000
     atom   42 type  2   force =     0.00000000    0.00000000    0.00000000
     The SCF correction term to forces
     atom    1 type  1   force =    -0.00003028    0.00003512    0.00028896
     atom    2 type  1   force =     0.00019834    0.00010082    0.00001880
     atom    3 type  1   force =    -0.00004573    0.00002865    0.00020307
     atom    4 type  1   force =    -0.00000043    0.00005748    0.00028706
     atom    5 type  1   force =    -0.00001814    0.00014008    0.00003312
     atom    6 type  1   force =    -0.00005969    0.00002483    0.00021763
     atom    7 type  1   force =     0.00001175    0.00004814    0.00028110
     atom    8 type  1   force =    -0.00020045    0.00009625    0.00000950
     atom    9 type  1   force =     0.00004213    0.00004662    0.00022549
     atom   10 type  1   force =    -0.00002604    0.00007213    0.00027909
     atom   11 type  1   force =     0.00001219    0.00019273    0.00001205
     atom   12 type  1   force =     0.00003290    0.00002305    0.00021099
     atom   13 type  1   force =    -0.00002297    0.00002975    0.00028294
     atom   14 type  1   force =    -0.00000834    0.00002659    0.00004663
     atom   15 type  1   force =    -0.00001067   -0.00000505    0.00022091
     atom   16 type  1   force =    -0.00002988    0.00002868    0.00028528
     atom   17 type  1   force =    -0.00004318   -0.00015426    0.00003891
     atom   18 type  1   force =    -0.00002099    0.00002251    0.00021923
     atom   19 type  1   force =    -0.00000121    0.00005606    0.00029861
     atom   20 type  1   force =    -0.00000083   -0.00019903    0.00006972
     atom   21 type  1   force =     0.00000260    0.00004307    0.00021851
     atom   22 type  1   force =    -0.00000229    0.00001567    0.00029350
     atom   23 type  1   force =     0.00004827   -0.00014409    0.00003603
     atom   24 type  1   force =    -0.00001119    0.00007815    0.00020847
     atom   25 type  2   force =     0.00000157   -0.00001155   -0.00011061
     atom   26 type  2   force =     0.00001201   -0.00002132   -0.00011121
     atom   27 type  2   force =     0.00000801    0.00000105   -0.00007131
     atom   28 type  2   force =    -0.00000241   -0.00001333   -0.00006824
     atom   29 type  2   force =     0.00001357   -0.00000001   -0.00007356
     atom   30 type  2   force =    -0.00000427   -0.00000329   -0.00006944
     atom   31 type  2   force =    -0.00000359   -0.00001973   -0.00007396
     atom   32 type  2   force =     0.00000695   -0.00001328   -0.00006143
     atom   33 type  2   force =     0.00000957    0.00001138   -0.00011878
     atom   34 type  2   force =    -0.00000503   -0.00004559   -0.00012044
     atom   35 type  2   force =    -0.00000317   -0.00000244   -0.00012546
     atom   36 type  2   force =     0.00001404   -0.00002774   -0.00012318
     atom   37 type  2   force =     0.00000773   -0.00003168   -0.00011843
     atom   38 type  2   force =     0.00000274   -0.00000880   -0.00013213
     atom   39 type  2   force =    -0.00000285   -0.00001825   -0.00006315
     atom   40 type  2   force =     0.00000608   -0.00001301   -0.00006158
     atom   41 type  2   force =     0.00000312    0.00001906   -0.00006874
     atom   42 type  2   force =     0.00000247   -0.00002638   -0.00006312

     Total force =     0.233283     Total SCF correction =     0.001225


     Computing stress (Cartesian axis) and pressure

          total   stress  (Ry/bohr**3)                   (kbar)     P=      132.10
   0.00154206   0.00001135   0.00009605          226.84        1.67       14.13
   0.00001135   0.00136517  -0.00021522            1.67      200.82      -31.66
   0.00009605  -0.00021522  -0.00021315           14.13      -31.66      -31.36


     BFGS Geometry Optimization
     Energy error            =      0.0E+00 Ry
     Gradient error          =      9.0E-02 Ry/Bohr
     Cell gradient error     =      2.3E+02 kbar

     number of scf cycles    =   1
     number of bfgs steps    =   0

     enthalpy           new  =    -305.5246007178 Ry

     new trust radius        =       0.3462139024 bohr
     new conv_thr            =       0.0000010000 Ry

     new unit-cell volume =   2145.41531 a.u.^3 (   317.91775 Ang^3 )
     density =      1.60041 g/cm^3

CELL_PARAMETERS (alat=  8.00000437)
   1.200138118   0.010327876   0.051846005
  -0.602267677   1.020057974  -0.180533500
   0.178843626  -0.363903211   3.468323495

ATOMIC_POSITIONS (crystal)
C            -0.0654575946       -0.0744142468        0.1613150566
C            -0.0404113158        0.1392645785        0.3911993436
C             0.0660436403        0.0488965156        0.9306792848
C             0.1016004838        0.2586763721        0.1613076705
C             0.2903483128        0.3035984743        0.3895710673
C             0.2328223634        0.3821680508        0.9307223184
C             0.4347074133       -0.0743588900        0.1613185218
C             0.4571411289        0.1389433579        0.3911302682
C             0.5660050142        0.0487747994        0.9306214321
C             0.6014503272        0.2586313500        0.1612861973
C             0.7943087991        0.3121733226        0.3916899683
C             0.7327826521        0.3821587292        0.9306242760
C            -0.0653186825        0.4257058228        0.1613680117
C            -0.0429248276        0.6375239584        0.3914443471
C             0.0661180331        0.5490477864        0.9307426926
C             0.1016309690        0.7587992012        0.1613851941
C             0.2946231417        0.8091751181        0.3915475631
C             0.2327691537        0.8821134595        0.9306962198
C             0.4346210562        0.4255465425        0.1612772907
C             0.4605660302        0.6435543131        0.3900619112
C             0.5661134494        0.5488219222        0.9306597560
C             0.6017092771        0.7587490837        0.1611770113
C             0.7915462852        0.8090968542        0.3915923398
C             0.7327645627        0.8820807146        0.9306344750
H             0.5868233466        1.1414696861        0.5727434956
H             0.7105583915        1.1028035880        0.5776850625
H             0.4349308759        0.6470268900        0.7476082684
H             0.3101184128        0.4783065898        0.7435465044
H             0.8078761284        0.5785015210        0.7361349576
H             0.9356692881        0.5453358360        0.7392529759
H             0.3100043810       -0.0276716424        0.7344840402
H             0.4324143343        0.1420201337        0.7394921412
H             0.0829964754        0.5399539794        0.5732636523
H             0.2068366288        0.7110397990        0.5800252353
H             0.7205371709        0.6140620623        0.5878401850
H             0.5930118092        0.6535790417        0.5807986660
H             0.0863882819        0.0427302278        0.5833142337
H             0.2125001962        0.2210971697        0.5887429536
H             0.9309162179        1.0444653176        0.7511266736
H             0.8150011947        1.0925507836        0.7455847181
H             0.3086702448        0.4127842527        0.5198784222
H             0.4216526102        0.5980430656        0.5164290188



     Writing config-only to output data dir ../../results/server/9h2_abs/9H2abs_C.save/
     NEW-OLD atomic charge density approx. for the potential

     Check: negative core charge=   -0.000002
     extrapolated charge  121.28207, renormalised to  114.00000

     total cpu time spent up to now is        4.3 secs

     Self-consistent Calculation

     iteration #  1     ecut=    40.00 Ry     beta= 0.05
     Davidson diagonalization with overlap
     ethr =  1.00E-06,  avg # of iterations = 37.0

     total cpu time spent up to now is        4.8 secs

     total energy              =    -292.65955974 Ry
     estimated scf accuracy    <     226.60202211 Ry

     iteration #  2     ecut=    40.00 Ry     beta= 0.05
     Davidson diagonalization with overlap
     ethr =  1.00E-02,  avg # of iterations =  7.0

     total cpu time spent up to now is        4.9 secs

     total energy              =    -304.06462204 Ry
     estimated scf accuracy    <       8.00278996 Ry

     iteration #  3     ecut=    40.00 Ry     beta= 0.05
     Davidson diagonalization with overlap
     ethr =  7.02E-03,  avg # of iterations =  1.0

     total cpu time spent up to now is        5.0 secs

     total energy              =    -302.77953578 Ry
     estimated scf accuracy    <       7.53399410 Ry

     iteration #  4     ecut=    40.00 Ry     beta= 0.05
     Davidson diagonalization with overlap
     ethr =  6.61E-03,  avg # of iterations =  2.0

     total cpu time spent up to now is        5.1 secs

     total energy              =    -303.31505659 Ry
     estimated scf accuracy    <       7.12915578 Ry

     iteration #  5     ecut=    40.00 Ry     beta= 0.05
     Davidson diagonalization with overlap
     ethr =  6.25E-03,  avg # of iterations =  1.0

     total cpu time spent up to now is        5.2 secs

     total energy              =    -303.50389325 Ry
     estimated scf accuracy    <       6.64831071 Ry

     iteration #  6     ecut=    40.00 Ry     beta= 0.05
     Davidson diagonalization with overlap
     ethr =  5.83E-03,  avg # of iterations =  1.0

     total cpu time spent up to now is        5.3 secs

     total energy              =    -303.62330932 Ry
     estimated scf accuracy    <       5.36565589 Ry

     iteration #  7     ecut=    40.00 Ry     beta= 0.05
     Davidson diagonalization with overlap
     ethr =  4.71E-03,  avg # of iterations =  2.0

     total cpu time spent up to now is        5.4 secs

     total energy              =    -302.99461213 Ry
     estimated scf accuracy    <       3.28361743 Ry

     iteration #  8     ecut=    40.00 Ry     beta= 0.05
     Davidson diagonalization with overlap
     ethr =  2.88E-03,  avg # of iterations = 13.0

     total cpu time spent up to now is        5.5 secs

     total energy              =    -305.67308166 Ry
     estimated scf accuracy    <      19.13360249 Ry

     iteration #  9     ecut=    40.00 Ry     beta= 0.05
     Davidson diagonalization with overlap
     ethr =  2.88E-03,  avg # of iterations =  1.0

     total cpu time spent up to now is        5.6 secs

     total energy              =    -305.78873639 Ry
     estimated scf accuracy    <       3.98159363 Ry

     iteration # 10     ecut=    40.00 Ry     beta= 0.05
     Davidson diagonalization with overlap
     ethr =  2.88E-03,  avg # of iterations =  1.0

     total cpu time spent up to now is        5.6 secs

     total energy              =    -305.47911947 Ry
     estimated scf accuracy    <       2.21336469 Ry

     iteration # 11     ecut=    40.00 Ry     beta= 0.05
     Davidson diagonalization with overlap
     ethr =  1.94E-03,  avg # of iterations =  1.0

     total cpu time spent up to now is        5.7 secs

     total energy              =    -305.61353922 Ry
     estimated scf accuracy    <       0.12857025 Ry

     iteration # 12     ecut=    40.00 Ry     beta= 0.05
     Davidson diagonalization with overlap
     ethr =  1.13E-04,  avg # of iterations =  4.0

     total cpu time spent up to now is        5.8 secs

     total energy              =    -305.63179856 Ry
     estimated scf accuracy    <       0.08877904 Ry

     iteration # 13     ecut=    40.00 Ry     beta= 0.05
     Davidson diagonalization with overlap
     ethr =  7.79E-05,  avg # of iterations =  1.0

     total cpu time spent up to now is        5.9 secs

     total energy              =    -305.63301213 Ry
     estimated scf accuracy    <       0.10079933 Ry

     iteration # 14     ecut=    40.00 Ry     beta= 0.05
     Davidson diagonalization with overlap
     ethr =  7.79E-05,  avg # of iterations =  1.0

     total cpu time spent up to now is        5.9 secs

     total energy              =    -305.59712731 Ry
     estimated scf accuracy    <       0.10770922 Ry

     iteration # 15     ecut=    40.00 Ry     beta= 0.05
     Davidson diagonalization with overlap
     ethr =  7.79E-05,  avg # of iterations =  2.0

     total cpu time spent up to now is        6.0 secs

     total energy              =    -305.61051615 Ry
     estimated scf accuracy    <       0.02161320 Ry

     iteration # 16     ecut=    40.00 Ry     beta= 0.05
     Davidson diagonalization with overlap
     ethr =  1.90E-05,  avg # of iterations = 14.0

     total cpu time spent up to now is        6.1 secs

     total energy              =    -305.60889653 Ry
     estimated scf accuracy    <       0.02643229 Ry

     iteration # 17     ecut=    40.00 Ry     beta= 0.05
     Davidson diagonalization with overlap
     ethr =  1.90E-05,  avg # of iterations =  1.0

     total cpu time spent up to now is        6.2 secs

     total energy              =    -305.61012054 Ry
     estimated scf accuracy    <       0.01944625 Ry

     iteration # 18     ecut=    40.00 Ry     beta= 0.05
     Davidson diagonalization with overlap
     ethr =  1.71E-05,  avg # of iterations =  1.0

     total cpu time spent up to now is        6.2 secs

     total energy              =    -305.61077465 Ry
     estimated scf accuracy    <       0.02085182 Ry

     iteration # 19     ecut=    40.00 Ry     beta= 0.05
     Davidson diagonalization with overlap
     ethr =  1.71E-05,  avg # of iterations =  1.0

     total cpu time spent up to now is        6.3 secs

     total energy              =    -305.60650910 Ry
     estimated scf accuracy    <       0.02236132 Ry

     iteration # 20     ecut=    40.00 Ry     beta= 0.05
     Davidson diagonalization with overlap
     ethr =  1.71E-05,  avg # of iterations =  2.0

     total cpu time spent up to now is        6.4 secs

     total energy              =    -305.60808000 Ry
     estimated scf accuracy    <       0.01209345 Ry

     iteration # 21     ecut=    40.00 Ry     beta= 0.05
     Davidson diagonalization with overlap
     ethr =  1.06E-05,  avg # of iterations =  1.0

     total cpu time spent up to now is        6.4 secs

     total energy              =    -305.60912611 Ry
     estimated scf accuracy    <       0.01315053 Ry

     iteration # 22     ecut=    40.00 Ry     beta= 0.05
     Davidson diagonalization with overlap
     ethr =  1.06E-05,  avg # of iterations =  1.0

     total cpu time spent up to now is        6.5 secs

     total energy              =    -305.60769564 Ry
     estimated scf accuracy    <       0.01785409 Ry

     iteration # 23     ecut=    40.00 Ry     beta= 0.05
     Davidson diagonalization with overlap
     ethr =  1.06E-05,  avg # of iterations =  1.0

     total cpu time spent up to now is        6.6 secs

     total energy              =    -305.60898206 Ry
     estimated scf accuracy    <       0.01373105 Ry

     iteration # 24     ecut=    40.00 Ry     beta= 0.05
     Davidson diagonalization with overlap
     ethr =  1.06E-05,  avg # of iterations =  3.0

     total cpu time spent up to now is        6.6 secs

     total energy              =    -305.61213049 Ry
     estimated scf accuracy    <       0.01883068 Ry

     iteration # 25     ecut=    40.00 Ry     beta= 0.05
     Davidson diagonalization with overlap
     ethr =  1.06E-05,  avg # of iterations =  1.0

     total cpu time spent up to now is        6.7 secs

     total energy              =    -305.60537420 Ry
     estimated scf accuracy    <       0.02002279 Ry

     iteration # 26     ecut=    40.00 Ry     beta= 0.05
     Davidson diagonalization with overlap
     ethr =  1.06E-05,  avg # of iterations =  2.0

     total cpu time spent up to now is        6.8 secs

     total energy              =    -305.60654754 Ry
     estimated scf accuracy    <       0.00899455 Ry

     iteration # 27     ecut=    40.00 Ry     beta= 0.05
     Davidson diagonalization with overlap
     ethr =  7.89E-06,  avg # of iterations =  2.0

     total cpu time spent up to now is        6.8 secs

     total energy              =    -305.60682162 Ry
     estimated scf accuracy    <       0.00757066 Ry

     iteration # 28     ecut=    40.00 Ry     beta= 0.05
     Davidson diagonalization with overlap
     ethr =  6.64E-06,  avg # of iterations =  1.0

     total cpu time spent up to now is        6.9 secs

     total energy              =    -305.60713194 Ry
     estimated scf accuracy    <       0.00735925 Ry

     iteration # 29     ecut=    40.00 Ry     beta= 0.05
     Davidson diagonalization with overlap
     ethr =  6.46E-06,  avg # of iterations =  1.0

     total cpu time spent up to now is        7.0 secs

     total energy              =    -305.60558336 Ry
     estimated scf accuracy    <       0.00787124 Ry

     iteration # 30     ecut=    40.00 Ry     beta= 0.05
     Davidson diagonalization with overlap
     ethr =  6.46E-06,  avg # of iterations =  2.0

     total cpu time spent up to now is        7.0 secs

     total energy              =    -305.60567932 Ry
     estimated scf accuracy    <       0.00617482 Ry

     iteration # 31     ecut=    40.00 Ry     beta= 0.05
     Davidson diagonalization with overlap
     ethr =  5.42E-06,  avg # of iterations =  2.0

     total cpu time spent up to now is        7.1 secs

     total energy              =    -305.60523027 Ry
     estimated scf accuracy    <       0.00477954 Ry

     iteration # 32     ecut=    40.00 Ry     beta= 0.05
     Davidson diagonalization with overlap
     ethr =  4.19E-06,  avg # of iterations =  1.0

     total cpu time spent up to now is        7.2 secs

     total energy              =    -305.60465380 Ry
     estimated scf accuracy    <       0.00371035 Ry

     iteration # 33     ecut=    40.00 Ry     beta= 0.05
     Davidson diagonalization with overlap
     ethr =  3.25E-06,  avg # of iterations =  2.0

     total cpu time spent up to now is        7.2 secs

     total energy              =    -305.60492931 Ry
     estimated scf accuracy    <       0.00251287 Ry

     iteration # 34     ecut=    40.00 Ry     beta= 0.05
     Davidson diagonalization with overlap
     ethr =  2.20E-06,  avg # of iterations =  2.0

     total cpu time spent up to now is        7.3 secs

     total energy              =    -305.60466438 Ry
     estimated scf accuracy    <       0.00231846 Ry

     iteration # 35     ecut=    40.00 Ry     beta= 0.05
     Davidson diagonalization with overlap
     ethr =  2.03E-06,  avg # of iterations =  2.0

     total cpu time spent up to now is        7.4 secs

     total energy              =    -305.60439326 Ry
     estimated scf accuracy    <       0.00156011 Ry

     iteration # 36     ecut=    40.00 Ry     beta= 0.05
     Davidson diagonalization with overlap
     ethr =  1.37E-06,  avg # of iterations =  4.0

     total cpu time spent up to now is        7.5 secs

     total energy              =    -305.60450884 Ry
     estimated scf accuracy    <       0.00097252 Ry

     iteration # 37     ecut=    40.00 Ry     beta= 0.05
     Davidson diagonalization with overlap
     ethr =  8.53E-07,  avg # of iterations =  6.0

     total cpu time spent up to now is        7.5 secs

     total energy              =    -305.60451627 Ry
     estimated scf accuracy    <       0.00069980 Ry

     iteration # 38     ecut=    40.00 Ry     beta= 0.05
     Davidson diagonalization with overlap
     ethr =  6.14E-07,  avg # of iterations =  1.0

     total cpu time spent up to now is        7.6 secs

     total energy              =    -305.60450451 Ry
     estimated scf accuracy    <       0.00061239 Ry

     iteration # 39     ecut=    40.00 Ry     beta= 0.05
     Davidson diagonalization with overlap
     ethr =  5.37E-07,  avg # of iterations =  1.0

     total cpu time spent up to now is        7.7 secs

     total energy              =    -305.60444775 Ry
     estimated scf accuracy    <       0.00054327 Ry

     iteration # 40     ecut=    40.00 Ry     beta= 0.05
     Davidson diagonalization with overlap
     ethr =  4.77E-07,  avg # of iterations =  2.0

     total cpu time spent up to now is        7.7 secs

     total energy              =    -305.60438067 Ry
     estimated scf accuracy    <       0.00042847 Ry

     iteration # 41     ecut=    40.00 Ry     beta= 0.05
     Davidson diagonalization with overlap
     ethr =  3.76E-07,  avg # of iterations =  2.0

     total cpu time spent up to now is        7.8 secs

     total energy              =    -305.60439829 Ry
     estimated scf accuracy    <       0.00020206 Ry

     iteration # 42     ecut=    40.00 Ry     beta= 0.05
     Davidson diagonalization with overlap
     ethr =  1.77E-07,  avg # of iterations =  2.0

     total cpu time spent up to now is        7.9 secs

     total energy              =    -305.60440469 Ry
     estimated scf accuracy    <       0.00016184 Ry

     iteration # 43     ecut=    40.00 Ry     beta= 0.05
     Davidson diagonalization with overlap
     ethr =  1.42E-07,  avg # of iterations =  1.0

     total cpu time spent up to now is        7.9 secs

     total energy              =    -305.60438911 Ry
     estimated scf accuracy    <       0.00014730 Ry

     iteration # 44     ecut=    40.00 Ry     beta= 0.05
     Davidson diagonalization with overlap
     ethr =  1.29E-07,  avg # of iterations =  2.0

     total cpu time spent up to now is        8.0 secs

     total energy              =    -305.60439295 Ry
     estimated scf accuracy    <       0.00012711 Ry

     iteration # 45     ecut=    40.00 Ry     beta= 0.05
     Davidson diagonalization with overlap
     ethr =  1.12E-07,  avg # of iterations =  1.0

     total cpu time spent up to now is        8.1 secs

     total energy              =    -305.60437994 Ry
     estimated scf accuracy    <       0.00011631 Ry

     iteration # 46     ecut=    40.00 Ry     beta= 0.05
     Davidson diagonalization with overlap
     ethr =  1.02E-07,  avg # of iterations =  1.0

     total cpu time spent up to now is        8.1 secs

     total energy              =    -305.60436471 Ry
     estimated scf accuracy    <       0.00009247 Ry

     iteration # 47     ecut=    40.00 Ry     beta= 0.05
     Davidson diagonalization with overlap
     ethr =  8.11E-08,  avg # of iterations =  2.0

     total cpu time spent up to now is        8.2 secs

     total energy              =    -305.60435425 Ry
     estimated scf accuracy    <       0.00006484 Ry

     iteration # 48     ecut=    40.00 Ry     beta= 0.05
     Davidson diagonalization with overlap
     ethr =  5.69E-08,  avg # of iterations =  2.0

     total cpu time spent up to now is        8.3 secs

     total energy              =    -305.60436225 Ry
     estimated scf accuracy    <       0.00002145 Ry

     iteration # 49     ecut=    40.00 Ry     beta= 0.05
     Davidson diagonalization with overlap
     ethr =  1.88E-08,  avg # of iterations =  2.0

     total cpu time spent up to now is        8.3 secs

     total energy              =    -305.60436375 Ry
     estimated scf accuracy    <       0.00002053 Ry

     iteration # 50     ecut=    40.00 Ry     beta= 0.05
     Davidson diagonalization with overlap
     ethr =  1.80E-08,  avg # of iterations =  1.0

     total cpu time spent up to now is        8.4 secs

     total energy              =    -305.60436437 Ry
     estimated scf accuracy    <       0.00002005 Ry

     iteration # 51     ecut=    40.00 Ry     beta= 0.05
     Davidson diagonalization with overlap
     ethr =  1.76E-08,  avg # of iterations =  1.0

     total cpu time spent up to now is        8.5 secs

     total energy              =    -305.60436550 Ry
     estimated scf accuracy    <       0.00002042 Ry

     iteration # 52     ecut=    40.00 Ry     beta= 0.05
     Davidson diagonalization with overlap
     ethr =  1.76E-08,  avg # of iterations =  4.0

     total cpu time spent up to now is        8.5 secs

     total energy              =    -305.60436876 Ry
     estimated scf accuracy    <       0.00003248 Ry

     iteration # 53     ecut=    40.00 Ry     beta= 0.05
     Davidson diagonalization with overlap
     ethr =  1.76E-08,  avg # of iterations =  2.0

     total cpu time spent up to now is        8.6 secs

     total energy              =    -305.60436955 Ry
     estimated scf accuracy    <       0.00003340 Ry

     iteration # 54     ecut=    40.00 Ry     beta= 0.05
     Davidson diagonalization with overlap
     ethr =  1.76E-08,  avg # of iterations =  1.0

     total cpu time spent up to now is        8.7 secs

     total energy              =    -305.60437328 Ry
     estimated scf accuracy    <       0.00003651 Ry

     iteration # 55     ecut=    40.00 Ry     beta= 0.05
     Davidson diagonalization with overlap
     ethr =  1.76E-08,  avg # of iterations =  1.0

     total cpu time spent up to now is        8.7 secs

     total energy              =    -305.60436874 Ry
     estimated scf accuracy    <       0.00004493 Ry

     iteration # 56     ecut=    40.00 Ry     beta= 0.05
     Davidson diagonalization with overlap
     ethr =  1.76E-08,  avg # of iterations =  2.0

     total cpu time spent up to now is        8.8 secs

     total energy              =    -305.60436938 Ry
     estimated scf accuracy    <       0.00003527 Ry

     iteration # 57     ecut=    40.00 Ry     beta= 0.05
     Davidson diagonalization with overlap
     ethr =  1.76E-08,  avg # of iterations =  1.0

     total cpu time spent up to now is        8.9 secs

     total energy              =    -305.60436391 Ry
     estimated scf accuracy    <       0.00003648 Ry

     iteration # 58     ecut=    40.00 Ry     beta= 0.05
     Davidson diagonalization with overlap
     ethr =  1.76E-08,  avg # of iterations =  1.0

     total cpu time spent up to now is        8.9 secs

     total energy              =    -305.60436169 Ry
     estimated scf accuracy    <       0.00002464 Ry

     iteration # 59     ecut=    40.00 Ry     beta= 0.05
     Davidson diagonalization with overlap
     ethr =  1.76E-08,  avg # of iterations =  2.0

     total cpu time spent up to now is        9.0 secs

     total energy              =    -305.60436317 Ry
     estimated scf accuracy    <       0.00001642 Ry

     iteration # 60     ecut=    40.00 Ry     beta= 0.05
     Davidson diagonalization with overlap
     ethr =  1.44E-08,  avg # of iterations =  1.0

     total cpu time spent up to now is        9.1 secs

     total energy              =    -305.60436351 Ry
     estimated scf accuracy    <       0.00001603 Ry

     iteration # 61     ecut=    40.00 Ry     beta= 0.05
     Davidson diagonalization with overlap
     ethr =  1.41E-08,  avg # of iterations =  1.0

     total cpu time spent up to now is        9.1 secs

     total energy              =    -305.60436315 Ry
     estimated scf accuracy    <       0.00001634 Ry

     iteration # 62     ecut=    40.00 Ry     beta= 0.05
     Davidson diagonalization with overlap
     ethr =  1.41E-08,  avg # of iterations =  1.0

     total cpu time spent up to now is        9.2 secs

     total energy              =    -305.60436268 Ry
     estimated scf accuracy    <       0.00001455 Ry

     iteration # 63     ecut=    40.00 Ry     beta= 0.05
     Davidson diagonalization with overlap
     ethr =  1.28E-08,  avg # of iterations =  1.0

     total cpu time spent up to now is        9.3 secs

     total energy              =    -305.60435932 Ry
     estimated scf accuracy    <       0.00001287 Ry

     iteration # 64     ecut=    40.00 Ry     beta= 0.05
     Davidson diagonalization with overlap
     ethr =  1.13E-08,  avg # of iterations =  2.0

     total cpu time spent up to now is        9.3 secs

     total energy              =    -305.60435926 Ry
     estimated scf accuracy    <       0.00000808 Ry

     iteration # 65     ecut=    40.00 Ry     beta= 0.05
     Davidson diagonalization with overlap
     ethr =  7.09E-09,  avg # of iterations =  2.0

     total cpu time spent up to now is        9.4 secs

     total energy              =    -305.60435925 Ry
     estimated scf accuracy    <       0.00000617 Ry

     iteration # 66     ecut=    40.00 Ry     beta= 0.05
     Davidson diagonalization with overlap
     ethr =  5.42E-09,  avg # of iterations =  1.0

     total cpu time spent up to now is        9.4 secs

     total energy              =    -305.60435805 Ry
     estimated scf accuracy    <       0.00000499 Ry

     iteration # 67     ecut=    40.00 Ry     beta= 0.05
     Davidson diagonalization with overlap
     ethr =  4.37E-09,  avg # of iterations =  2.0

     total cpu time spent up to now is        9.5 secs

     total energy              =    -305.60435825 Ry
     estimated scf accuracy    <       0.00000212 Ry

     iteration # 68     ecut=    40.00 Ry     beta= 0.05
     Davidson diagonalization with overlap
     ethr =  1.86E-09,  avg # of iterations =  4.0

     total cpu time spent up to now is        9.6 secs

     total energy              =    -305.60435853 Ry
     estimated scf accuracy    <       0.00000189 Ry

     iteration # 69     ecut=    40.00 Ry     beta= 0.05
     Davidson diagonalization with overlap
     ethr =  1.66E-09,  avg # of iterations =  1.0

     total cpu time spent up to now is        9.7 secs

     total energy              =    -305.60435842 Ry
     estimated scf accuracy    <       0.00000185 Ry

     iteration # 70     ecut=    40.00 Ry     beta= 0.05
     Davidson diagonalization with overlap
     ethr =  1.62E-09,  avg # of iterations =  1.0

     total cpu time spent up to now is        9.7 secs

     total energy              =    -305.60435829 Ry
     estimated scf accuracy    <       0.00000151 Ry

     iteration # 71     ecut=    40.00 Ry     beta= 0.05
     Davidson diagonalization with overlap
     ethr =  1.33E-09,  avg # of iterations =  2.0

     total cpu time spent up to now is        9.8 secs

     total energy              =    -305.60435833 Ry
     estimated scf accuracy    <       0.00000126 Ry

     iteration # 72     ecut=    40.00 Ry     beta= 0.05
     Davidson diagonalization with overlap
     ethr =  1.10E-09,  avg # of iterations =  1.0

     total cpu time spent up to now is        9.9 secs

     total energy              =    -305.60435816 Ry
     estimated scf accuracy    <       0.00000107 Ry

     iteration # 73     ecut=    40.00 Ry     beta= 0.05
     Davidson diagonalization with overlap
     ethr =  9.39E-10,  avg # of iterations =  2.0

     total cpu time spent up to now is        9.9 secs

     End of self-consistent calculation

          k = 0.0000 0.0000 0.0000 (  8607 PWs)   bands (ev):

   -14.7785 -14.5140 -14.3104  -9.9183  -9.8180  -9.7613  -9.6000  -9.5898
    -9.5387  -9.4631  -9.4622  -9.4149  -8.7871  -8.6324  -8.6260  -8.4679
    -8.4601  -8.4339  -8.3545  -8.3396  -8.3291  -6.3120  -4.4844  -3.4183
    -2.9120  -2.1863  -2.1640  -2.1385  -1.9809  -1.9501  -1.9292  -1.8740
    -1.8445  -1.8296  -1.8251  -1.6624  -1.0195  -0.8241  -0.3525  -0.2922
    -0.1361   0.4089   0.8835   1.1021   1.1604   1.2175   1.2872   1.2995
     1.3635   1.4011   1.6311   1.7178   1.7391   2.0730   2.1087   2.1525
     3.0468   5.1897   5.3271   5.4001   5.6826   5.7421   5.7996   5.9507
     6.0224   6.0907   7.3499   7.7772

     the Fermi energy is     4.3984 ev

!    total energy              =    -305.60435761 Ry
     estimated scf accuracy    <       0.00000066 Ry
     smearing contrib. (-TS)   =      -0.00000000 Ry
     internal energy E=F+TS    =    -305.60435761 Ry

     The total energy is F=E-TS. E is the sum of the following terms:
     one-electron contribution =    -346.01180358 Ry
     hartree contribution      =     219.91786081 Ry
     xc contribution           =    -110.43050991 Ry
     ewald contribution        =     -69.07990494 Ry

     convergence has been achieved in  73 iterations

     Forces acting on atoms (cartesian axes, Ry/au):

     atom    1 type  1   force =     0.00234336   -0.00372663   -0.00015525
     atom    2 type  1   force =     0.00222187    0.00967952   -0.01329395
     atom    3 type  1   force =     0.00061836   -0.00223388   -0.00123661
     atom    4 type  1   force =    -0.00315809    0.00380210   -0.00049948
     atom    5 type  1   force =     0.00284039   -0.02858241   -0.03114705
     atom    6 type  1   force =    -0.00089198    0.00272391   -0.00263534
     atom    7 type  1   force =     0.00390800   -0.00337225    0.00052631
     atom    8 type  1   force =    -0.00435957    0.01016061   -0.01384793
     atom    9 type  1   force =     0.00081999   -0.00253553   -0.00099182
     atom   10 type  1   force =    -0.00432543    0.00365198   -0.00066914
     atom   11 type  1   force =     0.00027278   -0.01275935    0.00273109
     atom   12 type  1   force =    -0.00096081    0.00264387   -0.00179510
     atom   13 type  1   force =     0.00344830   -0.00238391    0.00124816
     atom   14 type  1   force =    -0.00181793    0.00685585   -0.00277359
     atom   15 type  1   force =     0.00074511   -0.00230500   -0.00099508
     atom   16 type  1   force =    -0.00366757    0.00259913   -0.00038718
     atom   17 type  1   force =     0.00320973   -0.01176207   -0.00159065
     atom   18 type  1   force =    -0.00083883    0.00279445   -0.00135723
     atom   19 type  1   force =     0.00341390   -0.00465685    0.00191224
     atom   20 type  1   force =    -0.00043225    0.01086485   -0.02160584
     atom   21 type  1   force =     0.00062473   -0.00250548   -0.00041737
     atom   22 type  1   force =    -0.00334488    0.00479982   -0.00348176
     atom   23 type  1   force =    -0.00144899   -0.01174147   -0.00163716
     atom   24 type  1   force =    -0.00089713    0.00278235   -0.00244570
     atom   25 type  2   force =     0.01314648   -0.00781701   -0.00630738
     atom   26 type  2   force =    -0.01156924   -0.00368552   -0.00812821
     atom   27 type  2   force =    -0.00274787   -0.00740431    0.00596668
     atom   28 type  2   force =     0.00188573    0.00926742    0.00346510
     atom   29 type  2   force =     0.01000763   -0.00167095    0.00138157
     atom   30 type  2   force =    -0.01014752    0.00037266    0.00383227
     atom   31 type  2   force =     0.00153506    0.00811122   -0.00193949
     atom   32 type  2   force =    -0.00155474   -0.00736934    0.00373134
     atom   33 type  2   force =    -0.03750703    0.01998712    0.00544682
     atom   34 type  2   force =    -0.04271064    0.00102992    0.01153805
     atom   35 type  2   force =     0.02774865    0.03531133    0.02288257
     atom   36 type  2   force =     0.05825462   -0.00089787    0.01471957
     atom   37 type  2   force =     0.00753064    0.01106055    0.00046088
     atom   38 type  2   force =    -0.00732398   -0.01823727   -0.01356171
     atom   39 type  2   force =    -0.01207014    0.00441892    0.00485772
     atom   40 type  2   force =     0.01024253   -0.00153826    0.00830905
     atom   41 type  2   force =     0.00440503    0.03103829    0.01412354
     atom   42 type  2   force =    -0.00744824   -0.04677050    0.02576707
     The non-local contrib.  to forces
     atom    1 type  1   force =     0.00875681   -0.00746336   -0.00079659
     atom    2 type  1   force =    -0.03003838    0.04188785   -0.02061666
     atom    3 type  1   force =     0.00150633   -0.00678470   -0.00168713
     atom    4 type  1   force =    -0.00669277    0.01081447    0.00351628
     atom    5 type  1   force =     0.01057030    0.03924938   -0.00734026
     atom    6 type  1   force =    -0.00214394    0.00740570   -0.00209343
     atom    7 type  1   force =     0.00389299   -0.00834116    0.00046024
     atom    8 type  1   force =     0.01831834    0.04605235   -0.02015413
     atom    9 type  1   force =     0.00205089   -0.00615152   -0.00036595
     atom   10 type  1   force =    -0.00431286    0.01118006    0.00337703
     atom   11 type  1   force =     0.00246155   -0.10270267    0.02775859
     atom   12 type  1   force =    -0.00037423    0.00572638    0.00046170
     atom   13 type  1   force =     0.00510038   -0.00950449    0.00260783
     atom   14 type  1   force =     0.00275767    0.08749378   -0.02388669
     atom   15 type  1   force =     0.00216931   -0.00889227    0.00003069
     atom   16 type  1   force =    -0.00610235    0.00860738    0.00311527
     atom   17 type  1   force =    -0.02685968   -0.03199653    0.00952688
     atom   18 type  1   force =    -0.00198068    0.00886366   -0.00017390
     atom   19 type  1   force =     0.00522797   -0.00951921    0.00335753
     atom   20 type  1   force =     0.00100572   -0.05612157   -0.00024531
     atom   21 type  1   force =     0.00002186   -0.00667614   -0.00018180
     atom   22 type  1   force =    -0.00718104    0.00678323   -0.00128874
     atom   23 type  1   force =     0.02226437   -0.02944914    0.01338590
     atom   24 type  1   force =    -0.00167928    0.00776582   -0.00088688
     atom   25 type  2   force =     0.06438993   -0.01596021    0.01043921
     atom   26 type  2   force =    -0.06441660    0.01386948   -0.01227393
     atom   27 type  2   force =    -0.01864623   -0.06528333    0.00393270
     atom   28 type  2   force =     0.01847598    0.06531790   -0.00384440
     atom   29 type  2   force =     0.06642658   -0.01311141    0.00948285
     atom   30 type  2   force =    -0.06639073    0.01269570   -0.00840321
[...]
     atom   40 type  2   force =    -0.62696863   -0.18159073   -2.43755329
     atom   41 type  2   force =    -0.06680822    0.25973851    1.38472377
     atom   42 type  2   force =    -0.15727529    0.06511539    1.40508320
     The local contribution  to forces
     atom    1 type  1   force =    -0.04085059    0.25133642    1.55665634
     atom    2 type  1   force =     0.39264406   -1.12635032   -8.24383422
     atom    3 type  1   force =    -0.27151668    0.87292201    6.35710918
     atom    4 type  1   force =    -0.03714024    0.19823305    1.60719942
     atom    5 type  1   force =     0.30791384   -1.12558732   -7.95346934
     atom    6 type  1   force =    -0.25754414    0.90462736    6.34347060
     atom    7 type  1   force =    -0.11738500    0.25709447    1.51506284
     atom    8 type  1   force =     0.28216545   -1.12767358   -8.43874956
     atom    9 type  1   force =    -0.28272649    0.86440923    6.31830036
     atom   10 type  1   force =    -0.09602237    0.16663358    1.57781280
     atom   11 type  1   force =     0.37201223   -1.11229411   -8.37093275
     atom   12 type  1   force =    -0.25855655    0.90190635    6.31718581
     atom   13 type  1   force =    -0.04255385    0.19415857    1.39660840
     atom   14 type  1   force =     0.28545818   -1.12789103   -7.91625777
     atom   15 type  1   force =    -0.23291554    0.91714546    6.29360199
     atom   16 type  1   force =    -0.05180214    0.27253580    1.59539591
     atom   17 type  1   force =     0.32135369   -1.22619462   -8.51732982
     atom   18 type  1   force =    -0.22312650    0.84815632    6.34882774
     atom   19 type  1   force =    -0.07689574    0.18056478    1.54077766
     atom   20 type  1   force =     0.37388583   -1.24137746   -8.34920596
     atom   21 type  1   force =    -0.27958920    0.92711658    6.30545290
     atom   22 type  1   force =    -0.04561502    0.20374404    1.47018775
     atom   23 type  1   force =     0.39021131   -1.20322533   -8.36470905
     atom   24 type  1   force =    -0.25571036    0.86543817    6.30007763
     atom   25 type  2   force =     0.83228831   -0.39177990   -1.91283444
     atom   26 type  2   force =    -0.46005861   -0.16902606   -2.00244364
     atom   27 type  2   force =    -0.25862449   -0.27184151    2.55455093
     atom   28 type  2   force =     0.03545656    0.96050065    2.38476113
     atom   29 type  2   force =     0.51272264    0.18531543    2.41811832
     atom   30 type  2   force =    -0.68869741    0.54805221    2.32427033
     atom   31 type  2   force =    -0.00312197    0.92929581    2.28507317
     atom   32 type  2   force =    -0.25054824   -0.30264435    2.49180181
     atom   33 type  2   force =    -0.07032885   -0.12642355   -1.38894441
     atom   34 type  2   force =     0.16651734   -0.29000434   -1.35748198
     atom   35 type  2   force =     0.03838097   -0.18128732   -1.35932703
     atom   36 type  2   force =    -0.09335719   -0.23879622   -1.37835134
     atom   37 type  2   force =    -0.01141960   -0.04883016   -1.38817482
     atom   38 type  2   force =    -0.01038979   -0.31789615   -1.37499908
     atom   39 type  2   force =    -0.70258957    0.44881495    2.28003700
     atom   40 type  2   force =     0.57144456    0.19236186    2.42869206
     atom   41 type  2   force =     0.06356127   -0.25654962   -1.38022283
     atom   42 type  2   force =     0.13911742   -0.07782654   -1.40513273
     The core correction contribution to forces
     atom    1 type  1   force =     0.00004785   -0.00001221   -0.00087588
     atom    2 type  1   force =     0.00020641    0.00049433    0.00058732
     atom    3 type  1   force =    -0.00022434    0.00028963    0.00270895
     atom    4 type  1   force =     0.00024203   -0.00025177   -0.00107594
     atom    5 type  1   force =    -0.00002891    0.00016793    0.00176415
     atom    6 type  1   force =    -0.00003000    0.00015678    0.00268074
     atom    7 type  1   force =    -0.00026504    0.00010148   -0.00090311
     atom    8 type  1   force =    -0.00040176    0.00033393    0.00019732
     atom    9 type  1   force =    -0.00033013    0.00057163    0.00258401
     atom   10 type  1   force =    -0.00018263   -0.00057864   -0.00111978
     atom   11 type  1   force =     0.00008845    0.00041534    0.00079547
     atom   12 type  1   force =    -0.00014638    0.00039134    0.00240971
     atom   13 type  1   force =     0.00020135   -0.00014348   -0.00129125
     atom   14 type  1   force =    -0.00016526    0.00000882    0.00161732
     atom   15 type  1   force =    -0.00022663    0.00049047    0.00241408
     atom   16 type  1   force =     0.00022350    0.00011759   -0.00117043
     atom   17 type  1   force =    -0.00004534   -0.00004966    0.00064730
     atom   18 type  1   force =    -0.00011436    0.00021089    0.00259812
     atom   19 type  1   force =    -0.00008721   -0.00013613   -0.00086352
     atom   20 type  1   force =    -0.00002936   -0.00023567    0.00060830
     atom   21 type  1   force =     0.00001991    0.00042919    0.00240318
     atom   22 type  1   force =     0.00015905   -0.00030227   -0.00136922
     atom   23 type  1   force =     0.00012804   -0.00017130    0.00074844
     atom   24 type  1   force =     0.00026223    0.00032808    0.00251098
     atom   25 type  2   force =     0.00000000    0.00000000    0.00000000
     atom   26 type  2   force =     0.00000000    0.00000000    0.00000000
     atom   27 type  2   force =     0.00000000    0.00000000    0.00000000
     atom   28 type  2   force =     0.00000000    0.00000000    0.00000000
     atom   29 type  2   force =     0.00000000    0.00000000    0.00000000
     atom   30 type  2   force =     0.00000000    0.00000000    0.00000000
     atom   31 type  2   force =     0.00000000    0.00000000    0.00000000
     atom   32 type  2   force =     0.00000000    0.00000000    0.00000000
     atom   33 type  2   force =     0.00000000    0.00000000    0.00000000
     atom   34 type  2   force =     0.00000000    0.00000000    0.00000000
     atom   35 type  2   force =     0.00000000    0.00000000    0.00000000
     atom   36 type  2   force =     0.00000000    0.00000000    0.00000000
     atom   37 type  2   force =     0.00000000    0.00000000    0.00000000
     atom   38 type  2   force =     0.00000000    0.00000000    0.00000000
     atom   39 type  2   force =     0.00000000    0.00000000    0.00000000
     atom   40 type  2   force =     0.00000000    0.00000000    0.00000000
     atom   41 type  2   force =     0.00000000    0.00000000    0.00000000
     atom   42 type  2   force =     0.00000000    0.00000000    0.00000000
     The Hubbard contrib.    to forces
     atom    1 type  1   force =     0.00000000    0.00000000    0.00000000
     atom    2 type  1   force =     0.00000000    0.00000000    0.00000000
     atom    3 type  1   force =     0.00000000    0.00000000    0.00000000
     atom    4 type  1   force =     0.00000000    0.00000000    0.00000000
     atom    5 type  1   force =     0.00000000    0.00000000    0.00000000
     atom    6 type  1   force =     0.00000000    0.00000000    0.00000000
     atom    7 type  1   force =     0.00000000    0.00000000    0.00000000
     atom    8 type  1   force =     0.00000000    0.00000000    0.00000000
     atom    9 type  1   force =     0.00000000    0.00000000    0.00000000
     atom   10 type  1   force =     0.00000000    0.00000000    0.00000000
     atom   11 type  1   force =     0.00000000    0.00000000    0.00000000
     atom   12 type  1   force =     0.00000000    0.00000000    0.00000000
     atom   13 type  1   force =     0.00000000    0.00000000    0.00000000
     atom   14 type  1   force =     0.00000000    0.00000000    0.00000000
     atom   15 type  1   force =     0.00000000    0.00000000    0.00000000
     atom   16 type  1   force =     0.00000000    0.00000000    0.00000000
     atom   17 type  1   force =     0.00000000    0.00000000    0.00000000
     atom   18 type  1   force =     0.00000000    0.00000000    0.00000000
     atom   19 type  1   force =     0.00000000    0.00000000    0.00000000
     atom   20 type  1   force =     0.00000000    0.00000000    0.00000000
     atom   21 type  1   force =     0.00000000    0.00000000    0.00000000
     atom   22 type  1   force =     0.00000000    0.00000000    0.00000000
     atom   23 type  1   force =     0.00000000    0.00000000    0.00000000
     atom   24 type  1   force =     0.00000000    0.00000000    0.00000000
     atom   25 type  2   force =     0.00000000    0.00000000    0.00000000
     atom   26 type  2   force =     0.00000000    0.00000000    0.00000000
     atom   27 type  2   force =     0.00000000    0.00000000    0.00000000
     atom   28 type  2   force =     0.00000000    0.00000000    0.00000000
     atom   29 type  2   force =     0.00000000    0.00000000    0.00000000
     atom   30 type  2   force =     0.00000000    0.00000000    0.00000000
     atom   31 type  2   force =     0.00000000    0.00000000    0.00000000
     atom   32 type  2   force =     0.00000000    0.00000000    0.00000000
     atom   33 type  2   force =     0.00000000    0.00000000    0.00000000
     atom   34 type  2   force =     0.00000000    0.00000000    0.00000000
     atom   35 type  2   force =     0.00000000    0.00000000    0.00000000
     atom   36 type  2   force =     0.00000000    0.00000000    0.00000000
     atom   37 type  2   force =     0.00000000    0.00000000    0.00000000
     atom   38 type  2   force =     0.00000000    0.00000000    0.00000000
     atom   39 type  2   force =     0.00000000    0.00000000    0.00000000
     atom   40 type  2   force =     0.00000000    0.00000000    0.00000000
     atom   41 type  2   force =     0.00000000    0.00000000    0.00000000
     atom   42 type  2   force =     0.00000000    0.00000000    0.00000000
     The SCF correction term to forces
     atom    1 type  1   force =     0.00000109    0.00001365    0.00002415
     atom    2 type  1   force =    -0.00001397   -0.00000313    0.00007750
     atom    3 type  1   force =    -0.00001452   -0.00001360   -0.00007371
     atom    4 type  1   force =    -0.00000045    0.00000705    0.00003314
     atom    5 type  1   force =     0.00000565    0.00001111    0.00007378
     atom    6 type  1   force =    -0.00000851   -0.00004555   -0.00006345
     atom    7 type  1   force =    -0.00001366    0.00001038    0.00003079
     atom    8 type  1   force =     0.00001494   -0.00000168    0.00007002
     atom    9 type  1   force =     0.00001049    0.00001597   -0.00006305
     atom   10 type  1   force =    -0.00001564    0.00000341    0.00003827
     atom   11 type  1   force =    -0.00000841    0.00001002    0.00006610
     atom   12 type  1   force =     0.00000254   -0.00000672   -0.00005686
     atom   13 type  1   force =    -0.00000149    0.00000149    0.00003615
     atom   14 type  1   force =    -0.00000201   -0.00000069    0.00005443
     atom   15 type  1   force =    -0.00002459   -0.00002698   -0.00005607
     atom   16 type  1   force =    -0.00000328    0.00000777    0.00002923
     atom   17 type  1   force =     0.00001178    0.00000455    0.00006276
     atom   18 type  1   force =    -0.00003376    0.00000431   -0.00006797
     atom   19 type  1   force =    -0.00000981   -0.00000844    0.00003288
     atom   20 type  1   force =    -0.00000285    0.00003063    0.00006821
     atom   21 type  1   force =     0.00002288   -0.00001459   -0.00006382
     atom   22 type  1   force =    -0.00000943    0.00000036    0.00002569
     atom   23 type  1   force =    -0.00000911   -0.00000037    0.00006715
     atom   24 type  1   force =     0.00003249    0.00001235   -0.00007553
     atom   25 type  2   force =     0.00000368   -0.00000180    0.00001038
     atom   26 type  2   force =    -0.00000227    0.00000048    0.00000838
     atom   27 type  2   force =     0.00000445   -0.00000356   -0.00003163
     atom   28 type  2   force =     0.00000266   -0.00000550   -0.00003117
     atom   29 type  2   force =     0.00000311   -0.00000217   -0.00002558
     atom   30 type  2   force =     0.00000023   -0.00000337   -0.00002689
     atom   31 type  2   force =     0.00000105   -0.00000478   -0.00002580
     atom   32 type  2   force =     0.00000343   -0.00000468   -0.00002567
     atom   33 type  2   force =     0.00000072   -0.00000337    0.00000616
     atom   34 type  2   force =     0.00000216   -0.00000448    0.00000477
     atom   35 type  2   force =    -0.00000175   -0.00000010    0.00000521
     atom   36 type  2   force =    -0.00000366    0.00000336    0.00000782
     atom   37 type  2   force =    -0.00000609    0.00000439    0.00000506
     atom   38 type  2   force =    -0.00000749    0.00000303    0.00000529
     atom   39 type  2   force =     0.00000199   -0.00000529   -0.00002485
     atom   40 type  2   force =     0.00000295   -0.00000416   -0.00002743
     atom   41 type  2   force =    -0.00000492    0.00000150    0.00000615
     atom   42 type  2   force =    -0.00000446    0.00000483    0.00000816

     Total force =     0.008632     Total SCF correction =     0.000311


     Computing stress (Cartesian axis) and pressure

          total   stress  (Ry/bohr**3)                   (kbar)     P=        0.16
  -0.00000014  -0.00000261  -0.00001605           -0.02       -0.38       -2.36
  -0.00000261   0.00000147  -0.00000172           -0.38        0.22       -0.25
  -0.00001605  -0.00000172   0.00000192           -2.36       -0.25        0.28

     Energy error            =      1.5E-04 Ry
     Gradient error          =      2.6E-03 Ry/Bohr
     Cell gradient error     =      2.4E+00 kbar

     number of scf cycles    =  50
     number of bfgs steps    =  49

     enthalpy           old  =    -306.0907387757 Ry
     enthalpy           new  =    -306.0908845128 Ry

     CASE: enthalpy          _new < enthalpy          _old

     new trust radius        =       0.0214732850 bohr

     The maximum number of steps has been reached.

     End of BFGS Geometry Optimization
     new unit-cell volume =   1673.86760 a.u.^3 (   248.04159 Ang^3 )
     density =      2.05126 g/cm^3

CELL_PARAMETERS (alat=  8.00000437)
   1.177463198   0.009468537   0.045871762
  -0.591407724   1.005540709  -0.164858575
   0.165363897  -0.429067291   2.815095806

ATOMIC_POSITIONS (crystal)
C            -0.0869034986       -0.0665291818        0.1629252635
C            -0.0494087370        0.1026839440        0.3760359263
C             0.0553779704        0.0478303432        0.9130199543
C             0.0797399175        0.2659405469        0.1621901592
C             0.2832208070        0.2674001529        0.3746224049
C             0.2220825907        0.3808301547        0.9125773016
C             0.4127273491       -0.0662392781        0.1631732961
C             0.4497743038        0.1031781601        0.3772221179
C             0.5554309902        0.0455794610        0.9131042344
C             0.5789316611        0.2660233042        0.1627931278
C             0.7835450215        0.2696464140        0.3769966428
C             0.7222882063        0.3791902285        0.9135517002
C            -0.0865877428        0.4348077295        0.1648209510
C            -0.0509797831        0.5994734646        0.3732795648
C             0.0554015339        0.5483391123        0.9133748660
C             0.0798883602        0.7664440927        0.1620756455
C             0.2832990252        0.7701982074        0.3783567189
C             0.2220648501        0.8810989820        0.9128208373
C             0.4128138660        0.4334127830        0.1630716986
C             0.4498961463        0.6025763600        0.3770608452
C             0.5557650605        0.5456916070        0.9134061275
C             0.5795415101        0.7661912682        0.1622949084
C             0.7835519010        0.7698925639        0.3778431205
C             0.7226527551        0.8787283359        0.9130320084
H             0.5980728442        1.0945841981        0.5489245786
H             0.7338806600        1.0749312937        0.5625642817
H             0.4279196362        0.6892251179        0.7683603973
H             0.3007965339        0.5101464906        0.7679814278
H             0.7975993350        0.6145992856        0.7619884448
H             0.9219649020        0.5589789227        0.7603214505
H             0.3065869728        0.0058846651        0.7622360105
H             0.4247347400        0.1831308934        0.7588463241
H             0.1690837688        0.5547664625        0.5771531318
H             0.0770427176        0.6610033919        0.5832832051
H             0.9637133311        0.7857183861        0.5863515121
H             0.7232564025        0.6552474240        0.5796929753
H             0.0760907162        0.0142430329        0.5790495056
H             0.1779404670        0.2129434385        0.5815049185
H             0.9271369857        1.0756639401        0.7623924143
H             0.7903547565        1.1111327944        0.7596134555
H             0.2951358311        0.4478233390        0.5833904073
H             0.5270409966        0.5504136590        0.5786995596



     Writing config-only to output data dir ../../results/server/9h2_abs/9H2abs_C.save/
     NEW-OLD atomic charge density approx. for the potential

     Check: negative core charge=   -0.000001
     extrapolated charge  114.01651, renormalised to  114.00000

     Writing all to output data dir ../../results/server/9h2_abs/9H2abs_C.save/
 
     init_run     :      0.18s CPU      0.33s WALL (       1 calls)
     electrons    :     84.64s CPU     90.38s WALL (      50 calls)
     update_pot   :      5.67s CPU      5.77s WALL (      50 calls)
     forces       :      3.64s CPU      6.17s WALL (      50 calls)
     stress       :      9.95s CPU     10.71s WALL (      50 calls)

     Called by init_run:
     wfcinit      :      0.03s CPU      0.07s WALL (       1 calls)
     potinit      :      0.04s CPU      0.05s WALL (       1 calls)
     hinit0       :      0.06s CPU      0.13s WALL (       1 calls)

     Called by electrons:
     c_bands      :     61.00s CPU     63.55s WALL (    1050 calls)
     sum_band     :     11.34s CPU     11.81s WALL (    1050 calls)
     v_of_rho     :      0.92s CPU      0.94s WALL (    1099 calls)
     newd         :      3.79s CPU      3.87s WALL (    1099 calls)
     mix_rho      :      6.45s CPU      6.58s WALL (    1050 calls)

     Called by c_bands:
     init_us_2    :      0.19s CPU      0.24s WALL (    2101 calls)
     init_us_2:cp :      0.19s CPU      0.24s WALL (    2101 calls)
     cegterg      :     60.15s CPU     61.75s WALL (    1057 calls)

     Called by *egterg:
     cdiaghg      :     19.69s CPU     19.88s WALL (    4259 calls)
     h_psi        :     33.84s CPU     35.20s WALL (    4318 calls)
     s_psi        :      1.10s CPU      1.12s WALL (    4318 calls)
     g_psi        :      0.06s CPU      0.06s WALL (    3260 calls)

     Called by h_psi:
     h_psi:calbec :      3.23s CPU      3.38s WALL (    4318 calls)
     vloc_psi     :     29.18s CPU     30.37s WALL (    4318 calls)
     add_vuspsi   :      1.32s CPU      1.35s WALL (    4318 calls)

     General routines
     calbec       :      4.61s CPU      4.82s WALL (    5618 calls)
     fft          :      2.63s CPU      2.75s WALL (    6946 calls)
     ffts         :      3.27s CPU      3.34s WALL (   22831 calls)
     fftw         :     31.81s CPU     33.16s WALL (  454346 calls)
     interpolate  :      0.51s CPU      0.53s WALL (    1099 calls)
 
     Parallel routines
 
     PWSCF        :   1m45.71s CPU   1m56.37s WALL

 
   This run was terminated on:  12: 2: 2   3Sep2024            

=------------------------------------------------------------------------------=
   JOB DONE.
=------------------------------------------------------------------------------=
