
     Program PWSCF v.7.2 starts on  3Sep2024 at 12: 4:15 

     This program is part of the open-source Quantum ESPRESSO suite
     for quantum simulation of materials; please cite
         "P. Giannozzi et al., J. Phys.:Condens. Matter 21 395502 (2009);
         "P. Giannozzi et al., J. Phys.:Condens. Matter 29 465901 (2017);
         "P. Giannozzi et al., J. Chem. Phys. 152 154105 (2020);
          URL http://www.quantum-espresso.org", 
     in publications or presentations arising from this work. More details at
     http://www.quantum-espresso.org/quote

     Parallel version (MPI & OpenMP), running on      96 processor cores
     Number of MPI processes:                96
     Threads/MPI process:                     1

     MPI processes distributed on     2 nodes
     363400 MiB available memory on the printing compute node when the environment starts
 
     Reading input from hydrogen_absorption9.in

     Current dimensions of program PWSCF are:
     Max number of different atomic species (ntypx) = 10
     Max number of k-points (npk) =  40000
     Max angular momentum in pseudopotentials (lmaxx) =  4

     IMPORTANT: XC functional enforced from input :
     Exchange-correlation= LDA
                           (   1   1   0   0   0   0   0)
     Any further DFT definition will be discarded
     Please, verify this is what you really want

 
     R & G space division:  proc/nbgrp/npool/nimage =      96
     Subspace diagonalization in iterative solution of the eigenvalue problem:
     a serial algorithm will be used

 
     Parallelization info
     --------------------
     sticks:   dense  smooth     PW     G-vecs:    dense   smooth      PW
     Min          25      10      2                 2349      590      67
     Max          26      12      3                 2367      598      85
     Sum        2435     967    253               225967    57091    7163
 
     Using Slab Decomposition
 

     Title: 
     9H2_absorption_C                                                           


     bravais-lattice index     =            0
     lattice parameter (alat)  =       8.0000  a.u.
     unit-cell volume          =    1673.8676 (a.u.)^3
     number of atoms/cell      =           42
     number of atomic types    =            2
     number of electrons       =       114.00
     number of Kohn-Sham states=           68
     kinetic-energy cutoff     =      40.0000  Ry
     charge density cutoff     =     400.0000  Ry
     scf convergence threshold =      1.0E-06
     mixing beta               =       0.0500
     number of iterations used =            8  local-TF  mixing
     energy convergence thresh.=      1.0E-04
     force convergence thresh. =      1.0E-03
     press convergence thresh. =      5.0E-01
     Exchange-correlation= LDA
                           (   1   1   0   0   0   0   0)
     nstep                     =           50


     celldm(1)=   8.000004  celldm(2)=   0.000000  celldm(3)=   0.000000
     celldm(4)=   0.000000  celldm(5)=   0.000000  celldm(6)=   0.000000

     crystal axes: (cart. coord. in units of alat)
               a(1) = (   1.177463   0.009469   0.045872 )  
               a(2) = (  -0.591408   1.005541  -0.164859 )  
               a(3) = (   0.165364  -0.429067   2.815096 )  

     reciprocal axes: (cart. coord. in units 2 pi/alat)
               b(1) = (  0.844213  0.500910  0.026756 )  
               b(2) = ( -0.014173  1.011568  0.155012 )  
               b(3) = ( -0.014586  0.051077  0.363870 )  


     PseudoPot. # 1 for C  read from file:
     ../../potentials/C.pz-n-rrkjus_psl.0.1.UPF
     MD5 check sum: a3cecbabebb5b3a1aff122f23eb09bb0
     Pseudo is Ultrasoft + core correction, Zval =  4.0
     Generated using "atomic" code by A. Dal Corso  v.5.0.2 svn rev. 9415
     Using radial grid of 1073 points,  4 beta functions with: 
                l(1) =   0
                l(2) =   0
                l(3) =   1
                l(4) =   1
     Q(r) pseudized with 0 coefficients 


     PseudoPot. # 2 for H  read from file:
     ../../potentials/H.pz-rrkjus_psl.0.1.UPF
     MD5 check sum: 1467ebfaa2880178e80d097b970df8c7
     Pseudo is Ultrasoft, Zval =  1.0
     Generated using "atomic" code by A. Dal Corso  v.5.0.2 svn rev. 9415
     Using radial grid of  929 points,  2 beta functions with: 
                l(1) =   0
                l(2) =   0
     Q(r) pseudized with 0 coefficients 


     atomic species   valence    mass     pseudopotential
        C              4.00    12.01100     C ( 1.00)
        H              1.00     1.00784     H ( 1.00)

     No symmetry found



   Cartesian axes

     site n.     atom                  positions (alat units)
         1           C   tau(   1) = (  -0.0360378  -0.1376266   0.4656317  )
         2           C   tau(   2) = (  -0.0567223  -0.0585597   1.0393824  )
         3           C   tau(   3) = (   0.1878988  -0.3431273   2.5648937  )
         4           C   tau(   4) = (  -0.0365681   0.1985786   0.4163961  )
         5           C   tau(   5) = (   0.2372886   0.1108252   1.0235066  )
         6           C   tau(   6) = (   0.1871755  -0.0065140   2.5163967  )
         7           C   tau(   7) = (   0.5521287  -0.1327107   0.4892011  )
         8           C   tau(   8) = (   0.5309512  -0.0538451   1.0655385  )
         9           C   tau(   9) = (   0.7780380  -0.3406920   2.5884403  )
        10           C   tau(  10) = (   0.5512626   0.2031297   0.4409786  )
        11           C   tau(  11) = (   0.8254661   0.1168025   1.0527707  )
        12           C   tau(  12) = (   0.7772802  -0.0038449   2.5423554  )
        13           C   tau(  13) = (  -0.3318471   0.3656777   0.3883331  )
        14           C   tau(  14) = (  -0.3528331   0.4421502   0.9496509  )
        15           C   tau(  15) = (  -0.1080195   0.1600026   2.4833807  )
        16           C   tau(  16) = (  -0.3324139   0.7019058   0.3335682  )
        17           C   tau(  17) = (  -0.0593605   0.6148076   0.9511321  )
        18           C   tau(  18) = (  -0.1086679   0.4964220   2.4346079  )
        19           C   tau(  19) = (   0.2567156   0.3697542   0.4065471  )
        20           C   tau(  20) = (   0.2357201   0.4483904   0.9827601  )
        21           C   tau(  21) = (   0.4827111   0.1620647   2.5068577  )
        22           C   tau(  22) = (   0.2560951   0.7062885   0.3571471  )
        23           C   tau(  23) = (   0.5297647   0.6194573   0.9726841  )
        24           C   tau(  24) = (   0.4821928   0.4986874   2.4585560  )
        25           H   tau(  25) = (   0.1476355   0.8707863   1.3922583  )
        26           H   tau(  26) = (   0.3214226   0.8464580   1.4401251  )
        27           H   tau(  27) = (   0.2233056   0.3674174   2.0690129  )
        28           H   tau(  28) = (   0.1794687   0.1863055   2.0916373  )
        29           H   tau(  29) = (   0.7016705   0.2986124   2.0803358  )
        30           H   tau(  30) = (   0.8807250   0.2445767   2.0905174  )
        31           H   tau(  31) = (   0.4835610  -0.3182303   2.1588609  )
        32           H   tau(  32) = (   0.5172903  -0.1374290   2.1255177  )
        33           H   tau(  33) = (  -0.0335630   0.3118037   1.5410395  )
        34           H   tau(  34) = (  -0.2037536   0.4151276   1.5365601  )
        35           H   tau(  35) = (   0.7670184   0.5476125   1.5653105  )
        36           H   tau(  36) = (   0.5599497   0.4169988   1.5570452  )
        37           H   tau(  37) = (   0.1769245  -0.2334088   1.6312222  )
        38           H   tau(  38) = (   0.1797419  -0.0336966   1.6100489  )
        39           H   tau(  39) = (   0.5815859   0.7632849   2.0114047  )
        40           H   tau(  40) = (   0.3990938   0.7988475   1.9914598  )
        41           H   tau(  41) = (   0.1791371   0.2027854   1.5820108  )
        42           H   tau(  42) = (   0.3907485   0.3101526   1.5625306  )

     number of k points=     1  Gaussian smearing, width (Ry)=  0.0100
                       cart. coord. in units 2pi/alat
        k(    1) = (   0.0000000   0.0000000   0.0000000), wk =   2.0000000

     Dense  grid:   225967 G-vectors     FFT dimensions: (  64,  64, 150)

     Smooth grid:    57091 G-vectors     FFT dimensions: (  40,  40,  96)

     Estimated max dynamical RAM per process >       7.86 MB

     Estimated total dynamical RAM >     754.86 MB

     Check: negative core charge=   -0.000002

     Initial potential from superposition of free atoms

     starting charge     113.9990, renormalised to     114.0000
     Starting wfcs are  114 randomized atomic wfcs

     total cpu time spent up to now is        0.4 secs

     Self-consistent Calculation

     iteration #  1     ecut=    40.00 Ry     beta= 0.05
     Davidson diagonalization with overlap
     ethr =  1.00E-02,  avg # of iterations =  3.0

     total cpu time spent up to now is        0.5 secs

     total energy              =    -306.89535658 Ry
     estimated scf accuracy    <       2.02750757 Ry

     iteration #  2     ecut=    40.00 Ry     beta= 0.05
     Davidson diagonalization with overlap
     ethr =  1.78E-03,  avg # of iterations =  4.0

     total cpu time spent up to now is        0.6 secs

     total energy              =    -307.75861064 Ry
     estimated scf accuracy    <       2.39679424 Ry

     iteration #  3     ecut=    40.00 Ry     beta= 0.05
     Davidson diagonalization with overlap
     ethr =  1.78E-03,  avg # of iterations =  1.0

     total cpu time spent up to now is        0.7 secs

     total energy              =    -305.79323891 Ry
     estimated scf accuracy    <       3.64640326 Ry

     iteration #  4     ecut=    40.00 Ry     beta= 0.05
     Davidson diagonalization with overlap
     ethr =  1.78E-03,  avg # of iterations =  2.0

     total cpu time spent up to now is        0.7 secs

     total energy              =    -306.03653040 Ry
     estimated scf accuracy    <       0.10172707 Ry

     iteration #  5     ecut=    40.00 Ry     beta= 0.05
     Davidson diagonalization with overlap
     ethr =  8.92E-05,  avg # of iterations = 14.0

     total cpu time spent up to now is        0.9 secs

     total energy              =    -306.09713604 Ry
     estimated scf accuracy    <       0.04652129 Ry

     iteration #  6     ecut=    40.00 Ry     beta= 0.05
     Davidson diagonalization with overlap
     ethr =  4.08E-05,  avg # of iterations =  2.0

     total cpu time spent up to now is        0.9 secs

     total energy              =    -306.10145118 Ry
     estimated scf accuracy    <       0.04521800 Ry

     iteration #  7     ecut=    40.00 Ry     beta= 0.05
     Davidson diagonalization with overlap
     ethr =  3.97E-05,  avg # of iterations =  2.0

     total cpu time spent up to now is        1.0 secs

     total energy              =    -306.08659175 Ry
     estimated scf accuracy    <       0.04314069 Ry

     iteration #  8     ecut=    40.00 Ry     beta= 0.05
     Davidson diagonalization with overlap
     c_bands:  1 eigenvalues not converged
     ethr =  3.78E-05,  avg # of iterations = 20.0

     total cpu time spent up to now is        1.1 secs

     total energy              =    -306.08820072 Ry
     estimated scf accuracy    <       0.01209204 Ry

     iteration #  9     ecut=    40.00 Ry     beta= 0.05
     Davidson diagonalization with overlap
     ethr =  1.06E-05,  avg # of iterations =  7.0

     total cpu time spent up to now is        1.2 secs

     total energy              =    -306.08972507 Ry
     estimated scf accuracy    <       0.01061922 Ry

     iteration # 10     ecut=    40.00 Ry     beta= 0.05
     Davidson diagonalization with overlap
     ethr =  9.32E-06,  avg # of iterations =  1.0

     total cpu time spent up to now is        1.3 secs

     total energy              =    -306.08750045 Ry
     estimated scf accuracy    <       0.01120418 Ry

     iteration # 11     ecut=    40.00 Ry     beta= 0.05
     Davidson diagonalization with overlap
     ethr =  9.32E-06,  avg # of iterations =  1.0

     total cpu time spent up to now is        1.3 secs

     total energy              =    -306.08758029 Ry
     estimated scf accuracy    <       0.00621409 Ry

     iteration # 12     ecut=    40.00 Ry     beta= 0.05
     Davidson diagonalization with overlap
     ethr =  5.45E-06,  avg # of iterations =  1.0

     total cpu time spent up to now is        1.4 secs

     total energy              =    -306.08731610 Ry
     estimated scf accuracy    <       0.00549235 Ry

     iteration # 13     ecut=    40.00 Ry     beta= 0.05
     Davidson diagonalization with overlap
     ethr =  4.82E-06,  avg # of iterations =  1.0

     total cpu time spent up to now is        1.4 secs

     total energy              =    -306.08570446 Ry
     estimated scf accuracy    <       0.00446098 Ry

     iteration # 14     ecut=    40.00 Ry     beta= 0.05
     Davidson diagonalization with overlap
     ethr =  3.91E-06,  avg # of iterations =  2.0

     total cpu time spent up to now is        1.5 secs

     total energy              =    -306.08529886 Ry
     estimated scf accuracy    <       0.00145059 Ry

     iteration # 15     ecut=    40.00 Ry     beta= 0.05
     Davidson diagonalization with overlap
     ethr =  1.27E-06,  avg # of iterations = 12.0

     total cpu time spent up to now is        1.6 secs

     total energy              =    -306.08582834 Ry
     estimated scf accuracy    <       0.00051765 Ry

     iteration # 16     ecut=    40.00 Ry     beta= 0.05
     Davidson diagonalization with overlap
     ethr =  4.54E-07,  avg # of iterations =  2.0

     total cpu time spent up to now is        1.7 secs

     total energy              =    -306.08584595 Ry
     estimated scf accuracy    <       0.00032123 Ry

     iteration # 17     ecut=    40.00 Ry     beta= 0.05
     Davidson diagonalization with overlap
     ethr =  2.82E-07,  avg # of iterations =  1.0

     total cpu time spent up to now is        1.7 secs

     total energy              =    -306.08576568 Ry
     estimated scf accuracy    <       0.00024400 Ry

     iteration # 18     ecut=    40.00 Ry     beta= 0.05
     Davidson diagonalization with overlap
     ethr =  2.14E-07,  avg # of iterations =  2.0

     total cpu time spent up to now is        1.8 secs

     total energy              =    -306.08579842 Ry
     estimated scf accuracy    <       0.00006079 Ry

     iteration # 19     ecut=    40.00 Ry     beta= 0.05
     Davidson diagonalization with overlap
     ethr =  5.33E-08,  avg # of iterations =  4.0

     total cpu time spent up to now is        1.8 secs

     total energy              =    -306.08580873 Ry
     estimated scf accuracy    <       0.00003443 Ry

     iteration # 20     ecut=    40.00 Ry     beta= 0.05
     Davidson diagonalization with overlap
     ethr =  3.02E-08,  avg # of iterations =  1.0

     total cpu time spent up to now is        1.9 secs

     total energy              =    -306.08581436 Ry
     estimated scf accuracy    <       0.00003251 Ry

     iteration # 21     ecut=    40.00 Ry     beta= 0.05
     Davidson diagonalization with overlap
     ethr =  2.85E-08,  avg # of iterations =  4.0

     total cpu time spent up to now is        2.0 secs

     total energy              =    -306.08580132 Ry
     estimated scf accuracy    <       0.00004452 Ry

     iteration # 22     ecut=    40.00 Ry     beta= 0.05
     Davidson diagonalization with overlap
     ethr =  2.85E-08,  avg # of iterations =  2.0

     total cpu time spent up to now is        2.0 secs

     total energy              =    -306.08580220 Ry
     estimated scf accuracy    <       0.00000911 Ry

     iteration # 23     ecut=    40.00 Ry     beta= 0.05
     Davidson diagonalization with overlap
     ethr =  7.99E-09,  avg # of iterations =  4.0

     total cpu time spent up to now is        2.1 secs

     total energy              =    -306.08580404 Ry
     estimated scf accuracy    <       0.00000585 Ry

     iteration # 24     ecut=    40.00 Ry     beta= 0.05
     Davidson diagonalization with overlap
     ethr =  5.13E-09,  avg # of iterations =  2.0

     total cpu time spent up to now is        2.2 secs

     total energy              =    -306.08580480 Ry
     estimated scf accuracy    <       0.00000493 Ry

     iteration # 25     ecut=    40.00 Ry     beta= 0.05
     Davidson diagonalization with overlap
     ethr =  4.32E-09,  avg # of iterations =  2.0

     total cpu time spent up to now is        2.2 secs

     total energy              =    -306.08580308 Ry
     estimated scf accuracy    <       0.00000577 Ry

     iteration # 26     ecut=    40.00 Ry     beta= 0.05
     Davidson diagonalization with overlap
     ethr =  4.32E-09,  avg # of iterations =  2.0

     total cpu time spent up to now is        2.3 secs

     total energy              =    -306.08580393 Ry
     estimated scf accuracy    <       0.00000191 Ry

     iteration # 27     ecut=    40.00 Ry     beta= 0.05
     Davidson diagonalization with overlap
     ethr =  1.67E-09,  avg # of iterations =  1.0

     total cpu time spent up to now is        2.3 secs

     total energy              =    -306.08580384 Ry
     estimated scf accuracy    <       0.00000192 Ry

     iteration # 28     ecut=    40.00 Ry     beta= 0.05
     Davidson diagonalization with overlap
     ethr =  1.67E-09,  avg # of iterations =  1.0

     total cpu time spent up to now is        2.4 secs

     total energy              =    -306.08580398 Ry
     estimated scf accuracy    <       0.00000169 Ry

     iteration # 29     ecut=    40.00 Ry     beta= 0.05
     Davidson diagonalization with overlap
     ethr =  1.49E-09,  avg # of iterations =  1.0

     total cpu time spent up to now is        2.5 secs

     total energy              =    -306.08580365 Ry
     estimated scf accuracy    <       0.00000151 Ry

     iteration # 30     ecut=    40.00 Ry     beta= 0.05
     Davidson diagonalization with overlap
     ethr =  1.33E-09,  avg # of iterations =  2.0

     total cpu time spent up to now is        2.5 secs

     End of self-consistent calculation

          k = 0.0000 0.0000 0.0000 (  7163 PWs)   bands (ev):

   -13.2324 -12.8189 -11.9791  -7.8105  -7.8009  -7.7900  -7.6046  -7.5990
    -7.5773  -7.3181  -7.3110  -7.2966  -6.7440  -6.7072  -6.7030  -6.4225
    -6.4177  -6.4076  -6.1615  -6.1421  -6.1353  -5.2950  -3.8343  -1.9846
     0.0738   0.0801   0.0843   0.1684   0.1720   0.1740   0.2486   0.4088
     0.4654   0.4830   0.4932   1.0578   1.2640   1.3735   1.7814   1.8921
     1.9602   2.7053   2.9911   3.0812   3.1699   3.3470   3.4498   3.4565
     3.4869   3.5072   3.5226   3.5573   3.6684   3.6733   4.6496   4.6920
     4.9028   7.9544   8.1620   8.2554   8.7924   8.8758   8.9757   9.0071
     9.0835   9.2214  10.8839  11.6763

     the Fermi energy is     6.1294 ev

!    total energy              =    -306.08580321 Ry
     estimated scf accuracy    <       0.00000081 Ry
     smearing contrib. (-TS)   =      -0.00000000 Ry
     internal energy E=F+TS    =    -306.08580321 Ry

     The total energy is F=E-TS. E is the sum of the following terms:
     one-electron contribution =    -214.35201078 Ry
     hartree contribution      =     163.84199193 Ry
     xc contribution           =    -112.09458772 Ry
     ewald contribution        =    -143.48119663 Ry

     convergence has been achieved in  30 iterations

     Forces acting on atoms (cartesian axes, Ry/au):

     atom    1 type  1   force =     0.00012851   -0.00041118    0.00053819
     atom    2 type  1   force =    -0.00014676   -0.00065431    0.00025704
     atom    3 type  1   force =    -0.00020883    0.00033932   -0.00067656
     atom    4 type  1   force =     0.00015257    0.00012172   -0.00068086
     atom    5 type  1   force =    -0.00073282    0.00041647   -0.00312495
     atom    6 type  1   force =    -0.00097779   -0.00029070    0.00071750
     atom    7 type  1   force =     0.00014731   -0.00067536   -0.00100031
     atom    8 type  1   force =     0.00074389    0.00012106    0.00130610
     atom    9 type  1   force =     0.00008932    0.00051869    0.00010413
     atom   10 type  1   force =     0.00017566    0.00027658   -0.00112962
     atom   11 type  1   force =    -0.00048312    0.00093768    0.00087800
     atom   12 type  1   force =    -0.00110761   -0.00007769   -0.00016214
     atom   13 type  1   force =     0.00031370   -0.00065738   -0.00060310
     atom   14 type  1   force =     0.00062927    0.00107581    0.00042775
     atom   15 type  1   force =     0.00018315    0.00066402    0.00064044
     atom   16 type  1   force =    -0.00014028    0.00016334    0.00063481
     atom   17 type  1   force =    -0.00028883    0.00097532    0.00145261
     atom   18 type  1   force =    -0.00123645    0.00009160    0.00083872
     atom   19 type  1   force =    -0.00006496   -0.00107983    0.00083591
     atom   20 type  1   force =     0.00046076   -0.00079629   -0.00206741
     atom   21 type  1   force =    -0.00004880    0.00064898    0.00116930
     atom   22 type  1   force =    -0.00003477    0.00033295    0.00070928
     atom   23 type  1   force =    -0.00033441    0.00020680    0.00036342
     atom   24 type  1   force =    -0.00103858   -0.00003970    0.00076863
     atom   25 type  2   force =    -0.00005632   -0.00034324    0.00034319
     atom   26 type  2   force =     0.00035679   -0.00051207    0.00058986
     atom   27 type  2   force =    -0.00021286   -0.00021427   -0.00158546
     atom   28 type  2   force =    -0.00019453   -0.00026261   -0.00108734
     atom   29 type  2   force =    -0.00023799   -0.00002123   -0.00118471
     atom   30 type  2   force =    -0.00049091    0.00031137   -0.00020935
     atom   31 type  2   force =     0.00006538   -0.00016659   -0.00155564
     atom   32 type  2   force =    -0.00027496    0.00038554   -0.00011517
     atom   33 type  2   force =     0.00116728    0.00001143   -0.00016065
     atom   34 type  2   force =    -0.00004519    0.00038748   -0.00053641
     atom   35 type  2   force =     0.00054967   -0.00117135    0.00112970
     atom   36 type  2   force =    -0.00032195   -0.00118042   -0.00005148
     atom   37 type  2   force =     0.00179047   -0.00113919    0.00055375
     atom   38 type  2   force =     0.00040125   -0.00052336   -0.00082149
     atom   39 type  2   force =    -0.00001423   -0.00012830    0.00017970
     atom   40 type  2   force =    -0.00007619    0.00028236    0.00006840
     atom   41 type  2   force =    -0.00056408    0.00027577    0.00213770
     atom   42 type  2   force =     0.00197823    0.00180079    0.00010853
     The non-local contrib.  to forces
     atom    1 type  1   force =     0.00068086    0.00399193    0.04181799
     atom    2 type  1   force =    -0.00574080   -0.01997325   -0.03388177
     atom    3 type  1   force =     0.00926688   -0.01701674   -0.13441662
     atom    4 type  1   force =    -0.00864157    0.01276799    0.07273459
     atom    5 type  1   force =    -0.00172892   -0.00432584   -0.05846627
     atom    6 type  1   force =     0.00136676   -0.00994651   -0.12523765
     atom    7 type  1   force =     0.00551349    0.00039466    0.03806660
     atom    8 type  1   force =     0.01524011   -0.01608417   -0.02303209
     atom    9 type  1   force =     0.01188528   -0.02307787   -0.13057545
     atom   10 type  1   force =     0.00301495    0.02166440    0.06839668
     atom   11 type  1   force =    -0.00143957   -0.01741566   -0.06576625
     atom   12 type  1   force =     0.00330389   -0.01743406   -0.12119953
     atom   13 type  1   force =    -0.00394856    0.00422244    0.03743149
     atom   14 type  1   force =     0.00259812    0.00452710   -0.03019518
     atom   15 type  1   force =     0.01235358   -0.02281077   -0.12415636
     atom   16 type  1   force =    -0.00968958    0.00291766    0.07847943
     atom   17 type  1   force =     0.00450984   -0.00205735   -0.06862372
     atom   18 type  1   force =     0.00692246   -0.01488248   -0.12228571
     atom   19 type  1   force =     0.00182555    0.00324268    0.04086321
     atom   20 type  1   force =     0.00261799    0.00425575   -0.04240160
     atom   21 type  1   force =     0.00118460   -0.01746261   -0.12259870
     atom   22 type  1   force =    -0.00498866    0.01326955    0.07989672
     atom   23 type  1   force =    -0.00131484   -0.00212576   -0.07084067
     atom   24 type  1   force =    -0.01002208   -0.01645339   -0.12193182
     atom   25 type  2   force =     0.06021236   -0.00858364    0.01529372
     atom   26 type  2   force =    -0.05971308    0.00829535   -0.01726890
     atom   27 type  2   force =    -0.01335732   -0.05350646    0.01021824
     atom   28 type  2   force =     0.01294358    0.05449113   -0.00344795
     atom   29 type  2   force =     0.05409432   -0.01602439    0.00595212
     atom   30 type  2   force =    -0.05438102    0.01680386   -0.00021016
     atom   31 type  2   force =     0.01027894    0.05571573   -0.00736826
     atom   32 type  2   force =    -0.01063670   -0.05490579    0.01298750
     atom   33 type  2   force =    -0.02016915    0.01388404    0.00204129
     atom   34 type  2   force =     0.02023778   -0.01237231   -0.00099843
     atom   35 type  2   force =     0.00090585   -0.00026622   -0.00401910
     atom   36 type  2   force =    -0.02042555   -0.01300256    0.00136278
     atom   37 type  2   force =     0.00072544    0.02221716   -0.00029427
     atom   38 type  2   force =    -0.00078262   -0.02140352    0.00139091
     atom   39 type  2   force =    -0.05583717    0.01131324   -0.00330416
     atom   40 type  2   force =     0.05574464   -0.01055673    0.00893301
     atom   41 type  2   force =     0.00173508   -0.00313641   -0.00278851
     atom   42 type  2   force =     0.01786938    0.01336607    0.00016294
     The ionic contribution  to forces
     atom    1 type  1   force =     0.03951878   -0.25215647   -1.58002060
     atom    2 type  1   force =    -0.38351193    1.14092882    8.27347571
     atom    3 type  1   force =     0.25963002   -0.85645613   -6.24221933
     atom    4 type  1   force =     0.04437186   -0.21209012   -1.66680386
     atom    5 type  1   force =    -0.30613376    1.13487439    8.00552564
     atom    6 type  1   force =     0.24791177   -0.90111929   -6.24124640
     atom    7 type  1   force =     0.11337002   -0.25698730   -1.55397136
     atom    8 type  1   force =    -0.28209275    1.13936775    8.47753153
     atom    9 type  1   force =     0.26911210   -0.84008274   -6.20271717
     atom   10 type  1   force =     0.08874935   -0.18385049   -1.61467596
     atom   11 type  1   force =    -0.36226403    1.12766819    8.44114261
     atom   12 type  1   force =     0.24742505   -0.88726382   -6.20247307
     atom   13 type  1   force =     0.04727090   -0.20058231   -1.44990837
     atom   14 type  1   force =    -0.27905661    1.12825787    7.93986741
     atom   15 type  1   force =     0.21742440   -0.89163558   -6.17587105
     atom   16 type  1   force =     0.05574062   -0.27306495   -1.66295065
     atom   17 type  1   force =    -0.31775066    1.22995435    8.56585382
     atom   18 type  1   force =     0.20674516   -0.83707641   -6.23838724
     atom   19 type  1   force =     0.07455581   -0.18442616   -1.57793170
     atom   20 type  1   force =    -0.37094665    1.23410853    8.39182387
     atom   21 type  1   force =     0.27678082   -0.91064066   -6.19126151
     atom   22 type  1   force =     0.05012199   -0.22055404   -1.57653102
     atom   23 type  1   force =    -0.38129405    1.20877230    8.42934509
     atom   24 type  1   force =     0.25864136   -0.85280316   -6.20212406
     atom   25 type  2   force =    -0.88893187    0.39716395    1.90324706
     atom   26 type  2   force =     0.52238956    0.16262402    2.02324825
     atom   27 type  2   force =     0.26783721    0.32544637   -2.56590722
     atom   28 type  2   force =    -0.05207164   -1.01548500   -2.37992172
     atom   29 type  2   force =    -0.56891519   -0.17110454   -2.41993407
     atom   30 type  2   force =     0.74205286   -0.56426167   -2.31969428
     atom   31 type  2   force =    -0.00589767   -0.98572926   -2.27294190
     atom   32 type  2   force =     0.25761007    0.36018132   -2.49905949
     atom   33 type  2   force =     0.09127413    0.11821673    1.38973266
     atom   34 type  2   force =    -0.18886524    0.30427530    1.36007876
     atom   35 type  2   force =    -0.03487326    0.17795219    1.36907745
     atom   36 type  2   force =     0.10917434    0.25653045    1.38777159
     atom   37 type  2   force =     0.00558348    0.02186438    1.39266798
     atom   38 type  2   force =     0.01879248    0.34016432    1.37991816
     atom   39 type  2   force =     0.75544401   -0.45814365   -2.27486816
     atom   40 type  2   force =    -0.63040966   -0.17986263   -2.43311972
     atom   41 type  2   force =    -0.06564893    0.25819257    1.39546294
     atom   42 type  2   force =    -0.14886427    0.06883257    1.41876938
     The local contribution  to forces
     atom    1 type  1   force =    -0.04014673    0.24782045    1.54010523
     atom    2 type  1   force =     0.38893833   -1.12206612   -8.23987129
     atom    3 type  1   force =    -0.26888285    0.87360642    6.37365244
     atom    4 type  1   force =    -0.03585211    0.19974918    1.59493340
     atom    5 type  1   force =     0.30711471   -1.13018970   -7.95187105
     atom    6 type  1   force =    -0.25028971    0.91067089    6.36489639
     atom    7 type  1   force =    -0.11844096    0.25587239    1.51625932
     atom    8 type  1   force =     0.26799410   -1.12347968   -8.45332922
     atom    9 type  1   force =    -0.28055187    0.86317612    6.33119281
     atom   10 type  1   force =    -0.09142862    0.16311398    1.54675063
     atom   11 type  1   force =     0.36312347   -1.10968976   -8.37523852
     atom   12 type  1   force =    -0.25171452    0.90427855    6.32148255
     atom   13 type  1   force =    -0.04321539    0.19590702    1.41359942
     atom   14 type  1   force =     0.27723661   -1.13168914   -7.91074559
     atom   15 type  1   force =    -0.22935107    0.91469606    6.29863355
     atom   16 type  1   force =    -0.04646637    0.27025696    1.58673273
     atom   17 type  1   force =     0.31295759   -1.22688479   -8.49637302
     atom   18 type  1   force =    -0.21483906    0.85185084    6.35931971
     atom   19 type  1   force =    -0.07636353    0.18033614    1.53923568
     atom   20 type  1   force =     0.36880460   -1.23904922   -8.35200739
     atom   21 type  1   force =    -0.27803359    0.92838978    6.31303414
     atom   22 type  1   force =    -0.04534531    0.20798623    1.49915374
     atom   23 type  1   force =     0.38219681   -1.20628816   -8.35880255
     atom   24 type  1   force =    -0.24996806    0.86893795    6.32273063
     atom   25 type  2   force =     0.82867881   -0.38894926   -1.91836211
     atom   26 type  2   force =    -0.46231018   -0.17145692   -2.00555985
     atom   27 type  2   force =    -0.25469153   -0.27217594    2.55398924
     atom   28 type  2   force =     0.03893534    0.96072057    2.38216867
     atom   29 type  2   force =     0.51459743    0.18709073    2.41267596
     atom   30 type  2   force =    -0.68816220    0.54775594    2.31957347
     atom   31 type  2   force =    -0.00431089    0.92983455    2.27863110
     atom   32 type  2   force =    -0.24724753   -0.30491720    2.48583431
     atom   33 type  2   force =    -0.06993262   -0.13211099   -1.39211367
     atom   34 type  2   force =     0.16859396   -0.29154295   -1.35979654
     atom   35 type  2   force =     0.03452378   -0.17888377   -1.36410894
     atom   36 type  2   force =    -0.08906789   -0.24473354   -1.38936546
     atom   37 type  2   force =    -0.00451265   -0.04524410   -1.39199725
     atom   38 type  2   force =    -0.01760373   -0.31931034   -1.38230781
     atom   39 type  2   force =    -0.69962418    0.44668871    2.27823130
     atom   40 type  2   force =     0.57460537    0.19068333    2.42413545
     atom   41 type  2   force =     0.06335520   -0.25480186   -1.39071641
     atom   42 type  2   force =     0.13298042   -0.08041776   -1.41900380
     The core correction contribution to forces
     atom    1 type  1   force =     0.00003225   -0.00001420   -0.00090746
     atom    2 type  1   force =     0.00020739    0.00051327    0.00059858
     atom    3 type  1   force =    -0.00024781    0.00026475    0.00269896
     atom    4 type  1   force =     0.00023931   -0.00023837   -0.00107325
     atom    5 type  1   force =     0.00001902    0.00009892    0.00177859
     atom    6 type  1   force =    -0.00000920    0.00016721    0.00268889
     atom    7 type  1   force =    -0.00029020    0.00011102   -0.00089690
     atom    8 type  1   force =    -0.00045038    0.00036870    0.00016774
     atom    9 type  1   force =    -0.00036002    0.00055371    0.00259278
     atom   10 type  1   force =    -0.00016723   -0.00059068   -0.00112910
     atom   11 type  1   force =     0.00009599    0.00044116    0.00079371
     atom   12 type  1   force =    -0.00010929    0.00040083    0.00240406
     atom   13 type  1   force =     0.00018358   -0.00015319   -0.00124437
     atom   14 type  1   force =    -0.00015696   -0.00002334    0.00160933
     atom   15 type  1   force =    -0.00025041    0.00045739    0.00241371
     atom   16 type  1   force =     0.00026061    0.00012154   -0.00117327
     atom   17 type  1   force =    -0.00002891   -0.00007603    0.00065588
     atom   18 type  1   force =    -0.00008312    0.00023463    0.00258513
     atom   19 type  1   force =    -0.00009207   -0.00014859   -0.00085950
     atom   20 type  1   force =    -0.00002928   -0.00017567    0.00059248
     atom   21 type  1   force =    -0.00000629    0.00042606    0.00238493
     atom   22 type  1   force =     0.00015603   -0.00029455   -0.00137516
     atom   23 type  1   force =     0.00011169   -0.00019062    0.00073456
     atom   24 type  1   force =     0.00029356    0.00034165    0.00249803
     atom   25 type  2   force =     0.00000000    0.00000000    0.00000000
     atom   26 type  2   force =     0.00000000    0.00000000    0.00000000
     atom   27 type  2   force =     0.00000000    0.00000000    0.00000000
     atom   28 type  2   force =     0.00000000    0.00000000    0.00000000
     atom   29 type  2   force =     0.00000000    0.00000000    0.00000000
     atom   30 type  2   force =     0.00000000    0.00000000    0.00000000
     atom   31 type  2   force =     0.00000000    0.00000000    0.00000000
     atom   32 type  2   force =     0.00000000    0.00000000    0.00000000
     atom   33 type  2   force =     0.00000000    0.00000000    0.00000000
     atom   34 type  2   force =     0.00000000    0.00000000    0.00000000
     atom   35 type  2   force =     0.00000000    0.00000000    0.00000000
     atom   36 type  2   force =     0.00000000    0.00000000    0.00000000
     atom   37 type  2   force =     0.00000000    0.00000000    0.00000000
     atom   38 type  2   force =     0.00000000    0.00000000    0.00000000
     atom   39 type  2   force =     0.00000000    0.00000000    0.00000000
     atom   40 type  2   force =     0.00000000    0.00000000    0.00000000
     atom   41 type  2   force =     0.00000000    0.00000000    0.00000000
     atom   42 type  2   force =     0.00000000    0.00000000    0.00000000
     The Hubbard contrib.    to forces
     atom    1 type  1   force =     0.00000000    0.00000000    0.00000000
     atom    2 type  1   force =     0.00000000    0.00000000    0.00000000
     atom    3 type  1   force =     0.00000000    0.00000000    0.00000000
     atom    4 type  1   force =     0.00000000    0.00000000    0.00000000
     atom    5 type  1   force =     0.00000000    0.00000000    0.00000000
     atom    6 type  1   force =     0.00000000    0.00000000    0.00000000
     atom    7 type  1   force =     0.00000000    0.00000000    0.00000000
     atom    8 type  1   force =     0.00000000    0.00000000    0.00000000
     atom    9 type  1   force =     0.00000000    0.00000000    0.00000000
     atom   10 type  1   force =     0.00000000    0.00000000    0.00000000
     atom   11 type  1   force =     0.00000000    0.00000000    0.00000000
     atom   12 type  1   force =     0.00000000    0.00000000    0.00000000
     atom   13 type  1   force =     0.00000000    0.00000000    0.00000000
     atom   14 type  1   force =     0.00000000    0.00000000    0.00000000
     atom   15 type  1   force =     0.00000000    0.00000000    0.00000000
     atom   16 type  1   force =     0.00000000    0.00000000    0.00000000
     atom   17 type  1   force =     0.00000000    0.00000000    0.00000000
     atom   18 type  1   force =     0.00000000    0.00000000    0.00000000
     atom   19 type  1   force =     0.00000000    0.00000000    0.00000000
     atom   20 type  1   force =     0.00000000    0.00000000    0.00000000
     atom   21 type  1   force =     0.00000000    0.00000000    0.00000000
     atom   22 type  1   force =     0.00000000    0.00000000    0.00000000
     atom   23 type  1   force =     0.00000000    0.00000000    0.00000000
     atom   24 type  1   force =     0.00000000    0.00000000    0.00000000
     atom   25 type  2   force =     0.00000000    0.00000000    0.00000000
     atom   26 type  2   force =     0.00000000    0.00000000    0.00000000
     atom   27 type  2   force =     0.00000000    0.00000000    0.00000000
     atom   28 type  2   force =     0.00000000    0.00000000    0.00000000
     atom   29 type  2   force =     0.00000000    0.00000000    0.00000000
     atom   30 type  2   force =     0.00000000    0.00000000    0.00000000
     atom   31 type  2   force =     0.00000000    0.00000000    0.00000000
     atom   32 type  2   force =     0.00000000    0.00000000    0.00000000
     atom   33 type  2   force =     0.00000000    0.00000000    0.00000000
     atom   34 type  2   force =     0.00000000    0.00000000    0.00000000
     atom   35 type  2   force =     0.00000000    0.00000000    0.00000000
     atom   36 type  2   force =     0.00000000    0.00000000    0.00000000
     atom   37 type  2   force =     0.00000000    0.00000000    0.00000000
     atom   38 type  2   force =     0.00000000    0.00000000    0.00000000
     atom   39 type  2   force =     0.00000000    0.00000000    0.00000000
     atom   40 type  2   force =     0.00000000    0.00000000    0.00000000
     atom   41 type  2   force =     0.00000000    0.00000000    0.00000000
     atom   42 type  2   force =     0.00000000    0.00000000    0.00000000
     The SCF correction term to forces
     atom    1 type  1   force =     0.00004332   -0.00005341   -0.00046195
     atom    2 type  1   force =    -0.00003978   -0.00005757   -0.00006916
     atom    3 type  1   force =     0.00002491   -0.00005951   -0.00039699
     atom    4 type  1   force =     0.00003504   -0.00006750   -0.00047671
     atom    5 type  1   force =    -0.00000390   -0.00004183   -0.00009684
     atom    6 type  1   force =     0.00004256   -0.00006354   -0.00038871
     atom    7 type  1   force =    -0.00000507   -0.00006666   -0.00046295
     atom    8 type  1   force =     0.00005279   -0.00005208   -0.00003683
     atom    9 type  1   force =     0.00000378   -0.00005107   -0.00039381
     atom   10 type  1   force =     0.00000717   -0.00006117   -0.00047684
     atom   11 type  1   force =     0.00000099   -0.00006677   -0.00005853
     atom   12 type  1   force =    -0.00001277   -0.00005972   -0.00038113
     atom   13 type  1   force =     0.00002315   -0.00005187   -0.00048624
     atom   14 type  1   force =     0.00000808    0.00000278   -0.00011319
     atom   15 type  1   force =     0.00000662   -0.00004362   -0.00038438
     atom   16 type  1   force =     0.00001441   -0.00006842   -0.00045842
     atom   17 type  1   force =     0.00002328    0.00003861   -0.00006532
     atom   18 type  1   force =     0.00001809   -0.00003551   -0.00039815
     atom   19 type  1   force =     0.00000926   -0.00008443   -0.00047675
     atom   20 type  1   force =     0.00001406    0.00006378   -0.00007975
     atom   21 type  1   force =     0.00002563   -0.00006412   -0.00039453
     atom   22 type  1   force =     0.00002115   -0.00007479   -0.00043998
     atom   23 type  1   force =    -0.00003404    0.00003851   -0.00007798
     atom   24 type  1   force =     0.00001660   -0.00006329   -0.00040912
     atom   25 type  2   force =    -0.00001565    0.00002518    0.00015955
     atom   26 type  2   force =    -0.00000953    0.00002495    0.00016539
     atom   27 type  2   force =    -0.00000126    0.00002122    0.00010931
     atom   28 type  2   force =    -0.00000183    0.00001015    0.00010869
     atom   29 type  2   force =    -0.00001457    0.00001644    0.00011632
     atom   30 type  2   force =    -0.00000058    0.00001270    0.00011664
     atom   31 type  2   force =    -0.00000503    0.00001186    0.00011844
     atom   32 type  2   force =    -0.00000083    0.00002667    0.00011754
     atom   33 type  2   force =    -0.00000511    0.00002112    0.00017410
     atom   34 type  2   force =    -0.00001171    0.00002691    0.00017483
     atom   35 type  2   force =    -0.00000673    0.00002591    0.00017531
     atom   36 type  2   force =    -0.00000287    0.00002471    0.00017463
     atom   37 type  2   force =    -0.00000583    0.00002284    0.00017232
     atom   38 type  2   force =    -0.00000490    0.00002565    0.00017228
     atom   39 type  2   force =     0.00000308    0.00001288    0.00011574
     atom   40 type  2   force =    -0.00001657    0.00001787    0.00011469
     atom   41 type  2   force =    -0.00000545    0.00002094    0.00017470
     atom   42 type  2   force =    -0.00000732    0.00001938    0.00017503

     Total force =     0.008791     Total SCF correction =     0.001882
     SCF correction compared to forces is large: reduce conv_thr to get better values


     Computing stress (Cartesian axis) and pressure

          total   stress  (Ry/bohr**3)                   (kbar)     P=       -0.67
   0.00000501  -0.00000106  -0.00001059            0.74       -0.16       -1.56
  -0.00000106   0.00000083  -0.00000207           -0.16        0.12       -0.30
  -0.00001059  -0.00000207  -0.00001954           -1.56       -0.30       -2.87


     BFGS Geometry Optimization
     Energy error            =      0.0E+00 Ry
     Gradient error          =      3.1E-03 Ry/Bohr
     Cell gradient error     =      2.9E+00 kbar

     number of scf cycles    =   1
     number of bfgs steps    =   0

     enthalpy           new  =    -306.0858032063 Ry

     new trust radius        =       0.0045659698 bohr
     new conv_thr            =       0.0000010000 Ry

     new unit-cell volume =   1673.29443 a.u.^3 (   247.95665 Ang^3 )
     density =      2.05196 g/cm^3

CELL_PARAMETERS (alat=  8.00000437)
   1.177598402   0.009435282   0.045537125
  -0.591464749   1.005585805  -0.164673591
   0.164650639  -0.429226508   2.813699201

ATOMIC_POSITIONS (crystal)
C            -0.0869138825       -0.0665709728        0.1629468827
C            -0.0494643329        0.1026064493        0.3760437076
C             0.0553749165        0.0478605091        0.9129917292
C             0.0797613615        0.2659424747        0.1621596903
C             0.2831590998        0.2673935616        0.3744842658
C             0.2219636060        0.3808090313        0.9126098627
C             0.4126972615       -0.0663443186        0.1631232176
C             0.4498647523        0.1032174575        0.3772809406
C             0.5554732414        0.0456469071        0.9131121196
C             0.5789637370        0.2660360772        0.1627431942
C             0.7835556883        0.2697828490        0.3770434453
C             0.7221659170        0.3791792259        0.9135458491
C            -0.0865978169        0.4347123646        0.1647887505
C            -0.0508445867        0.5996166703        0.3733047418
C             0.0554645798        0.5484351601        0.9134079014
C             0.0798859072        0.7664772948        0.1621058176
C             0.2833344727        0.7703501911        0.3784295426
C             0.2219429126        0.8811290065        0.9128618248
C             0.4127421941        0.4332925545        0.1631029429
C             0.4498879958        0.6024347964        0.3769608876
C             0.5558044563        0.5457964117        0.9134635441
C             0.5795610600        0.7662471728        0.1623293582
C             0.7835307762        0.7699263473        0.3778615804
C             0.7225432419        0.8787400495        0.9130686085
H             0.5980465571        1.0945475471        0.5489380996
H             0.7338882211        1.0748773420        0.5625871910
H             0.4278784545        0.6891676806        0.7682873046
H             0.3007559265        0.5100925603        0.7679306496
H             0.7975689292        0.6145740672        0.7619348582
H             0.9219318930        0.5590151067        0.7603148113
H             0.3065782387        0.0058333421        0.7621640715
H             0.4247294789        0.1831778984        0.7588440485
H             0.1692071265        0.5547627267        0.5771437693
H             0.0770604163        0.6610420730        0.5832613633
H             0.9637017717        0.7855911898        0.5863944142
H             0.7231483460        0.6550977380        0.5796836840
H             0.0762101814        0.0141065440        0.5790641542
H             0.1779472927        0.2128606328        0.5814634809
H             0.9271280521        1.0756512248        0.7623997944
H             0.7903646248        1.1111699585        0.7596185081
H             0.2951007223        0.4479006292        0.5834904270
H             0.5273628699        0.5506399598        0.5787123865



     Writing config-only to output data dir ../../results/server/9h2_abs/9H2abs_C.save/
     NEW-OLD atomic charge density approx. for the potential

     Check: negative core charge=   -0.000002
     extrapolated charge  113.96095, renormalised to  114.00000

     total cpu time spent up to now is        2.9 secs

     Self-consistent Calculation

     iteration #  1     ecut=    40.00 Ry     beta= 0.05
     Davidson diagonalization with overlap
     ethr =  1.00E-06,  avg # of iterations =  3.0

     total cpu time spent up to now is        3.1 secs

     total energy              =    -306.08581923 Ry
     estimated scf accuracy    <       0.00015703 Ry

     iteration #  2     ecut=    40.00 Ry     beta= 0.05
     Davidson diagonalization with overlap
     ethr =  1.38E-07,  avg # of iterations =  4.0

     total cpu time spent up to now is        3.2 secs

     total energy              =    -306.08588552 Ry
     estimated scf accuracy    <       0.00001194 Ry

     iteration #  3     ecut=    40.00 Ry     beta= 0.05
     Davidson diagonalization with overlap
     ethr =  1.05E-08,  avg # of iterations =  4.0

     total cpu time spent up to now is        3.3 secs

     total energy              =    -306.08589120 Ry
     estimated scf accuracy    <       0.00001404 Ry

     iteration #  4     ecut=    40.00 Ry     beta= 0.05
     Davidson diagonalization with overlap
     ethr =  1.05E-08,  avg # of iterations =  1.0

     total cpu time spent up to now is        3.3 secs

     total energy              =    -306.08588525 Ry
     estimated scf accuracy    <       0.00001658 Ry

     iteration #  5     ecut=    40.00 Ry     beta= 0.05
     Davidson diagonalization with overlap
     ethr =  1.05E-08,  avg # of iterations =  2.0

     total cpu time spent up to now is        3.4 secs

     total energy              =    -306.08588659 Ry
     estimated scf accuracy    <       0.00000242 Ry

     iteration #  6     ecut=    40.00 Ry     beta= 0.05
     Davidson diagonalization with overlap
     ethr =  2.12E-09,  avg # of iterations =  2.0

     total cpu time spent up to now is        3.5 secs

     total energy              =    -306.08588670 Ry
     estimated scf accuracy    <       0.00000226 Ry

     iteration #  7     ecut=    40.00 Ry     beta= 0.05
     Davidson diagonalization with overlap
     ethr =  1.98E-09,  avg # of iterations =  1.0

     total cpu time spent up to now is        3.5 secs

     total energy              =    -306.08588637 Ry
     estimated scf accuracy    <       0.00000213 Ry

     iteration #  8     ecut=    40.00 Ry     beta= 0.05
     Davidson diagonalization with overlap
     ethr =  1.87E-09,  avg # of iterations =  2.0

     total cpu time spent up to now is        3.6 secs

     End of self-consistent calculation

          k = 0.0000 0.0000 0.0000 (  7163 PWs)   bands (ev):

   -13.2271 -12.8172 -11.9700  -7.8055  -7.7940  -7.7847  -7.6042  -7.5984
    -7.5769  -7.3136  -7.3041  -7.2889  -6.7433  -6.7085  -6.6996  -6.4154
    -6.4097  -6.3996  -6.1521  -6.1347  -6.1267  -5.2904  -3.8333  -1.9773
     0.0781   0.0851   0.0895   0.1708   0.1731   0.1755   0.2532   0.4159
     0.4725   0.4913   0.5014   1.0625   1.2636   1.3748   1.7816   1.8954
     1.9641   2.7143   2.9923   3.0850   3.1744   3.3474   3.4519   3.4613
     3.4812   3.5130   3.5299   3.5597   3.6742   3.6806   4.6544   4.6992
     4.9114   7.9558   8.1719   8.2608   8.7949   8.8845   8.9813   9.0168
     9.0878   9.2222  10.8905  11.6779

     the Fermi energy is     6.1319 ev

!    total energy              =    -306.08588581 Ry
     estimated scf accuracy    <       0.00000076 Ry
     smearing contrib. (-TS)   =      -0.00000000 Ry
     internal energy E=F+TS    =    -306.08588581 Ry

     The total energy is F=E-TS. E is the sum of the following terms:
     one-electron contribution =    -214.03398045 Ry
     hartree contribution      =     163.69422883 Ry
     xc contribution           =    -112.09223787 Ry
     ewald contribution        =    -143.65389632 Ry

     convergence has been achieved in   8 iterations

     Forces acting on atoms (cartesian axes, Ry/au):

     atom    1 type  1   force =    -0.00033510    0.00052706    0.00024553
     atom    2 type  1   force =    -0.00094474    0.00093042   -0.00009115
     atom    3 type  1   force =    -0.00146431   -0.00059275   -0.00025229
     atom    4 type  1   force =     0.00014479   -0.00126283   -0.00050474
     atom    5 type  1   force =     0.00079926   -0.00144916   -0.00202119
     atom    6 type  1   force =     0.00052732    0.00092591    0.00052429
     atom    7 type  1   force =    -0.00007522    0.00049135   -0.00104289
     atom    8 type  1   force =    -0.00091657    0.00160752    0.00084257
     atom    9 type  1   force =    -0.00157528   -0.00039487    0.00034415
     atom   10 type  1   force =     0.00042619   -0.00141983   -0.00088384
     atom   11 type  1   force =     0.00071248   -0.00007071    0.00109544
     atom   12 type  1   force =     0.00071019    0.00086323   -0.00011285
     atom   13 type  1   force =    -0.00004732    0.00049700   -0.00071924
     atom   14 type  1   force =    -0.00050310    0.00115442    0.00050634
     atom   15 type  1   force =    -0.00147972   -0.00032434    0.00071685
     atom   16 type  1   force =     0.00036757   -0.00064243    0.00042302
     atom   17 type  1   force =     0.00091998    0.00010087    0.00137529
     atom   18 type  1   force =     0.00060581    0.00085883    0.00058584
     atom   19 type  1   force =    -0.00012582    0.00089845    0.00036689
     atom   20 type  1   force =    -0.00066920    0.00042949   -0.00187475
     atom   21 type  1   force =    -0.00149896   -0.00037477    0.00116534
     atom   22 type  1   force =     0.00012533   -0.00098882    0.00050058
     atom   23 type  1   force =     0.00062125   -0.00040375    0.00041162
     atom   24 type  1   force =     0.00035742    0.00083792    0.00058647
     atom   25 type  2   force =     0.00016390   -0.00040251    0.00043804
     atom   26 type  2   force =     0.00018108   -0.00049568    0.00057107
     atom   27 type  2   force =    -0.00033787   -0.00026951   -0.00152307
     atom   28 type  2   force =    -0.00024335   -0.00017003   -0.00106447
     atom   29 type  2   force =    -0.00038258    0.00000990   -0.00122307
     atom   30 type  2   force =    -0.00049130    0.00024346   -0.00024610
     atom   31 type  2   force =     0.00002020   -0.00002594   -0.00160185
     atom   32 type  2   force =    -0.00037650    0.00027056   -0.00015023
     atom   33 type  2   force =     0.00099021    0.00013869   -0.00012272
     atom   34 type  2   force =     0.00020906    0.00025915   -0.00045449
     atom   35 type  2   force =     0.00082279   -0.00098660    0.00111902
     atom   36 type  2   force =     0.00048441   -0.00066730   -0.00004913
     atom   37 type  2   force =     0.00180124   -0.00089938    0.00058170
     atom   38 type  2   force =     0.00045117   -0.00059549   -0.00078650
     atom   39 type  2   force =    -0.00014656   -0.00013226    0.00013360
     atom   40 type  2   force =    -0.00008463    0.00030058    0.00001717
     atom   41 type  2   force =    -0.00044388    0.00022447    0.00198898
     atom   42 type  2   force =     0.00070034    0.00099970    0.00018481
     The non-local contrib.  to forces
     atom    1 type  1   force =     0.00038557    0.00491801    0.04136792
     atom    2 type  1   force =    -0.00648118   -0.01817890   -0.03437368
     atom    3 type  1   force =     0.00791239   -0.01809166   -0.13362674
     atom    4 type  1   force =    -0.00898427    0.01160730    0.07328583
     atom    5 type  1   force =    -0.00006729   -0.00681690   -0.05578712
     atom    6 type  1   force =     0.00310075   -0.00834549   -0.12572734
     atom    7 type  1   force =     0.00521320    0.00168488    0.03832325
     atom    8 type  1   force =     0.01304926   -0.01456960   -0.02385804
     atom    9 type  1   force =     0.01002540   -0.02427551   -0.13027366
     atom   10 type  1   force =     0.00327831    0.02023885    0.06919798
     atom   11 type  1   force =     0.00000275   -0.01790942   -0.06643379
     atom   12 type  1   force =     0.00533537   -0.01626241   -0.12111092
     atom   13 type  1   force =    -0.00421259    0.00514817    0.03770801
     atom   14 type  1   force =     0.00129341    0.00389705   -0.03039320
     atom   15 type  1   force =     0.01053584   -0.02413494   -0.12425017
     atom   16 type  1   force =    -0.00916609    0.00203380    0.07798817
     atom   17 type  1   force =     0.00622441   -0.00339585   -0.06973495
     atom   18 type  1   force =     0.00900717   -0.01395496   -0.12286031
     atom   19 type  1   force =     0.00204512    0.00541640    0.04033076
     atom   20 type  1   force =     0.00130319    0.00655401   -0.04203451
     atom   21 type  1   force =    -0.00055771   -0.01866623   -0.12294726
     atom   22 type  1   force =    -0.00474391    0.01148896    0.07948493
     atom   23 type  1   force =    -0.00054651   -0.00311237   -0.07111735
     atom   24 type  1   force =    -0.00853066   -0.01561276   -0.12236420
     atom   25 type  2   force =     0.06017533   -0.00858763    0.01526413
     atom   26 type  2   force =    -0.05967544    0.00829545   -0.01723756
     atom   27 type  2   force =    -0.01335676   -0.05348159    0.01023565
     atom   28 type  2   force =     0.01293437    0.05446870   -0.00346560
     atom   29 type  2   force =     0.05409488   -0.01601453    0.00597019
     atom   30 type  2   force =    -0.05438662    0.01679339   -0.00022711
     atom   31 type  2   force =     0.01025470    0.05569606   -0.00730635
     atom   32 type  2   force =    -0.01062257   -0.05488299    0.01292889
     atom   33 type  2   force =    -0.02001627    0.01378198    0.00207930
     atom   34 type  2   force =     0.02007211   -0.01227721   -0.00097575
     atom   35 type  2   force =     0.00103675   -0.00025169   -0.00404475
     atom   36 type  2   force =    -0.02071166   -0.01314233    0.00139712
     atom   37 type  2   force =     0.00066812    0.02215900   -0.00031495
     atom   38 type  2   force =    -0.00074847   -0.02134655    0.00146160
     atom   39 type  2   force =    -0.05579815    0.01132004   -0.00327526
     atom   40 type  2   force =     0.05570088   -0.01056323    0.00891892
     atom   41 type  2   force =     0.00156388   -0.00316393   -0.00287689
     atom   42 type  2   force =     0.01823201    0.01353228    0.00015770
     The ionic contribution  to forces
     atom    1 type  1   force =     0.03723998   -0.25061652   -1.57788196
     atom    2 type  1   force =    -0.38262213    1.14547276    8.27583258
     atom    3 type  1   force =     0.25529943   -0.86076969   -6.24960354
     atom    4 type  1   force =     0.04153303   -0.21452500   -1.66844192
     atom    5 type  1   force =    -0.29965165    1.12544706    7.99512716
     atom    6 type  1   force =     0.25025984   -0.89705796   -6.24232252
     atom    7 type  1   force =     0.11294436   -0.25549398   -1.55689645
     atom    8 type  1   force =    -0.28596025    1.14538133    8.48160649
     atom    9 type  1   force =     0.26280816   -0.84368317   -6.20656106
     atom   10 type  1   force =     0.09063813   -0.18671436   -1.61605225
     atom   11 type  1   force =    -0.35679473    1.12887327    8.44221491
     atom   12 type  1   force =     0.25048083   -0.88464285   -6.20806070
     atom   13 type  1   force =     0.04671762   -0.19902600   -1.44989742
     atom   14 type  1   force =    -0.27866278    1.12664837    7.93824657
     atom   15 type  1   force =     0.21193066   -0.89448661   -6.17665056
     atom   16 type  1   force =     0.05614488   -0.27421055   -1.65622033
     atom   17 type  1   force =    -0.31080551    1.22793299    8.57305995
     atom   18 type  1   force =     0.20961594   -0.83398805   -6.23790362
     atom   19 type  1   force =     0.07431035   -0.17796797   -1.57480073
     atom   20 type  1   force =    -0.37098777    1.23719548    8.38350464
     atom   21 type  1   force =     0.27057417   -0.91288240   -6.18947676
     atom   22 type  1   force =     0.04974030   -0.22315021   -1.57054521
     atom   23 type  1   force =    -0.37793997    1.20525816    8.43267186
     atom   24 type  1   force =     0.25979740   -0.85093033   -6.20227475
     atom   25 type  2   force =    -0.88742856    0.39704253    1.90353617
     atom   26 type  2   force =     0.52272486    0.16252671    2.02230994
     atom   27 type  2   force =     0.26673579    0.32570026   -2.56340755
     atom   28 type  2   force =    -0.05300499   -1.01490843   -2.37729363
     atom   29 type  2   force =    -0.57000088   -0.17112537   -2.41799265
     atom   30 type  2   force =     0.74151775   -0.56425994   -2.31844308
     atom   31 type  2   force =    -0.00630205   -0.98512295   -2.27133149
     atom   32 type  2   force =     0.25660364    0.36032260   -2.49728579
     atom   33 type  2   force =     0.09050724    0.11915945    1.38889189
     atom   34 type  2   force =    -0.18612417    0.30279990    1.36004015
     atom   35 type  2   force =    -0.03588421    0.17790815    1.36875688
     atom   36 type  2   force =     0.11300823    0.25823533    1.38712557
     atom   37 type  2   force =     0.00664668    0.02314176    1.39253953
     atom   38 type  2   force =     0.01882015    0.34003079    1.37896469
     atom   39 type  2   force =     0.75397907   -0.45794222   -2.27481988
     atom   40 type  2   force =    -0.63083252   -0.17943941   -2.43229869
     atom   41 type  2   force =    -0.06318881    0.25794563    1.39411195
     atom   42 type  2   force =    -0.15438750    0.06592143    1.41792160
     The local contribution  to forces
     atom    1 type  1   force =    -0.03795396    0.24615746    1.53714508
     atom    2 type  1   force =     0.38798090   -1.12679189   -8.24194774
     atom    3 type  1   force =    -0.26447683    0.87787210    6.37988381
     atom    4 type  1   force =    -0.03266954    0.20175518    1.59523390
     atom    5 type  1   force =     0.30055449   -1.12022174   -7.94301356
     atom    6 type  1   force =    -0.25272138    0.90616506    6.36547878
     atom    7 type  1   force =    -0.11797728    0.25407418    1.51793251
     atom    8 type  1   force =     0.27227297   -1.12951886   -8.45688853
     atom    9 type  1   force =    -0.27409136    0.86686624    6.33417188
     atom   10 type  1   force =    -0.09326788    0.16553262    1.54660444
     atom   11 type  1   force =     0.35746408   -1.11140875   -8.37527743
     atom   12 type  1   force =    -0.25490308    0.90136757    6.32624090
     atom   13 type  1   force =    -0.04267791    0.19457258    1.41220644
     atom   14 type  1   force =     0.27698827   -1.12931322   -7.90876598
     atom   15 type  1   force =    -0.22373347    0.91774325    6.29880626
     atom   16 type  1   force =    -0.04685640    0.27132042    1.57933690
     atom   17 type  1   force =     0.30563549   -1.22441544   -8.50237958
     atom   18 type  1   force =    -0.21784706    0.84856672    6.35835116
     atom   19 type  1   force =    -0.07639912    0.17367800    1.53519818
     atom   20 type  1   force =     0.36897625   -1.24303842   -8.34379361
     atom   21 type  1   force =    -0.27157726    0.93067595    6.31079198
     atom   22 type  1   force =    -0.04496993    0.21084555    1.49244995
     atom   23 type  1   force =     0.37896624   -1.20243209   -8.36165110
     atom   24 type  1   force =    -0.25110840    0.86700979    6.32231240
     atom   25 type  2   force =     0.82741552   -0.38884563   -1.91821178
     atom   26 type  2   force =    -0.46286562   -0.17129996   -2.00435088
     atom   27 type  2   force =    -0.25372053   -0.27247435    2.55175320
     atom   28 type  2   force =     0.03982598    0.96028789    2.37979678
     atom   29 type  2   force =     0.51552274    0.18716494    2.41090801
     atom   30 type  2   force =    -0.68762720    0.54772679    2.31852769
     atom   31 type  2   force =    -0.00393528    0.92941464    2.27714093
     atom   32 type  2   force =    -0.24636361   -0.30515604    2.48431419
     atom   33 type  2   force =    -0.06949456   -0.13278723   -1.39094800
     atom   34 type  2   force =     0.16627092   -0.29024863   -1.35936912
     atom   35 type  2   force =     0.03566540   -0.17861680   -1.36344431
     atom   36 type  2   force =    -0.09182422   -0.24573540   -1.38842138
     atom   37 type  2   force =    -0.00552455   -0.04616607   -1.39149802
     atom   38 type  2   force =    -0.01763212   -0.31924926   -1.38106971
     atom   39 type  2   force =    -0.69833269    0.44650329    2.27832987
     atom   40 type  2   force =     0.57504710    0.19031597    2.42349898
     atom   41 type  2   force =     0.06116368   -0.25454119   -1.38910573
     atom   42 type  2   force =     0.13683675   -0.07843456   -1.41774773
     The core correction contribution to forces
     atom    1 type  1   force =     0.00004058   -0.00004084   -0.00089959
     atom    2 type  1   force =     0.00022808    0.00046230    0.00059995
     atom    3 type  1   force =    -0.00020503    0.00030420    0.00269745
     atom    4 type  1   force =     0.00025320   -0.00020425   -0.00107613
     atom    5 type  1   force =    -0.00002834    0.00019017    0.00175187
     atom    6 type  1   force =    -0.00006202    0.00011905    0.00269459
     atom    7 type  1   force =    -0.00027970    0.00007723   -0.00088621
     atom    8 type  1   force =    -0.00037633    0.00031588    0.00017208
     atom    9 type  1   force =    -0.00030353    0.00059313    0.00258936
     atom   10 type  1   force =    -0.00017911   -0.00055323   -0.00113902
     atom   11 type  1   force =     0.00005155    0.00043802    0.00080515
     atom   12 type  1   force =    -0.00017144    0.00036385    0.00241242
     atom   13 type  1   force =     0.00018687   -0.00017488   -0.00124528
     atom   14 type  1   force =    -0.00012263   -0.00000720    0.00161788
     atom   15 type  1   force =    -0.00019758    0.00049876    0.00240960
     atom   16 type  1   force =     0.00024823    0.00014306   -0.00117999
     atom   17 type  1   force =    -0.00008836   -0.00003728    0.00065329
     atom   18 type  1   force =    -0.00014232    0.00019754    0.00258624
     atom   19 type  1   force =    -0.00009822   -0.00021255   -0.00085741
     atom   20 type  1   force =     0.00000951   -0.00024665    0.00060854
     atom   21 type  1   force =     0.00005096    0.00045919    0.00237984
     atom   22 type  1   force =     0.00014732   -0.00024130   -0.00138029
     atom   23 type  1   force =     0.00009593   -0.00015228    0.00072583
     atom   24 type  1   force =     0.00024916    0.00031352    0.00249889
     atom   25 type  2   force =     0.00000000    0.00000000    0.00000000
     atom   26 type  2   force =     0.00000000    0.00000000    0.00000000
     atom   27 type  2   force =     0.00000000    0.00000000    0.00000000
     atom   28 type  2   force =     0.00000000    0.00000000    0.00000000
     atom   29 type  2   force =     0.00000000    0.00000000    0.00000000
     atom   30 type  2   force =     0.00000000    0.00000000    0.00000000
     atom   31 type  2   force =     0.00000000    0.00000000    0.00000000
     atom   32 type  2   force =     0.00000000    0.00000000    0.00000000
     atom   33 type  2   force =     0.00000000    0.00000000    0.00000000
     atom   34 type  2   force =     0.00000000    0.00000000    0.00000000
     atom   35 type  2   force =     0.00000000    0.00000000    0.00000000
     atom   36 type  2   force =     0.00000000    0.00000000    0.00000000
     atom   37 type  2   force =     0.00000000    0.00000000    0.00000000
     atom   38 type  2   force =     0.00000000    0.00000000    0.00000000
     atom   39 type  2   force =     0.00000000    0.00000000    0.00000000
     atom   40 type  2   force =     0.00000000    0.00000000    0.00000000
     atom   41 type  2   force =     0.00000000    0.00000000    0.00000000
     atom   42 type  2   force =     0.00000000    0.00000000    0.00000000
     The Hubbard contrib.    to forces
     atom    1 type  1   force =     0.00000000    0.00000000    0.00000000
     atom    2 type  1   force =     0.00000000    0.00000000    0.00000000
     atom    3 type  1   force =     0.00000000    0.00000000    0.00000000
     atom    4 type  1   force =     0.00000000    0.00000000    0.00000000
     atom    5 type  1   force =     0.00000000    0.00000000    0.00000000
     atom    6 type  1   force =     0.00000000    0.00000000    0.00000000
     atom    7 type  1   force =     0.00000000    0.00000000    0.00000000
     atom    8 type  1   force =     0.00000000    0.00000000    0.00000000
     atom    9 type  1   force =     0.00000000    0.00000000    0.00000000
     atom   10 type  1   force =     0.00000000    0.00000000    0.00000000
     atom   11 type  1   force =     0.00000000    0.00000000    0.00000000
     atom   12 type  1   force =     0.00000000    0.00000000    0.00000000
     atom   13 type  1   force =     0.00000000    0.00000000    0.00000000
     atom   14 type  1   force =     0.00000000    0.00000000    0.00000000
     atom   15 type  1   force =     0.00000000    0.00000000    0.00000000
     atom   16 type  1   force =     0.00000000    0.00000000    0.00000000
     atom   17 type  1   force =     0.00000000    0.00000000    0.00000000
     atom   18 type  1   force =     0.00000000    0.00000000    0.00000000
     atom   19 type  1   force =     0.00000000    0.00000000    0.00000000
     atom   20 type  1   force =     0.00000000    0.00000000    0.00000000
     atom   21 type  1   force =     0.00000000    0.00000000    0.00000000
     atom   22 type  1   force =     0.00000000    0.00000000    0.00000000
     atom   23 type  1   force =     0.00000000    0.00000000    0.00000000
     atom   24 type  1   force =     0.00000000    0.00000000    0.00000000
     atom   25 type  2   force =     0.00000000    0.00000000    0.00000000
     atom   26 type  2   force =     0.00000000    0.00000000    0.00000000
     atom   27 type  2   force =     0.00000000    0.00000000    0.00000000
     atom   28 type  2   force =     0.00000000    0.00000000    0.00000000
     atom   29 type  2   force =     0.00000000    0.00000000    0.00000000
     atom   30 type  2   force =     0.00000000    0.00000000    0.00000000
     atom   31 type  2   force =     0.00000000    0.00000000    0.00000000
     atom   32 type  2   force =     0.00000000    0.00000000    0.00000000
     atom   33 type  2   force =     0.00000000    0.00000000    0.00000000
     atom   34 type  2   force =     0.00000000    0.00000000    0.00000000
     atom   35 type  2   force =     0.00000000    0.00000000    0.00000000
     atom   36 type  2   force =     0.00000000    0.00000000    0.00000000
     atom   37 type  2   force =     0.00000000    0.00000000    0.00000000
     atom   38 type  2   force =     0.00000000    0.00000000    0.00000000
     atom   39 type  2   force =     0.00000000    0.00000000    0.00000000
     atom   40 type  2   force =     0.00000000    0.00000000    0.00000000
     atom   41 type  2   force =     0.00000000    0.00000000    0.00000000
     atom   42 type  2   force =     0.00000000    0.00000000    0.00000000
     The SCF correction term to forces
     atom    1 type  1   force =    -0.00004640    0.00010897    0.00051366
     atom    2 type  1   force =    -0.00004955   -0.00003383   -0.00020268
     atom    3 type  1   force =     0.00000659    0.00009231    0.00039630
     atom    4 type  1   force =     0.00001323    0.00010396    0.00049316
     atom    5 type  1   force =    -0.00000709   -0.00004774   -0.00009995
     atom    6 type  1   force =    -0.00004902    0.00004527    0.00040037
     atom    7 type  1   force =     0.00002506    0.00014905    0.00048358
     atom    8 type  1   force =     0.00009862   -0.00000123   -0.00018985
     atom    9 type  1   force =    -0.00001310    0.00010446    0.00041722
     atom   10 type  1   force =    -0.00004241    0.00007631    0.00050458
     atom   11 type  1   force =    -0.00001031   -0.00006382   -0.00021383
     atom   12 type  1   force =    -0.00003065    0.00003708    0.00040503
     atom   13 type  1   force =    -0.00006046   -0.00002285    0.00050859
     atom   14 type  1   force =     0.00000149   -0.00007055   -0.00019935
     atom   15 type  1   force =    -0.00001431    0.00005522    0.00040129
     atom   16 type  1   force =    -0.00000219    0.00007086    0.00049786
     atom   17 type  1   force =    -0.00004519    0.00001647   -0.00022384
     atom   18 type  1   force =    -0.00002706    0.00003759    0.00041196
     atom   19 type  1   force =     0.00001691   -0.00001541    0.00049566
     atom   20 type  1   force =     0.00003049   -0.00003492   -0.00016022
     atom   21 type  1   force =     0.00001174    0.00003873    0.00041713
     atom   22 type  1   force =    -0.00004759    0.00006820    0.00049078
     atom   23 type  1   force =     0.00004641    0.00003484   -0.00021803
     atom   24 type  1   force =    -0.00004922    0.00005771    0.00041370
     atom   25 type  2   force =     0.00000247   -0.00001177   -0.00015089
     atom   26 type  2   force =    -0.00000186   -0.00001786   -0.00015084
     atom   27 type  2   force =     0.00000448   -0.00001381   -0.00010478
     atom   28 type  2   force =     0.00000215   -0.00001818   -0.00010244
     atom   29 type  2   force =     0.00000153   -0.00001513   -0.00010904
     atom   30 type  2   force =     0.00000562   -0.00001676   -0.00010401
     atom   31 type  2   force =     0.00000370   -0.00001367   -0.00010535
     atom   32 type  2   force =     0.00000689   -0.00001298   -0.00010794
     atom   33 type  2   force =    -0.00000534   -0.00001550   -0.00014633
     atom   34 type  2   force =    -0.00000894   -0.00001489   -0.00015019
     atom   35 type  2   force =     0.00000570   -0.00002624   -0.00014922
     atom   36 type  2   force =     0.00001291   -0.00002489   -0.00015086
     atom   37 type  2   force =     0.00001184   -0.00003405   -0.00014528
     atom   38 type  2   force =     0.00001246   -0.00003045   -0.00014350
     atom   39 type  2   force =     0.00000607   -0.00001335   -0.00010154
     atom   40 type  2   force =     0.00000076   -0.00001274   -0.00010246
     atom   41 type  2   force =     0.00001823   -0.00001603   -0.00014077
     atom   42 type  2   force =     0.00001993   -0.00001943   -0.00014719

     Total force =     0.008791     Total SCF correction =     0.002018
     SCF correction compared to forces is large: reduce conv_thr to get better values


     Computing stress (Cartesian axis) and pressure

          total   stress  (Ry/bohr**3)                   (kbar)     P=       -1.32
  -0.00000494  -0.00000196  -0.00000784           -0.73       -0.29       -1.15
  -0.00000196  -0.00000293  -0.00000183           -0.29       -0.43       -0.27
  -0.00000784  -0.00000183  -0.00001895           -1.15       -0.27       -2.79

     Energy error            =      8.3E-05 Ry
     Gradient error          =      2.0E-03 Ry/Bohr
     Cell gradient error     =      2.8E+00 kbar

     number of scf cycles    =   2
     number of bfgs steps    =   1

     enthalpy           old  =    -306.0858032063 Ry
     enthalpy           new  =    -306.0858858137 Ry

     CASE: enthalpy          _new < enthalpy          _old

     new trust radius        =       0.0050246039 bohr
     new conv_thr            =       0.0000000100 Ry

     new unit-cell volume =   1672.39108 a.u.^3 (   247.82279 Ang^3 )
     density =      2.05307 g/cm^3

CELL_PARAMETERS (alat=  8.00000437)
   1.177619346   0.009384973   0.045194100
  -0.591477849   1.005599481  -0.164480210
   0.163913990  -0.429382924   2.812134322

ATOMIC_POSITIONS (crystal)
C            -0.0869216466       -0.0665664303        0.1629684953
C            -0.0495211993        0.1026075827        0.3760506078
C             0.0552847928        0.0478456751        0.9129668075
C             0.0797459863        0.2658661536        0.1621246872
C             0.2831111983        0.2672867131        0.3743434902
C             0.2219355452        0.3808524504        0.9126451459
C             0.4126856835       -0.0663964310        0.1630690079
C             0.4499292653        0.1033453412        0.3773438851
C             0.5554151088        0.0456742169        0.9131248029
C             0.5789640982        0.2659544561        0.1626863898
C             0.7835969641        0.2698805648        0.3770972150
C             0.7221416785        0.3792201029        0.9135414513
C            -0.0865938002        0.4346699954        0.1647534096
C            -0.0507432007        0.5997856207        0.3733361676
C             0.0554277713        0.5484892020        0.9134455461
C             0.0798842270        0.7664661386        0.1621329272
C             0.2834079380        0.7704707033        0.3785071357
C             0.2219148067        0.8812037728        0.9129038503
C             0.4127137188        0.4332661979        0.1631345264
C             0.4498596139        0.6023474114        0.3768558129
C             0.5557498880        0.5458574733        0.9135269472
C             0.5795528297        0.7662322884        0.1623601788
C             0.7835354766        0.7699290840        0.3778809802
C             0.7225109871        0.8788013750        0.9131078141
H             0.5980257473        1.0945031131        0.5489550812
H             0.7338887681        1.0748169304        0.5626130303
H             0.4278241415        0.6890998595        0.7682054745
H             0.3007101103        0.5100368599        0.7678737262
H             0.7975282348        0.6145469877        0.7618733711
H             0.9218923513        0.5590519903        0.7603063067
H             0.3065701111        0.0057827738        0.7620817973
H             0.4247152506        0.1832244561        0.7588404848
H             0.1693425168        0.5547663175        0.5771344305
H             0.0770892662        0.6610791447        0.5832376553
H             0.9637070784        0.7854569562        0.5864432581
H             0.7230791385        0.6549566246        0.5796739955
H             0.0763534161        0.0139654866        0.5790820637
H             0.1779554635        0.2127626038        0.5814168581
H             0.9271113227        1.0756362397        0.7624073232
H             0.7903758777        1.1112128119        0.7596232461
H             0.2950648853        0.4479840945        0.5836007631
H             0.5276442504        0.5508525830        0.5787272739



     Writing config-only to output data dir ../../results/server/9h2_abs/9H2abs_C.save/
     NEW-OLD atomic charge density approx. for the potential

     Check: negative core charge=   -0.000002
     extrapolated charge  113.93842, renormalised to  114.00000

     total cpu time spent up to now is        4.0 secs

     Self-consistent Calculation

     iteration #  1     ecut=    40.00 Ry     beta= 0.05
     Davidson diagonalization with overlap
     ethr =  1.00E-06,  avg # of iterations =  3.0

     total cpu time spent up to now is        4.1 secs

     total energy              =    -306.08583232 Ry
     estimated scf accuracy    <       0.00036285 Ry

     iteration #  2     ecut=    40.00 Ry     beta= 0.05
     Davidson diagonalization with overlap
     ethr =  3.18E-07,  avg # of iterations =  4.0

     total cpu time spent up to now is        4.2 secs

     total energy              =    -306.08594896 Ry
     estimated scf accuracy    <       0.00001368 Ry

     iteration #  3     ecut=    40.00 Ry     beta= 0.05
     Davidson diagonalization with overlap
     ethr =  1.20E-08,  avg # of iterations =  6.0

     total cpu time spent up to now is        4.3 secs

     total energy              =    -306.08596529 Ry
     estimated scf accuracy    <       0.00001089 Ry

     iteration #  4     ecut=    40.00 Ry     beta= 0.05
     Davidson diagonalization with overlap
     ethr =  9.56E-09,  avg # of iterations =  1.0

     total cpu time spent up to now is        4.3 secs

     total energy              =    -306.08596485 Ry
     estimated scf accuracy    <       0.00001094 Ry

     iteration #  5     ecut=    40.00 Ry     beta= 0.05
     Davidson diagonalization with overlap
     ethr =  9.56E-09,  avg # of iterations =  1.0

     total cpu time spent up to now is        4.4 secs

     total energy              =    -306.08596141 Ry
     estimated scf accuracy    <       0.00000877 Ry

     iteration #  6     ecut=    40.00 Ry     beta= 0.05
     Davidson diagonalization with overlap
     ethr =  7.69E-09,  avg # of iterations =  2.0

     total cpu time spent up to now is        4.4 secs

     total energy              =    -306.08596249 Ry
     estimated scf accuracy    <       0.00000192 Ry

     iteration #  7     ecut=    40.00 Ry     beta= 0.05
     Davidson diagonalization with overlap
     ethr =  1.69E-09,  avg # of iterations =  2.0

     total cpu time spent up to now is        4.5 secs

     total energy              =    -306.08596240 Ry
     estimated scf accuracy    <       0.00000172 Ry

     iteration #  8     ecut=    40.00 Ry     beta= 0.05
     Davidson diagonalization with overlap
     ethr =  1.51E-09,  avg # of iterations =  1.0

     total cpu time spent up to now is        4.6 secs

     total energy              =    -306.08596222 Ry
     estimated scf accuracy    <       0.00000137 Ry

     iteration #  9     ecut=    40.00 Ry     beta= 0.05
[...]
     atom   31 type  2   force =     0.00439471    0.05666107   -0.00698778
     atom   32 type  2   force =    -0.00463201   -0.05593246    0.01206385
     atom   33 type  2   force =    -0.02083624    0.01250977    0.00366362
     atom   34 type  2   force =     0.02058675   -0.01222083   -0.00157505
     atom   35 type  2   force =    -0.00086346    0.00023856   -0.00517726
     atom   36 type  2   force =    -0.01922863   -0.01218278    0.00226715
     atom   37 type  2   force =     0.00041001    0.02224368   -0.00158127
     atom   38 type  2   force =     0.00000425   -0.02072308    0.00357279
     atom   39 type  2   force =    -0.05479380    0.01545173   -0.00488447
     atom   40 type  2   force =     0.05490264   -0.01474965    0.01010347
     atom   41 type  2   force =     0.00105039   -0.00180785   -0.00473519
     atom   42 type  2   force =     0.01859695    0.01167314    0.00035595
     The ionic contribution  to forces
     atom    1 type  1   force =     0.01599157   -0.22271372   -1.38944796
     atom    2 type  1   force =    -0.32121499    1.08164038    8.01017557
     atom    3 type  1   force =     0.18520735   -0.81779101   -6.12802468
     atom    4 type  1   force =     0.02689829   -0.18195183   -1.48665054
     atom    5 type  1   force =    -0.24761977    1.02672482    7.56679633
     atom    6 type  1   force =     0.18628244   -0.87521674   -6.07739845
     atom    7 type  1   force =     0.09491847   -0.22954733   -1.38245211
     atom    8 type  1   force =    -0.18368531    1.07658971    8.11820635
     atom    9 type  1   force =     0.20531239   -0.80007170   -6.04843649
     atom   10 type  1   force =     0.07490666   -0.15654712   -1.45575029
     atom   11 type  1   force =    -0.27031533    1.05772845    8.14804876
     atom   12 type  1   force =     0.18886758   -0.84496019   -6.03633529
     atom   13 type  1   force =     0.02910799   -0.16207784   -1.28555774
     atom   14 type  1   force =    -0.22481823    1.02465512    7.58398232
     atom   15 type  1   force =     0.16583232   -0.84234104   -5.99270708
     atom   16 type  1   force =     0.03494515   -0.24683273   -1.43608766
     atom   17 type  1   force =    -0.21856877    1.15288062    8.16499268
     atom   18 type  1   force =     0.15974536   -0.79837130   -6.08688725
     atom   19 type  1   force =     0.05029381   -0.14850112   -1.37349232
     atom   20 type  1   force =    -0.27348965    1.15398714    7.92821229
     atom   21 type  1   force =     0.23445398   -0.86583048   -5.99947479
     atom   22 type  1   force =     0.03387763   -0.18652759   -1.37074421
     atom   23 type  1   force =    -0.30646071    1.14630120    8.10675520
     atom   24 type  1   force =     0.22359215   -0.79712469   -6.06182302
     atom   25 type  2   force =    -0.80835683    0.43564126    1.77847854
     atom   26 type  2   force =     0.58808230    0.16002248    1.88605996
     atom   27 type  2   force =     0.24696198    0.35953644   -2.44895973
     atom   28 type  2   force =    -0.09862404   -0.99263412   -2.26507676
     atom   29 type  2   force =    -0.60037857   -0.19796558   -2.23451342
     atom   30 type  2   force =     0.74776013   -0.47612509   -2.17331126
     atom   31 type  2   force =     0.04162584   -0.97075909   -2.08519295
     atom   32 type  2   force =     0.16943159    0.39514831   -2.31237749
     atom   33 type  2   force =     0.09027588    0.09450129    1.28542668
     atom   34 type  2   force =    -0.19523380    0.25389726    1.26411807
     atom   35 type  2   force =    -0.00575587    0.13926384    1.26256461
     atom   36 type  2   force =     0.11155136    0.23402420    1.27645482
     atom   37 type  2   force =    -0.01548741    0.01551720    1.29398353
     atom   38 type  2   force =    -0.01606157    0.32483110    1.27356619
     atom   39 type  2   force =     0.71043337   -0.48002581   -2.13743940
     atom   40 type  2   force =    -0.63589542   -0.09748825   -2.29310680
     atom   41 type  2   force =    -0.04138108    0.19059297    1.30171366
     atom   42 type  2   force =    -0.15300826    0.06792057    1.31171213
     The local contribution  to forces
     atom    1 type  1   force =    -0.01742568    0.21917736    1.35504190
     atom    2 type  1   force =     0.32610728   -1.06530141   -7.98220696
     atom    3 type  1   force =    -0.18851978    0.83083068    6.25041383
     atom    4 type  1   force =    -0.02196251    0.16863665    1.41876753
     atom    5 type  1   force =     0.25160427   -1.02233084   -7.52724846
     atom    6 type  1   force =    -0.18626012    0.87981537    6.19501179
     atom    7 type  1   force =    -0.09875205    0.22893681    1.34875444
     atom    8 type  1   force =     0.16878602   -1.05942560   -8.09805829
     atom    9 type  1   force =    -0.21026775    0.82432566    6.16763748
     atom   10 type  1   force =    -0.07734203    0.13529965    1.38984741
     atom   11 type  1   force =     0.27174817   -1.04252639   -8.08267348
     atom   12 type  1   force =    -0.18871666    0.85853329    6.14621691
     atom   13 type  1   force =    -0.02478185    0.15538601    1.25270315
     atom   14 type  1   force =     0.22610033   -1.02541671   -7.55838954
     atom   15 type  1   force =    -0.17990203    0.86010515    6.10923799
     atom   16 type  1   force =    -0.02730607    0.24782892    1.36596889
     atom   17 type  1   force =     0.21086913   -1.15215612   -8.09937840
     atom   18 type  1   force =    -0.17568087    0.81708234    6.19935987
     atom   19 type  1   force =    -0.05113335    0.14673298    1.33976783
     atom   20 type  1   force =     0.27193237   -1.16434549   -7.89343295
     atom   21 type  1   force =    -0.23466230    0.88490902    6.11323091
     atom   22 type  1   force =    -0.03051864    0.17686545    1.29902757
     atom   23 type  1   force =     0.30905445   -1.14274999   -8.04067705
     atom   24 type  1   force =    -0.21379744    0.81204398    6.17364544
     atom   25 type  2   force =     0.74889557   -0.42529930   -1.79329057
     atom   26 type  2   force =    -0.52889454   -0.17042549   -1.86915794
     atom   27 type  2   force =    -0.23338713   -0.30600906    2.43798025
     atom   28 type  2   force =     0.08514752    0.93829089    2.26899586
     atom   29 type  2   force =     0.54478358    0.20878293    2.22816970
     atom   30 type  2   force =    -0.69193279    0.46509093    2.17472763
     atom   31 type  2   force =    -0.04585590    0.91406138    2.09231752
     atom   32 type  2   force =    -0.16489561   -0.33927696    2.30062787
     atom   33 type  2   force =    -0.06965941   -0.10651934   -1.28925941
     atom   34 type  2   force =     0.17452246   -0.24126604   -1.26269503
     atom   35 type  2   force =     0.00717755   -0.13892309   -1.25744165
     atom   36 type  2   force =    -0.09287585   -0.22183453   -1.27889027
     atom   37 type  2   force =     0.01493084   -0.03761069   -1.29243347
     atom   38 type  2   force =     0.01657764   -0.30443407   -1.27743371
     atom   39 type  2   force =    -0.65557956    0.46451415    2.14217153
     atom   40 type  2   force =     0.58110640    0.11227132    2.28298604
     atom   41 type  2   force =     0.04125404   -0.18859926   -1.29689551
     atom   42 type  2   force =     0.13352839   -0.08017664   -1.31220975
     The core correction contribution to forces
     atom    1 type  1   force =     0.00002005    0.00000706   -0.00076919
     atom    2 type  1   force =     0.00015844    0.00038642    0.00033162
     atom    3 type  1   force =     0.00001066    0.00016438    0.00260868
     atom    4 type  1   force =     0.00011202   -0.00025759   -0.00097885
     atom    5 type  1   force =     0.00012720    0.00022267    0.00167172
     atom    6 type  1   force =     0.00003834    0.00008150    0.00259859
     atom    7 type  1   force =    -0.00025119    0.00011697   -0.00077723
     atom    8 type  1   force =    -0.00046292    0.00040472    0.00004177
     atom    9 type  1   force =    -0.00012988    0.00064448    0.00241275
     atom   10 type  1   force =    -0.00013636   -0.00057425   -0.00102060
     atom   11 type  1   force =     0.00010397    0.00031666    0.00070920
     atom   12 type  1   force =     0.00005966    0.00030417    0.00221792
     atom   13 type  1   force =     0.00019198   -0.00027168   -0.00111341
     atom   14 type  1   force =    -0.00001220    0.00013375    0.00155140
     atom   15 type  1   force =    -0.00036785    0.00028293    0.00223432
     atom   16 type  1   force =     0.00022217    0.00023346   -0.00115570
     atom   17 type  1   force =    -0.00022715   -0.00016136    0.00059466
     atom   18 type  1   force =    -0.00040904    0.00037970    0.00245721
     atom   19 type  1   force =    -0.00004924   -0.00011829   -0.00082573
     atom   20 type  1   force =    -0.00001711   -0.00035213    0.00069393
     atom   21 type  1   force =    -0.00004600    0.00049612    0.00217239
     atom   22 type  1   force =     0.00012540   -0.00020572   -0.00127475
     atom   23 type  1   force =     0.00017835   -0.00011997    0.00056318
     atom   24 type  1   force =     0.00023452    0.00027384    0.00238508
     atom   25 type  2   force =     0.00000000    0.00000000    0.00000000
     atom   26 type  2   force =     0.00000000    0.00000000    0.00000000
     atom   27 type  2   force =     0.00000000    0.00000000    0.00000000
     atom   28 type  2   force =     0.00000000    0.00000000    0.00000000
     atom   29 type  2   force =     0.00000000    0.00000000    0.00000000
     atom   30 type  2   force =     0.00000000    0.00000000    0.00000000
     atom   31 type  2   force =     0.00000000    0.00000000    0.00000000
     atom   32 type  2   force =     0.00000000    0.00000000    0.00000000
     atom   33 type  2   force =     0.00000000    0.00000000    0.00000000
     atom   34 type  2   force =     0.00000000    0.00000000    0.00000000
     atom   35 type  2   force =     0.00000000    0.00000000    0.00000000
     atom   36 type  2   force =     0.00000000    0.00000000    0.00000000
     atom   37 type  2   force =     0.00000000    0.00000000    0.00000000
     atom   38 type  2   force =     0.00000000    0.00000000    0.00000000
     atom   39 type  2   force =     0.00000000    0.00000000    0.00000000
     atom   40 type  2   force =     0.00000000    0.00000000    0.00000000
     atom   41 type  2   force =     0.00000000    0.00000000    0.00000000
     atom   42 type  2   force =     0.00000000    0.00000000    0.00000000
     The Hubbard contrib.    to forces
     atom    1 type  1   force =     0.00000000    0.00000000    0.00000000
     atom    2 type  1   force =     0.00000000    0.00000000    0.00000000
     atom    3 type  1   force =     0.00000000    0.00000000    0.00000000
     atom    4 type  1   force =     0.00000000    0.00000000    0.00000000
     atom    5 type  1   force =     0.00000000    0.00000000    0.00000000
     atom    6 type  1   force =     0.00000000    0.00000000    0.00000000
     atom    7 type  1   force =     0.00000000    0.00000000    0.00000000
     atom    8 type  1   force =     0.00000000    0.00000000    0.00000000
     atom    9 type  1   force =     0.00000000    0.00000000    0.00000000
     atom   10 type  1   force =     0.00000000    0.00000000    0.00000000
     atom   11 type  1   force =     0.00000000    0.00000000    0.00000000
     atom   12 type  1   force =     0.00000000    0.00000000    0.00000000
     atom   13 type  1   force =     0.00000000    0.00000000    0.00000000
     atom   14 type  1   force =     0.00000000    0.00000000    0.00000000
     atom   15 type  1   force =     0.00000000    0.00000000    0.00000000
     atom   16 type  1   force =     0.00000000    0.00000000    0.00000000
     atom   17 type  1   force =     0.00000000    0.00000000    0.00000000
     atom   18 type  1   force =     0.00000000    0.00000000    0.00000000
     atom   19 type  1   force =     0.00000000    0.00000000    0.00000000
     atom   20 type  1   force =     0.00000000    0.00000000    0.00000000
     atom   21 type  1   force =     0.00000000    0.00000000    0.00000000
     atom   22 type  1   force =     0.00000000    0.00000000    0.00000000
     atom   23 type  1   force =     0.00000000    0.00000000    0.00000000
     atom   24 type  1   force =     0.00000000    0.00000000    0.00000000
     atom   25 type  2   force =     0.00000000    0.00000000    0.00000000
     atom   26 type  2   force =     0.00000000    0.00000000    0.00000000
     atom   27 type  2   force =     0.00000000    0.00000000    0.00000000
     atom   28 type  2   force =     0.00000000    0.00000000    0.00000000
     atom   29 type  2   force =     0.00000000    0.00000000    0.00000000
     atom   30 type  2   force =     0.00000000    0.00000000    0.00000000
     atom   31 type  2   force =     0.00000000    0.00000000    0.00000000
     atom   32 type  2   force =     0.00000000    0.00000000    0.00000000
     atom   33 type  2   force =     0.00000000    0.00000000    0.00000000
     atom   34 type  2   force =     0.00000000    0.00000000    0.00000000
     atom   35 type  2   force =     0.00000000    0.00000000    0.00000000
     atom   36 type  2   force =     0.00000000    0.00000000    0.00000000
     atom   37 type  2   force =     0.00000000    0.00000000    0.00000000
     atom   38 type  2   force =     0.00000000    0.00000000    0.00000000
     atom   39 type  2   force =     0.00000000    0.00000000    0.00000000
     atom   40 type  2   force =     0.00000000    0.00000000    0.00000000
     atom   41 type  2   force =     0.00000000    0.00000000    0.00000000
     atom   42 type  2   force =     0.00000000    0.00000000    0.00000000
     The SCF correction term to forces
     atom    1 type  1   force =     0.00000894    0.00000880   -0.00000479
     atom    2 type  1   force =     0.00001633    0.00000570   -0.00001256
     atom    3 type  1   force =     0.00001275   -0.00000276    0.00003766
     atom    4 type  1   force =     0.00000227   -0.00000408   -0.00000289
     atom    5 type  1   force =     0.00000655   -0.00001573   -0.00001496
     atom    6 type  1   force =     0.00000846   -0.00000191    0.00003324
     atom    7 type  1   force =    -0.00000857    0.00000720   -0.00000471
     atom    8 type  1   force =    -0.00001730    0.00001045   -0.00001462
     atom    9 type  1   force =    -0.00001398   -0.00000242    0.00003523
     atom   10 type  1   force =    -0.00000252   -0.00000730   -0.00000200
     atom   11 type  1   force =    -0.00000173    0.00001707   -0.00001639
     atom   12 type  1   force =    -0.00001026    0.00000806    0.00003134
     atom   13 type  1   force =     0.00000135   -0.00000350    0.00000174
     atom   14 type  1   force =    -0.00000160   -0.00000774   -0.00001590
     atom   15 type  1   force =    -0.00000082    0.00001940    0.00003134
     atom   16 type  1   force =     0.00000330    0.00000738   -0.00000272
     atom   17 type  1   force =    -0.00002461   -0.00000647   -0.00001155
     atom   18 type  1   force =    -0.00001150    0.00001147    0.00003233
     atom   19 type  1   force =    -0.00000044   -0.00001365   -0.00000501
     atom   20 type  1   force =     0.00000419   -0.00002437   -0.00000921
     atom   21 type  1   force =    -0.00000174    0.00000478    0.00003258
     atom   22 type  1   force =    -0.00000282    0.00000250   -0.00000915
     atom   23 type  1   force =     0.00002563   -0.00000887   -0.00000887
     atom   24 type  1   force =     0.00000842    0.00000041    0.00003540
     atom   25 type  2   force =     0.00000002    0.00000125    0.00000060
     atom   26 type  2   force =    -0.00000162    0.00000126   -0.00000009
     atom   27 type  2   force =    -0.00000024    0.00000029   -0.00000412
     atom   28 type  2   force =    -0.00000002   -0.00000113   -0.00000384
     atom   29 type  2   force =     0.00000010   -0.00000146   -0.00000490
     atom   30 type  2   force =     0.00000034   -0.00000110   -0.00000514
     atom   31 type  2   force =     0.00000064   -0.00000096   -0.00000419
     atom   32 type  2   force =     0.00000134   -0.00000042   -0.00000599
     atom   33 type  2   force =    -0.00000262    0.00000068   -0.00000272
     atom   34 type  2   force =    -0.00000042   -0.00000037   -0.00000250
     atom   35 type  2   force =     0.00000010   -0.00000047   -0.00000272
     atom   36 type  2   force =     0.00000021   -0.00000091   -0.00000281
     atom   37 type  2   force =     0.00000029   -0.00000003   -0.00000289
     atom   38 type  2   force =     0.00000055   -0.00000332   -0.00000223
     atom   39 type  2   force =     0.00000071   -0.00000074   -0.00000550
     atom   40 type  2   force =    -0.00000140   -0.00000023   -0.00000800
     atom   41 type  2   force =     0.00000069   -0.00000091   -0.00000194
     atom   42 type  2   force =     0.00000319    0.00000034   -0.00000248

     Total force =     0.002997     Total SCF correction =     0.000128


     Computing stress (Cartesian axis) and pressure

          total   stress  (Ry/bohr**3)                   (kbar)     P=       -0.03
   0.00000008  -0.00000005  -0.00000052            0.01       -0.01       -0.08
  -0.00000005   0.00000028  -0.00000006           -0.01        0.04       -0.01
  -0.00000052  -0.00000006  -0.00000097           -0.08       -0.01       -0.14


     Writing all to output data dir ../../results/server/9h2_abs/9H2abs_C.save/
 
     init_run     :      0.30s CPU      0.45s WALL (       2 calls)
     electrons    :     54.20s CPU     58.77s WALL (      43 calls)
     update_pot   :      3.82s CPU      3.90s WALL (      41 calls)
     forces       :      2.58s CPU      4.76s WALL (      43 calls)
     stress       :      7.30s CPU      7.86s WALL (      43 calls)

     Called by init_run:
     wfcinit      :      0.05s CPU      0.09s WALL (       2 calls)
     potinit      :      0.06s CPU      0.08s WALL (       2 calls)
     hinit0       :      0.10s CPU      0.14s WALL (       2 calls)

     Called by electrons:
     c_bands      :     38.14s CPU     40.07s WALL (     874 calls)
     sum_band     :      7.59s CPU      8.04s WALL (     874 calls)
     v_of_rho     :      0.78s CPU      0.80s WALL (     904 calls)
     newd         :      2.59s CPU      2.65s WALL (     904 calls)
     mix_rho      :      4.16s CPU      4.28s WALL (     874 calls)

     Called by c_bands:
     init_us_2    :      0.13s CPU      0.16s WALL (    1750 calls)
     init_us_2:cp :      0.13s CPU      0.16s WALL (    1750 calls)
     cegterg      :     37.53s CPU     38.73s WALL (     874 calls)

     Called by *egterg:
     cdiaghg      :     13.39s CPU     13.55s WALL (    2997 calls)
     h_psi        :     19.91s CPU     20.91s WALL (    3053 calls)
     s_psi        :      0.66s CPU      0.68s WALL (    3053 calls)
     g_psi        :      0.04s CPU      0.04s WALL (    2177 calls)

     Called by h_psi:
     h_psi:calbec :      2.26s CPU      2.40s WALL (    3053 calls)
     vloc_psi     :     16.74s CPU     17.58s WALL (    3053 calls)
     add_vuspsi   :      0.84s CPU      0.86s WALL (    3053 calls)

     General routines
     calbec       :      3.35s CPU      3.55s WALL (    4142 calls)
     fft          :      1.96s CPU      2.04s WALL (    5736 calls)
     ffts         :      1.88s CPU      1.94s WALL (   18254 calls)
     fftw         :     18.18s CPU     19.19s WALL (  351842 calls)
     interpolate  :      0.39s CPU      0.41s WALL (     904 calls)
 
     Parallel routines
 
     PWSCF        :   1m 9.49s CPU   1m18.20s WALL

 
   This run was terminated on:  12: 5:34   3Sep2024            

=------------------------------------------------------------------------------=
   JOB DONE.
=------------------------------------------------------------------------------=
