
     Program PWSCF v.7.2 starts on  3Sep2024 at 11:44:26 

     This program is part of the open-source Quantum ESPRESSO suite
     for quantum simulation of materials; please cite
         "P. Giannozzi et al., J. Phys.:Condens. Matter 21 395502 (2009);
         "P. Giannozzi et al., J. Phys.:Condens. Matter 29 465901 (2017);
         "P. Giannozzi et al., J. Chem. Phys. 152 154105 (2020);
          URL http://www.quantum-espresso.org", 
     in publications or presentations arising from this work. More details at
     http://www.quantum-espresso.org/quote

     Parallel version (MPI & OpenMP), running on      96 processor cores
     Number of MPI processes:                96
     Threads/MPI process:                     1

     MPI processes distributed on     2 nodes
     360538 MiB available memory on the printing compute node when the environment starts
 
     Reading input from hydrogen_absorption9.in

     Current dimensions of program PWSCF are:
     Max number of different atomic species (ntypx) = 10
     Max number of k-points (npk) =  40000
     Max angular momentum in pseudopotentials (lmaxx) =  4

     IMPORTANT: XC functional enforced from input :
     Exchange-correlation= LDA
                           (   1   1   0   0   0   0   0)
     Any further DFT definition will be discarded
     Please, verify this is what you really want

 
     R & G space division:  proc/nbgrp/npool/nimage =      96
     Subspace diagonalization in iterative solution of the eigenvalue problem:
     a serial algorithm will be used

 
     Parallelization info
     --------------------
     sticks:   dense  smooth     PW     G-vecs:    dense   smooth      PW
     Min          24       9      2                 2815      701      83
     Max          25      10      3                 2837      724     103
     Sum        2347     955    241               271283    68765    8607
 
     Using Slab Decomposition
 

     Title: 
     9H2_absorption_C                                                           


     bravais-lattice index     =            0
     lattice parameter (alat)  =       8.0000  a.u.
     unit-cell volume          =    2008.3697 (a.u.)^3
     number of atoms/cell      =           42
     number of atomic types    =            2
     number of electrons       =       114.00
     number of Kohn-Sham states=           68
     kinetic-energy cutoff     =      40.0000  Ry
     charge density cutoff     =     400.0000  Ry
     scf convergence threshold =      1.0E-06
     mixing beta               =       0.0500
     number of iterations used =            8  local-TF  mixing
     energy convergence thresh.=      1.0E-04
     force convergence thresh. =      1.0E-03
     press convergence thresh. =      5.0E-01
     Exchange-correlation= LDA
                           (   1   1   0   0   0   0   0)
     nstep                     =           50


     celldm(1)=   8.000004  celldm(2)=   0.000000  celldm(3)=   0.000000
     celldm(4)=   0.000000  celldm(5)=   0.000000  celldm(6)=   0.000000

     crystal axes: (cart. coord. in units of alat)
               a(1) = (   1.155472   0.009927   0.049388 )  
               a(2) = (  -0.579777   0.985643  -0.174769 )  
               a(3) = (   0.164239  -0.333808   3.484703 )  

     reciprocal axes: (cart. coord. in units 2 pi/alat)
               b(1) = (  0.860740  0.507737  0.008069 )  
               b(2) = ( -0.013022  1.024416  0.098745 )  
               b(3) = ( -0.012852  0.044182  0.291807 )  


     PseudoPot. # 1 for C  read from file:
     ../../potentials/C.pz-n-rrkjus_psl.0.1.UPF
     MD5 check sum: a3cecbabebb5b3a1aff122f23eb09bb0
     Pseudo is Ultrasoft + core correction, Zval =  4.0
     Generated using "atomic" code by A. Dal Corso  v.5.0.2 svn rev. 9415
     Using radial grid of 1073 points,  4 beta functions with: 
                l(1) =   0
                l(2) =   0
                l(3) =   1
                l(4) =   1
     Q(r) pseudized with 0 coefficients 


     PseudoPot. # 2 for H  read from file:
     ../../potentials/H.pz-rrkjus_psl.0.1.UPF
     MD5 check sum: 1467ebfaa2880178e80d097b970df8c7
     Pseudo is Ultrasoft, Zval =  1.0
     Generated using "atomic" code by A. Dal Corso  v.5.0.2 svn rev. 9415
     Using radial grid of  929 points,  2 beta functions with: 
                l(1) =   0
                l(2) =   0
     Q(r) pseudized with 0 coefficients 


     atomic species   valence    mass     pseudopotential
        C              4.00    12.01100     C ( 1.00)
        H              1.00     1.00784     H ( 1.00)

     No symmetry found



   Cartesian axes

     site n.     atom                  positions (alat units)
         1           C   tau(   1) = (  -0.0056242  -0.1278986   0.5721062  )
         2           C   tau(   2) = (  -0.0648672   0.0082772   1.3376823  )
         3           C   tau(   3) = (   0.2008841  -0.2618503   3.2382133  )
         4           C   tau(   4) = (  -0.0063637   0.2022385   0.5217650  )
         5           C   tau(   5) = (   0.2236670   0.1758614   1.3250481  )
         6           C   tau(   6) = (   0.2002355   0.0683446   3.1882681  )
         7           C   tau(   7) = (   0.5721215  -0.1229549   0.5967494  )
         8           C   tau(   8) = (   0.5129106   0.0132095   1.3621940  )
         9           C   tau(   9) = (   0.7786377  -0.2569119   3.2627087  )
        10           C   tau(  10) = (   0.5713632   0.2072037   0.5463981  )
        11           C   tau(  11) = (   0.8014073   0.1808086   1.3495494  )
        12           C   tau(  12) = (   0.7780133   0.0732334   3.2125185  )
        13           C   tau(  13) = (  -0.2955593   0.3649226   0.4847763  )
        14           C   tau(  14) = (  -0.3546858   0.5010384   1.2499702  )
        15           C   tau(  15) = (  -0.0889580   0.2310197   3.1510028  )
        16           C   tau(  16) = (  -0.2962094   0.6950771   0.4346179  )
        17           C   tau(  17) = (  -0.0661760   0.6686092   1.2374210  )
        18           C   tau(  18) = (  -0.0896650   0.5611124   3.1006008  )
        19           C   tau(  19) = (   0.2822014   0.3698413   0.5091286  )
        20           C   tau(  20) = (   0.2230533   0.5059454   1.2745857  )
        21           C   tau(  21) = (   0.4887842   0.2359018   3.1753398  )
        22           C   tau(  22) = (   0.2815362   0.7000316   0.4589593  )
        23           C   tau(  23) = (   0.5115378   0.6736058   1.2622558  )
        24           C   tau(  24) = (   0.4880566   0.5660584   3.1252780  )
        25           H   tau(  25) = (   0.1057386   0.9415070   1.8258757  )
        26           H   tau(  26) = (   0.2809174   0.9010927   1.8571150  )
        27           H   tau(  27) = (   0.2516009   0.3969882   2.5125048  )
        28           H   tau(  28) = (   0.2018604   0.2215855   2.5224852  )
        29           H   tau(  29) = (   0.7138195   0.3334293   2.5034659  )
        30           H   tau(  30) = (   0.8915539   0.2992612   2.5270482  )
        31           H   tau(  31) = (   0.4936614  -0.2741832   2.5802348  )
        32           H   tau(  32) = (   0.5399650  -0.0978335   2.5728399  )
        33           H   tau(  33) = (  -0.1182706   0.3357536   1.9063197  )
        34           H   tau(  34) = (  -0.0708006   0.5120066   1.9049888  )
        35           H   tau(  35) = (   0.5677324   0.4115995   1.9726850  )
        36           H   tau(  36) = (   0.3943935   0.4556531   1.9362202  )
        37           H   tau(  37) = (   0.1701051  -0.1521173   2.0292303  )
        38           H   tau(  38) = (   0.2146946   0.0248195   2.0249247  )
        39           H   tau(  39) = (   0.5981000   0.7864873   2.4807092  )
        40           H   tau(  40) = (   0.4263357   0.8371859   2.4457130  )
        41           H   tau(  41) = (   0.6693847   0.2449120   1.8396426  )
        42           H   tau(  42) = (   0.6900602   0.4107980   1.8056695  )

     number of k points=     1  Gaussian smearing, width (Ry)=  0.0100
                       cart. coord. in units 2pi/alat
        k(    1) = (   0.0000000   0.0000000   0.0000000), wk =   2.0000000

     Dense  grid:   271283 G-vectors     FFT dimensions: (  60,  60, 180)

     Smooth grid:    68765 G-vectors     FFT dimensions: (  40,  40, 120)

     Estimated max dynamical RAM per process >       8.87 MB

     Estimated total dynamical RAM >     851.80 MB

     Check: negative core charge=   -0.000002

     Initial potential from superposition of free atoms

     starting charge     113.9990, renormalised to     114.0000
     Starting wfcs are  114 randomized atomic wfcs

     total cpu time spent up to now is        0.6 secs

     Self-consistent Calculation

     iteration #  1     ecut=    40.00 Ry     beta= 0.05
     Davidson diagonalization with overlap
     ethr =  1.00E-02,  avg # of iterations =  4.0

     total cpu time spent up to now is        0.7 secs

     total energy              =    -306.68884929 Ry
     estimated scf accuracy    <       2.88199279 Ry

     iteration #  2     ecut=    40.00 Ry     beta= 0.05
     Davidson diagonalization with overlap
     ethr =  2.53E-03,  avg # of iterations =  4.0

     total cpu time spent up to now is        0.8 secs

     total energy              =    -307.90797196 Ry
     estimated scf accuracy    <       3.25564204 Ry

     iteration #  3     ecut=    40.00 Ry     beta= 0.05
     Davidson diagonalization with overlap
     ethr =  2.53E-03,  avg # of iterations =  1.0

     total cpu time spent up to now is        0.9 secs

     total energy              =    -305.05880843 Ry
     estimated scf accuracy    <       5.19241874 Ry

     iteration #  4     ecut=    40.00 Ry     beta= 0.05
     Davidson diagonalization with overlap
     ethr =  2.53E-03,  avg # of iterations =  2.0

     total cpu time spent up to now is        1.0 secs

     total energy              =    -305.38515127 Ry
     estimated scf accuracy    <       0.19088643 Ry

     iteration #  5     ecut=    40.00 Ry     beta= 0.05
     Davidson diagonalization with overlap
     ethr =  1.67E-04,  avg # of iterations =  4.0

     total cpu time spent up to now is        1.1 secs

     total energy              =    -305.45156759 Ry
     estimated scf accuracy    <       0.09491970 Ry

     iteration #  6     ecut=    40.00 Ry     beta= 0.05
     Davidson diagonalization with overlap
     ethr =  8.33E-05,  avg # of iterations =  2.0

     total cpu time spent up to now is        1.1 secs

     total energy              =    -305.42152968 Ry
     estimated scf accuracy    <       0.08049926 Ry

     iteration #  7     ecut=    40.00 Ry     beta= 0.05
     Davidson diagonalization with overlap
     ethr =  7.06E-05,  avg # of iterations =  2.0

     total cpu time spent up to now is        1.2 secs

     total energy              =    -305.42667710 Ry
     estimated scf accuracy    <       0.01207623 Ry

     iteration #  8     ecut=    40.00 Ry     beta= 0.05
     Davidson diagonalization with overlap
     c_bands:  1 eigenvalues not converged
     ethr =  1.06E-05,  avg # of iterations = 20.0

     total cpu time spent up to now is        1.4 secs

     total energy              =    -305.43168388 Ry
     estimated scf accuracy    <       0.00687413 Ry

     iteration #  9     ecut=    40.00 Ry     beta= 0.05
     Davidson diagonalization with overlap
     ethr =  6.03E-06,  avg # of iterations =  7.0

     total cpu time spent up to now is        1.5 secs

     total energy              =    -305.43291541 Ry
     estimated scf accuracy    <       0.00677428 Ry

     iteration # 10     ecut=    40.00 Ry     beta= 0.05
     Davidson diagonalization with overlap
     ethr =  5.94E-06,  avg # of iterations =  3.0

     total cpu time spent up to now is        1.6 secs

     total energy              =    -305.43371215 Ry
     estimated scf accuracy    <       0.01207399 Ry

     iteration # 11     ecut=    40.00 Ry     beta= 0.05
     Davidson diagonalization with overlap
     ethr =  5.94E-06,  avg # of iterations =  1.0

     total cpu time spent up to now is        1.6 secs

     total energy              =    -305.43191719 Ry
     estimated scf accuracy    <       0.00975597 Ry

     iteration # 12     ecut=    40.00 Ry     beta= 0.05
     Davidson diagonalization with overlap
     ethr =  5.94E-06,  avg # of iterations =  1.0

     total cpu time spent up to now is        1.7 secs

     total energy              =    -305.42994250 Ry
     estimated scf accuracy    <       0.00642250 Ry

     iteration # 13     ecut=    40.00 Ry     beta= 0.05
     Davidson diagonalization with overlap
     ethr =  5.63E-06,  avg # of iterations =  9.0

     total cpu time spent up to now is        1.8 secs

     total energy              =    -305.43011323 Ry
     estimated scf accuracy    <       0.00235048 Ry

     iteration # 14     ecut=    40.00 Ry     beta= 0.05
     Davidson diagonalization with overlap
     ethr =  2.06E-06,  avg # of iterations = 13.0

     total cpu time spent up to now is        1.9 secs

     total energy              =    -305.42944446 Ry
     estimated scf accuracy    <       0.00198905 Ry

     iteration # 15     ecut=    40.00 Ry     beta= 0.05
     Davidson diagonalization with overlap
     ethr =  1.74E-06,  avg # of iterations =  2.0

     total cpu time spent up to now is        2.0 secs

     total energy              =    -305.42931333 Ry
     estimated scf accuracy    <       0.00068480 Ry

     iteration # 16     ecut=    40.00 Ry     beta= 0.05
     Davidson diagonalization with overlap
     ethr =  6.01E-07,  avg # of iterations =  5.0

     total cpu time spent up to now is        2.1 secs

     total energy              =    -305.42962121 Ry
     estimated scf accuracy    <       0.00040807 Ry

     iteration # 17     ecut=    40.00 Ry     beta= 0.05
     Davidson diagonalization with overlap
     ethr =  3.58E-07,  avg # of iterations =  1.0

     total cpu time spent up to now is        2.1 secs

     total energy              =    -305.42960057 Ry
     estimated scf accuracy    <       0.00041077 Ry

     iteration # 18     ecut=    40.00 Ry     beta= 0.05
     Davidson diagonalization with overlap
     ethr =  3.58E-07,  avg # of iterations =  4.0

     total cpu time spent up to now is        2.2 secs

     total energy              =    -305.42948030 Ry
     estimated scf accuracy    <       0.00053720 Ry

     iteration # 19     ecut=    40.00 Ry     beta= 0.05
     Davidson diagonalization with overlap
     ethr =  3.58E-07,  avg # of iterations =  2.0

     total cpu time spent up to now is        2.3 secs

     total energy              =    -305.42948351 Ry
     estimated scf accuracy    <       0.00013059 Ry

     iteration # 20     ecut=    40.00 Ry     beta= 0.05
     Davidson diagonalization with overlap
     ethr =  1.15E-07,  avg # of iterations =  4.0

     total cpu time spent up to now is        2.4 secs

     total energy              =    -305.42948407 Ry
     estimated scf accuracy    <       0.00016561 Ry

     iteration # 21     ecut=    40.00 Ry     beta= 0.05
     Davidson diagonalization with overlap
     ethr =  1.15E-07,  avg # of iterations =  4.0

     total cpu time spent up to now is        2.5 secs

     total energy              =    -305.42950970 Ry
     estimated scf accuracy    <       0.00007614 Ry

     iteration # 22     ecut=    40.00 Ry     beta= 0.05
     Davidson diagonalization with overlap
     ethr =  6.68E-08,  avg # of iterations =  4.0

     total cpu time spent up to now is        2.6 secs

     total energy              =    -305.42947917 Ry
     estimated scf accuracy    <       0.00008103 Ry

     iteration # 23     ecut=    40.00 Ry     beta= 0.05
     Davidson diagonalization with overlap
     ethr =  6.68E-08,  avg # of iterations =  4.0

     total cpu time spent up to now is        2.6 secs

     total energy              =    -305.42948351 Ry
     estimated scf accuracy    <       0.00004205 Ry

     iteration # 24     ecut=    40.00 Ry     beta= 0.05
     Davidson diagonalization with overlap
     ethr =  3.69E-08,  avg # of iterations =  2.0

     total cpu time spent up to now is        2.7 secs

     total energy              =    -305.42949024 Ry
     estimated scf accuracy    <       0.00001371 Ry

     iteration # 25     ecut=    40.00 Ry     beta= 0.05
     Davidson diagonalization with overlap
     ethr =  1.20E-08,  avg # of iterations =  4.0

     total cpu time spent up to now is        2.8 secs

     total energy              =    -305.42948703 Ry
     estimated scf accuracy    <       0.00002353 Ry

     iteration # 26     ecut=    40.00 Ry     beta= 0.05
     Davidson diagonalization with overlap
     ethr =  1.20E-08,  avg # of iterations =  2.0

     total cpu time spent up to now is        2.9 secs

     total energy              =    -305.42948703 Ry
     estimated scf accuracy    <       0.00000886 Ry

     iteration # 27     ecut=    40.00 Ry     beta= 0.05
     Davidson diagonalization with overlap
     ethr =  7.77E-09,  avg # of iterations =  2.0

     total cpu time spent up to now is        2.9 secs

     total energy              =    -305.42948667 Ry
     estimated scf accuracy    <       0.00000623 Ry

     iteration # 28     ecut=    40.00 Ry     beta= 0.05
     Davidson diagonalization with overlap
     ethr =  5.46E-09,  avg # of iterations =  2.0

     total cpu time spent up to now is        3.0 secs

     total energy              =    -305.42948699 Ry
     estimated scf accuracy    <       0.00000376 Ry

     iteration # 29     ecut=    40.00 Ry     beta= 0.05
     Davidson diagonalization with overlap
     ethr =  3.30E-09,  avg # of iterations =  4.0

     total cpu time spent up to now is        3.1 secs

     total energy              =    -305.42948731 Ry
     estimated scf accuracy    <       0.00000428 Ry

     iteration # 30     ecut=    40.00 Ry     beta= 0.05
     Davidson diagonalization with overlap
     ethr =  3.30E-09,  avg # of iterations =  1.0

     total cpu time spent up to now is        3.2 secs

     total energy              =    -305.42948718 Ry
     estimated scf accuracy    <       0.00000341 Ry

     iteration # 31     ecut=    40.00 Ry     beta= 0.05
     Davidson diagonalization with overlap
     ethr =  2.99E-09,  avg # of iterations =  2.0

     total cpu time spent up to now is        3.2 secs

     total energy              =    -305.42948731 Ry
     estimated scf accuracy    <       0.00000278 Ry

     iteration # 32     ecut=    40.00 Ry     beta= 0.05
     Davidson diagonalization with overlap
     ethr =  2.44E-09,  avg # of iterations =  2.0

     total cpu time spent up to now is        3.3 secs

     total energy              =    -305.42948687 Ry
     estimated scf accuracy    <       0.00000280 Ry

     iteration # 33     ecut=    40.00 Ry     beta= 0.05
     Davidson diagonalization with overlap
     ethr =  2.44E-09,  avg # of iterations =  1.0

     total cpu time spent up to now is        3.4 secs

     total energy              =    -305.42948684 Ry
     estimated scf accuracy    <       0.00000178 Ry

     iteration # 34     ecut=    40.00 Ry     beta= 0.05
     Davidson diagonalization with overlap
     ethr =  1.56E-09,  avg # of iterations =  1.0

     total cpu time spent up to now is        3.4 secs

     total energy              =    -305.42948688 Ry
     estimated scf accuracy    <       0.00000159 Ry

     iteration # 35     ecut=    40.00 Ry     beta= 0.05
     Davidson diagonalization with overlap
     ethr =  1.39E-09,  avg # of iterations =  4.0

     total cpu time spent up to now is        3.5 secs

     total energy              =    -305.42948620 Ry
     estimated scf accuracy    <       0.00000193 Ry

     iteration # 36     ecut=    40.00 Ry     beta= 0.05
     Davidson diagonalization with overlap
     ethr =  1.39E-09,  avg # of iterations =  2.0

     total cpu time spent up to now is        3.6 secs

     End of self-consistent calculation

          k = 0.0000 0.0000 0.0000 (  8607 PWs)   bands (ev):

   -14.9676 -14.7023 -14.4836  -9.5785  -9.5489  -9.4950  -9.2989  -9.2956
    -9.2880  -9.1252  -9.1192  -9.1141  -8.8065  -8.7157  -8.6996  -8.4864
    -8.4832  -8.4816  -8.3234  -8.3214  -8.3210  -8.1350  -4.3919  -3.7379
    -2.9369  -2.4429  -1.8339  -1.8227  -1.8197  -1.7708  -1.6027  -1.6004
    -1.5967  -1.4413  -1.4400  -1.4338  -0.4561  -0.1507   0.3740   0.4684
     0.5970   1.5509   1.6524   1.6551   1.8320   1.8710   1.8769   1.9028
     2.0300   2.0353   2.1428   2.1861   2.2257   2.5411   2.5749   2.6301
     3.8084   5.9055   6.0310   6.0477   6.3891   6.4203   6.4591   6.6869
     6.7271   6.7881   7.4719   8.1348

     the Fermi energy is     4.6534 ev

!    total energy              =    -305.42948619 Ry
     estimated scf accuracy    <       0.00000061 Ry
     smearing contrib. (-TS)   =      -0.00000000 Ry
     internal energy E=F+TS    =    -305.42948619 Ry

     The total energy is F=E-TS. E is the sum of the following terms:
     one-electron contribution =    -371.46334541 Ry
     hartree contribution      =     235.14126693 Ry
     xc contribution           =    -112.53456899 Ry
     ewald contribution        =     -56.57283873 Ry

     convergence has been achieved in  36 iterations

     Forces acting on atoms (cartesian axes, Ry/au):

     atom    1 type  1   force =    -0.00177744    0.00114796   -0.00077555
     atom    2 type  1   force =    -0.00543450    0.00120323   -0.00249922
     atom    3 type  1   force =    -0.00051386    0.00041887   -0.00253926
     atom    4 type  1   force =     0.00093467   -0.00104950    0.00119955
     atom    5 type  1   force =    -0.00181584    0.01170865    0.00224208
     atom    6 type  1   force =     0.00058101   -0.00021709   -0.00188254
     atom    7 type  1   force =    -0.00184534    0.00120771   -0.00108364
     atom    8 type  1   force =     0.00539951   -0.01068053   -0.00205170
     atom    9 type  1   force =    -0.00046416   -0.00042290   -0.00301539
     atom   10 type  1   force =     0.00202461   -0.00142594    0.00101670
     atom   11 type  1   force =     0.00892003   -0.00792832   -0.02526242
     atom   12 type  1   force =    -0.00018528    0.00039206   -0.00136245
     atom   13 type  1   force =    -0.00162510    0.00097958   -0.00097801
     atom   14 type  1   force =     0.01054135   -0.00071719   -0.00645515
     atom   15 type  1   force =    -0.00064594    0.00067179   -0.00278001
     atom   16 type  1   force =     0.00144998   -0.00095707   -0.00071634
     atom   17 type  1   force =    -0.00723932    0.00422466    0.00099894
     atom   18 type  1   force =     0.00036980   -0.00008296   -0.00080844
     atom   19 type  1   force =    -0.00188490    0.00132333   -0.00044457
     atom   20 type  1   force =     0.00787601   -0.00926216   -0.00431727
     atom   21 type  1   force =    -0.00023347    0.00002675   -0.00162853
     atom   22 type  1   force =     0.00118178   -0.00049547    0.00123396
     atom   23 type  1   force =    -0.00668012   -0.00058736    0.00718406
     atom   24 type  1   force =     0.00045281   -0.00014622   -0.00175590
     atom   25 type  2   force =     0.01484275    0.00265385   -0.01435208
     atom   26 type  2   force =    -0.01588189   -0.02409982    0.00260184
     atom   27 type  2   force =    -0.01131214   -0.03539454    0.00642545
     atom   28 type  2   force =     0.01041963    0.03477661    0.00525791
     atom   29 type  2   force =     0.03831040   -0.00654908    0.00379535
     atom   30 type  2   force =    -0.03970135    0.00750396   -0.00404092
     atom   31 type  2   force =     0.01144945    0.03999899   -0.00440588
     atom   32 type  2   force =    -0.01291667   -0.03881926    0.00525824
     atom   33 type  2   force =     0.00098814    0.02284993   -0.01674833
     atom   34 type  2   force =     0.03585151   -0.01871060    0.00697842
     atom   35 type  2   force =    -0.14246819    0.07034430    0.12489347
     atom   36 type  2   force =    -0.17091581    0.10159258    0.07322127
     atom   37 type  2   force =     0.01446071    0.03044440   -0.00603497
     atom   38 type  2   force =    -0.00713879   -0.03626501    0.00179159
     atom   39 type  2   force =    -0.03549236    0.01467031    0.00385461
     atom   40 type  2   force =     0.03567221   -0.01189264    0.01140615
     atom   41 type  2   force =     0.11467579   -0.18311929   -0.03899674
     atom   42 type  2   force =     0.14977033    0.04068340   -0.11442430
     The non-local contrib.  to forces
     atom    1 type  1   force =    -0.00090671    0.00087358    0.00086209
     atom    2 type  1   force =     0.00145779   -0.00320983   -0.00248507
     atom    3 type  1   force =    -0.00029157    0.00007333   -0.00237427
     atom    4 type  1   force =     0.00047000    0.00068601    0.00644026
     atom    5 type  1   force =     0.00401222   -0.00202073    0.02002695
     atom    6 type  1   force =     0.00010504   -0.00038513    0.00086519
     atom    7 type  1   force =    -0.00032868    0.00118974    0.00022176
     atom    8 type  1   force =    -0.00506805    0.00076564    0.00330060
     atom    9 type  1   force =     0.00015949   -0.00010199   -0.00189043
     atom   10 type  1   force =     0.00018469    0.00042525    0.00607476
     atom   11 type  1   force =     0.00208319   -0.00615103   -0.02895553
     atom   12 type  1   force =    -0.00033612    0.00046600    0.00181109
     atom   13 type  1   force =    -0.00058808   -0.00040193    0.00024673
     atom   14 type  1   force =    -0.00506402    0.00388002   -0.00256240
     atom   15 type  1   force =    -0.00068363    0.00011736   -0.00191131
     atom   16 type  1   force =    -0.00011056    0.00045785    0.00232849
     atom   17 type  1   force =    -0.00714084    0.00675190    0.00540808
     atom   18 type  1   force =    -0.00036749    0.00075204    0.00221738
     atom   19 type  1   force =    -0.00081770    0.00088064    0.00236389
     atom   20 type  1   force =     0.00691888   -0.00465154   -0.00909933
     atom   21 type  1   force =     0.00035650    0.00011798   -0.00012376
     atom   22 type  1   force =     0.00017865    0.00015036    0.00696179
     atom   23 type  1   force =     0.00541000    0.00397099    0.02940675
     atom   24 type  1   force =     0.00035980    0.00057070    0.00109340
     atom   25 type  2   force =     0.06045745   -0.00765110    0.00692340
     atom   26 type  2   force =    -0.06083142    0.01421077   -0.01151076
     atom   27 type  2   force =    -0.01780830   -0.06327216    0.00450854
     atom   28 type  2   force =     0.01782402    0.06290860   -0.00311125
     atom   29 type  2   force =     0.06432194   -0.01242113    0.00795963
     atom   30 type  2   force =    -0.06441900    0.01239708   -0.00870765
     atom   31 type  2   force =     0.01626062    0.06382972   -0.00241033
     atom   32 type  2   force =    -0.01696543   -0.06342074    0.00309876
     atom   33 type  2   force =     0.01286421    0.06169237   -0.00230603
     atom   34 type  2   force =    -0.01674450   -0.06143096    0.00011944
     atom   35 type  2   force =    -0.04128850    0.00820006   -0.03978030
     atom   36 type  2   force =     0.05246596   -0.00992380    0.01492726
     atom   37 type  2   force =     0.01653098    0.06186477   -0.00304956
     atom   38 type  2   force =    -0.01504990   -0.06432139    0.00074497
     atom   39 type  2   force =    -0.06174749    0.01852936   -0.01185299
     atom   40 type  2   force =     0.06200613   -0.01787018    0.01323022
     atom   41 type  2   force =     0.01096817    0.07232456   -0.00681745
     atom   42 type  2   force =    -0.01729605   -0.07309872    0.03442029
     The ionic contribution  to forces
     atom    1 type  1   force =     0.01655347   -0.05124050   -0.34438922
     atom    2 type  1   force =    -0.20420712    1.06130667    7.46506888
     atom    3 type  1   force =     0.37009499   -1.21949273   -8.00412831
     atom    4 type  1   force =     0.01781528   -0.05518717   -0.35414889
     atom    5 type  1   force =    -0.40720846    1.10275138    7.48063806
     atom    6 type  1   force =     0.36819540   -1.21356567   -7.98874006
     atom    7 type  1   force =     0.01315478   -0.05127529   -0.34794616
     atom    8 type  1   force =    -0.46755814    0.95698113    7.30885685
     atom    9 type  1   force =     0.33424731   -1.20501268   -8.00593123
     atom   10 type  1   force =     0.01509343   -0.05617232   -0.35882755
     atom   11 type  1   force =    -0.19725647    0.99082259    7.06368432
     atom   12 type  1   force =     0.33890593   -1.20801086   -8.02655539
     atom   13 type  1   force =     0.01432812   -0.04982323   -0.34452251
     atom   14 type  1   force =    -0.25214351    1.29087785    7.21395759
     atom   15 type  1   force =     0.33986909   -1.19673697   -7.99198464
     atom   16 type  1   force =     0.01513179   -0.05227471   -0.34452557
     atom   17 type  1   force =    -0.31050248    1.13427122    7.47079735
     atom   18 type  1   force =     0.34358250   -1.20906587   -8.02562146
     atom   19 type  1   force =     0.01359024   -0.05139697   -0.35589095
     atom   20 type  1   force =    -0.37688840    1.14902561    7.46650329
     atom   21 type  1   force =     0.36479523   -1.22094966   -8.01985469
     atom   22 type  1   force =     0.01749929   -0.05769093   -0.35843542
     atom   23 type  1   force =    -0.35500943    1.22248122    7.43002651
     atom   24 type  1   force =     0.36238281   -1.22346712   -7.99644633
     atom   25 type  2   force =    -0.83001105    0.18399909    1.91730885
     atom   26 type  2   force =     0.72956950   -0.01213145    2.03573772
     atom   27 type  2   force =     0.26408770    0.51678871   -1.65213907
     atom   28 type  2   force =    -0.15760934   -0.98214275   -1.48523612
     atom   29 type  2   force =    -0.69174569   -0.06997035   -1.44064619
     atom   30 type  2   force =     0.84400044   -0.37657246   -1.31311987
     atom   31 type  2   force =    -0.12502491   -0.95796416   -1.30926251
     atom   32 type  2   force =     0.26911050    0.53326100   -1.46872848
     atom   33 type  2   force =     0.00553986   -0.46072150    2.02423059
     atom   34 type  2   force =     0.27705490    1.09109556    1.84282578
     atom   35 type  2   force =     0.02246424    0.44083095    2.67100337
     atom   36 type  2   force =    -1.20899408    0.60979948    1.76338628
     atom   37 type  2   force =    -0.26300840   -0.38064854    1.75606316
     atom   38 type  2   force =     0.06763760    0.99624128    1.61530089
     atom   39 type  2   force =     0.81082427   -0.46260299   -1.53051224
     atom   40 type  2   force =    -0.68315136   -0.01093823   -1.73368463
     atom   41 type  2   force =    -0.08369418   -0.84579940    2.43414547
     atom   42 type  2   force =     0.37848435    1.40032075    1.84174256
     The local contribution  to forces
     atom    1 type  1   force =    -0.01743168    0.05150043    0.34248535
     atom    2 type  1   force =     0.19746833   -1.05702157   -7.46498402
     atom    3 type  1   force =    -0.37029118    1.21973016    8.00347628
     atom    4 type  1   force =    -0.01732810    0.05339953    0.34866796
     atom    5 type  1   force =     0.40144267   -1.08918593   -7.49788390
     atom    6 type  1   force =    -0.36770563    1.21367157    7.98553485
     atom    7 type  1   force =    -0.01464890    0.05130418    0.34636254
     atom    8 type  1   force =     0.47776051   -0.96843925   -7.31420502
     atom    9 type  1   force =    -0.33486972    1.20462242    8.00432010
     atom   10 type  1   force =    -0.01323613    0.05424632    0.35352128
     atom   11 type  1   force =     0.20414189   -0.99276766   -7.06053198
     atom   12 type  1   force =    -0.33870767    1.20789733    8.02290599
     atom   13 type  1   force =    -0.01537700    0.05113245    0.34302761
     atom   14 type  1   force =     0.26759082   -1.29527348   -7.21804984
     atom   15 type  1   force =    -0.33986119    1.19725369    7.99063408
     atom   16 type  1   force =    -0.01354228    0.05082447    0.34116664
     atom   17 type  1   force =     0.31033396   -1.13660344   -7.47493886
     atom   18 type  1   force =    -0.34283005    1.20812588    8.02214278
     atom   19 type  1   force =    -0.01464208    0.05180440    0.35282420
     atom   20 type  1   force =     0.37791572   -1.15364650   -7.46182489
     atom   21 type  1   force =    -0.36532635    1.22080433    8.01787750
     atom   22 type  1   force =    -0.01648830    0.05700117    0.35246560
     atom   23 type  1   force =     0.34305836   -1.22683407   -7.45162247
     atom   24 type  1   force =    -0.36224539    1.22265702    7.99312090
     atom   25 type  2   force =     0.78436344   -0.17368119   -1.93851601
     atom   26 type  2   force =    -0.68458808   -0.02616344   -2.02155013
     atom   27 type  2   force =    -0.25759065   -0.48891224    1.65414478
     atom   28 type  2   force =     0.15019755    0.95400877    1.49368111
     atom   29 type  2   force =     0.66574451    0.07585123    1.43658001
     atom   30 type  2   force =    -0.81929943    0.37169011    1.31787924
     atom   31 type  2   force =     0.12019163    0.93414693    1.30735963
     atom   32 type  2   force =    -0.26507167   -0.50862811    1.47097061
     atom   33 type  2   force =    -0.01740909    0.42185653   -2.03859366
     atom   34 type  2   force =    -0.22447452   -1.04833612   -1.83589471
     atom   35 type  2   force =    -0.12364249   -0.37867013   -2.50623941
     atom   36 type  2   force =     0.98561850   -0.49828107   -1.70502345
     atom   37 type  2   force =     0.26093947    0.34927419   -1.75898106
     atom   38 type  2   force =    -0.05973624   -0.96820869   -1.61417734
     atom   39 type  2   force =    -0.78456289    0.45875895    1.54629304
     atom   40 type  2   force =     0.65682381    0.01694564    1.73194005
     atom   41 type  2   force =     0.18737559    0.59034471   -2.46628688
     atom   42 type  2   force =    -0.21143209   -1.28650457   -1.99055807
     The core correction contribution to forces
     atom    1 type  1   force =     0.00000527   -0.00001952   -0.00002358
     atom    2 type  1   force =    -0.00004116    0.00006067    0.00002214
     atom    3 type  1   force =     0.00000270    0.00000260    0.00010351
     atom    4 type  1   force =    -0.00001026    0.00000082   -0.00004909
     atom    5 type  1   force =    -0.00002026    0.00008353   -0.00042149
     atom    6 type  1   force =    -0.00000443    0.00003055    0.00008224
     atom    7 type  1   force =     0.00000294   -0.00002898   -0.00000946
     atom    8 type  1   force =     0.00014807    0.00004167    0.00009342
     atom    9 type  1   force =    -0.00001136    0.00000845    0.00011838
     atom   10 type  1   force =    -0.00000605    0.00001302   -0.00003688
     atom   11 type  1   force =    -0.00009789    0.00013055    0.00059031
     atom   12 type  1   force =    -0.00000874    0.00002684    0.00008809
     atom   13 type  1   force =     0.00000847    0.00000411   -0.00002138
     atom   14 type  1   force =     0.00006993   -0.00009066    0.00028554
     atom   15 type  1   force =    -0.00000004    0.00001108    0.00008740
     atom   16 type  1   force =    -0.00000016    0.00000373    0.00002016
     atom   17 type  1   force =     0.00003784   -0.00008624   -0.00015433
     atom   18 type  1   force =    -0.00000128    0.00000898    0.00007116
     atom   19 type  1   force =     0.00001691   -0.00002315   -0.00002788
     atom   20 type  1   force =     0.00000070    0.00000159    0.00018426
     atom   21 type  1   force =    -0.00000721    0.00000481    0.00008219
     atom   22 type  1   force =    -0.00000764    0.00002023   -0.00004933
     atom   23 type  1   force =    -0.00010539   -0.00014304   -0.00051606
     atom   24 type  1   force =    -0.00000516    0.00001331    0.00008849
     atom   25 type  2   force =     0.00000000    0.00000000    0.00000000
     atom   26 type  2   force =     0.00000000    0.00000000    0.00000000
     atom   27 type  2   force =     0.00000000    0.00000000    0.00000000
     atom   28 type  2   force =     0.00000000    0.00000000    0.00000000
     atom   29 type  2   force =     0.00000000    0.00000000    0.00000000
     atom   30 type  2   force =     0.00000000    0.00000000    0.00000000
     atom   31 type  2   force =     0.00000000    0.00000000    0.00000000
     atom   32 type  2   force =     0.00000000    0.00000000    0.00000000
     atom   33 type  2   force =     0.00000000    0.00000000    0.00000000
     atom   34 type  2   force =     0.00000000    0.00000000    0.00000000
     atom   35 type  2   force =     0.00000000    0.00000000    0.00000000
     atom   36 type  2   force =     0.00000000    0.00000000    0.00000000
     atom   37 type  2   force =     0.00000000    0.00000000    0.00000000
     atom   38 type  2   force =     0.00000000    0.00000000    0.00000000
     atom   39 type  2   force =     0.00000000    0.00000000    0.00000000
     atom   40 type  2   force =     0.00000000    0.00000000    0.00000000
     atom   41 type  2   force =     0.00000000    0.00000000    0.00000000
     atom   42 type  2   force =     0.00000000    0.00000000    0.00000000
     The Hubbard contrib.    to forces
     atom    1 type  1   force =     0.00000000    0.00000000    0.00000000
     atom    2 type  1   force =     0.00000000    0.00000000    0.00000000
     atom    3 type  1   force =     0.00000000    0.00000000    0.00000000
     atom    4 type  1   force =     0.00000000    0.00000000    0.00000000
     atom    5 type  1   force =     0.00000000    0.00000000    0.00000000
     atom    6 type  1   force =     0.00000000    0.00000000    0.00000000
     atom    7 type  1   force =     0.00000000    0.00000000    0.00000000
     atom    8 type  1   force =     0.00000000    0.00000000    0.00000000
     atom    9 type  1   force =     0.00000000    0.00000000    0.00000000
     atom   10 type  1   force =     0.00000000    0.00000000    0.00000000
     atom   11 type  1   force =     0.00000000    0.00000000    0.00000000
     atom   12 type  1   force =     0.00000000    0.00000000    0.00000000
     atom   13 type  1   force =     0.00000000    0.00000000    0.00000000
     atom   14 type  1   force =     0.00000000    0.00000000    0.00000000
     atom   15 type  1   force =     0.00000000    0.00000000    0.00000000
     atom   16 type  1   force =     0.00000000    0.00000000    0.00000000
     atom   17 type  1   force =     0.00000000    0.00000000    0.00000000
     atom   18 type  1   force =     0.00000000    0.00000000    0.00000000
     atom   19 type  1   force =     0.00000000    0.00000000    0.00000000
     atom   20 type  1   force =     0.00000000    0.00000000    0.00000000
     atom   21 type  1   force =     0.00000000    0.00000000    0.00000000
     atom   22 type  1   force =     0.00000000    0.00000000    0.00000000
     atom   23 type  1   force =     0.00000000    0.00000000    0.00000000
     atom   24 type  1   force =     0.00000000    0.00000000    0.00000000
     atom   25 type  2   force =     0.00000000    0.00000000    0.00000000
     atom   26 type  2   force =     0.00000000    0.00000000    0.00000000
     atom   27 type  2   force =     0.00000000    0.00000000    0.00000000
     atom   28 type  2   force =     0.00000000    0.00000000    0.00000000
     atom   29 type  2   force =     0.00000000    0.00000000    0.00000000
     atom   30 type  2   force =     0.00000000    0.00000000    0.00000000
     atom   31 type  2   force =     0.00000000    0.00000000    0.00000000
     atom   32 type  2   force =     0.00000000    0.00000000    0.00000000
     atom   33 type  2   force =     0.00000000    0.00000000    0.00000000
     atom   34 type  2   force =     0.00000000    0.00000000    0.00000000
     atom   35 type  2   force =     0.00000000    0.00000000    0.00000000
     atom   36 type  2   force =     0.00000000    0.00000000    0.00000000
     atom   37 type  2   force =     0.00000000    0.00000000    0.00000000
     atom   38 type  2   force =     0.00000000    0.00000000    0.00000000
     atom   39 type  2   force =     0.00000000    0.00000000    0.00000000
     atom   40 type  2   force =     0.00000000    0.00000000    0.00000000
     atom   41 type  2   force =     0.00000000    0.00000000    0.00000000
     atom   42 type  2   force =     0.00000000    0.00000000    0.00000000
     The SCF correction term to forces
     atom    1 type  1   force =     0.00000291    0.00003295    0.00028126
     atom    2 type  1   force =    -0.00011164    0.00006626   -0.00012968
     atom    3 type  1   force =    -0.00002810    0.00010448    0.00037498
     atom    4 type  1   force =    -0.00001157    0.00005028    0.00028076
     atom    5 type  1   force =    -0.00004132    0.00007938   -0.00012608
     atom    6 type  1   force =    -0.00000868    0.00003056    0.00036669
     atom    7 type  1   force =    -0.00002479    0.00001703    0.00027914
     atom    8 type  1   force =     0.00011782   -0.00003075   -0.00010610
     atom    9 type  1   force =     0.00001082    0.00005986    0.00035925
     atom   10 type  1   force =    -0.00001063    0.00006077    0.00027655
     atom   11 type  1   force =     0.00005000    0.00003620   -0.00005808
     atom   12 type  1   force =    -0.00003799    0.00001173    0.00037923
     atom   13 type  1   force =     0.00000408    0.00006714    0.00028299
     atom   14 type  1   force =     0.00008881   -0.00011195   -0.00009458
     atom   15 type  1   force =     0.00003051    0.00002561    0.00038593
     atom   16 type  1   force =    -0.00002811    0.00003056    0.00028540
     atom   17 type  1   force =     0.00003290   -0.00010981   -0.00012185
     atom   18 type  1   force =    -0.00001318    0.00009497    0.00037315
     atom   19 type  1   force =    -0.00003157    0.00005737    0.00027763
     atom   20 type  1   force =    -0.00007020    0.00000765   -0.00008913
     atom   21 type  1   force =    -0.00005095    0.00004826    0.00038169
     atom   22 type  1   force =     0.00000047    0.00002268    0.00028277
     atom   23 type  1   force =    -0.00003296   -0.00006348   -0.00011921
     atom   24 type  1   force =    -0.00003855    0.00007885    0.00037909
     atom   25 type  2   force =     0.00003361   -0.00001397   -0.00007687
     atom   26 type  2   force =    -0.00003118   -0.00001672   -0.00008354
     atom   27 type  2   force =    -0.00000019    0.00000012   -0.00009734
     atom   28 type  2   force =     0.00000810    0.00000097   -0.00008437
     atom   29 type  2   force =    -0.00000966   -0.00000985   -0.00010665
     atom   30 type  2   force =     0.00001733   -0.00001180   -0.00010119
     atom   31 type  2   force =     0.00002281   -0.00001453   -0.00010120
     atom   32 type  2   force =     0.00001063   -0.00003244   -0.00009120
     atom   33 type  2   force =    -0.00000615    0.00002150   -0.00008778
     atom   34 type  2   force =     0.00001633   -0.00004011   -0.00008063
     atom   35 type  2   force =    -0.00000074   -0.00001761   -0.00009872
     atom   36 type  2   force =    -0.00000548   -0.00000306   -0.00007735
     atom   37 type  2   force =    -0.00000065   -0.00004706   -0.00007606
     atom   38 type  2   force =     0.00001045    0.00002276   -0.00008548
     atom   39 type  2   force =    -0.00000556   -0.00001604   -0.00008174
     atom   40 type  2   force =    -0.00000567   -0.00003090   -0.00008803
     atom   41 type  2   force =     0.00002691    0.00000980   -0.00004642
     atom   42 type  2   force =     0.00001482   -0.00003510   -0.00003763

     Total force =     0.437637     Total SCF correction =     0.001464


     Computing stress (Cartesian axis) and pressure

          total   stress  (Ry/bohr**3)                   (kbar)     P=      135.87
   0.00163361  -0.00010314  -0.00008621          240.31      -15.17      -12.68
  -0.00010314   0.00142004  -0.00019626          -15.17      208.90      -28.87
  -0.00008621  -0.00019626  -0.00028285          -12.68      -28.87      -41.61


     BFGS Geometry Optimization
     Energy error            =      0.0E+00 Ry
     Gradient error          =      1.8E-01 Ry/Bohr
     Cell gradient error     =      2.4E+02 kbar

     number of scf cycles    =   1
     number of bfgs steps    =   0

     enthalpy           new  =    -305.4294861949 Ry

     new trust radius        =       0.3672875232 bohr
     new conv_thr            =       0.0000010000 Ry

     new unit-cell volume =   2149.22322 a.u.^3 (   318.48202 Ang^3 )
     density =      1.59757 g/cm^3

CELL_PARAMETERS (alat=  8.00000437)
   1.202529418   0.007057480   0.046499679
  -0.605619682   1.022986650  -0.177119998
   0.164296794  -0.363179493   3.461344855

ATOMIC_POSITIONS (crystal)
C            -0.0652824227       -0.0743151399        0.1613467462
C            -0.0413477853        0.1415454133        0.3914680874
C             0.0660571383        0.0489210478        0.9306916081
C             0.1014519892        0.2586597145        0.1613079471
C             0.2930529376        0.3096144334        0.3917023532
C             0.2328260897        0.3821792941        0.9307328848
C             0.4347117821       -0.0743366120        0.1613201140
C             0.4590830115        0.1399611618        0.3913462425
C             0.5660096012        0.0487617801        0.9306102108
C             0.6015378848        0.2586034370        0.1612798869
C             0.7929280330        0.3067072363        0.3905163926
C             0.7327775140        0.3821441925        0.9306231630
C            -0.0653169039        0.4256663417        0.1613547657
C            -0.0397279974        0.6411298115        0.3911884198
C             0.0661245595        0.5490170246        0.9307368130
C             0.1015586597        0.7586876217        0.1613073255
C             0.2919928553        0.8085497079        0.3915498428
C             0.2327729225        0.8821274249        0.9306884722
C             0.4346733674        0.4256374174        0.1612745489
C             0.4594185944        0.6400006727        0.3911980480
C             0.5660904691        0.5488292788        0.9306667383
C             0.6015621200        0.7587271474        0.1612780053
C             0.7917527958        0.8080570861        0.3917907965
C             0.7327556840        0.8820882340        0.9306479555
H             0.5855361652        1.1435522044        0.5725083237
H             0.7110652323        1.0997882245        0.5781071583
H             0.4349461125        0.6470672790        0.7475284882
H             0.3099451302        0.4779510035        0.7436405538
H             0.8076192883        0.5786256930        0.7361258877
H             0.9359348874        0.5454673095        0.7391305477
H             0.3102883894       -0.0274716812        0.7345127246
H             0.4320091133        0.1419166869        0.7395075355
H             0.0855968070        0.5364484799        0.5721445319
H             0.2170728083        0.7111694765        0.5795131709
H             0.7028349947        0.6198301035        0.5917039964
H             0.5745789052        0.6670256375        0.5835709728
H             0.0890374355        0.0461303599        0.5831604605
H             0.2106701478        0.2179708848        0.5891001351
H             0.9312717327        1.0448432180        0.7512273949
H             0.8148649213        1.0921365290        0.7454772015
H             0.7160391213        0.3997139152        0.5364193920
H             0.8356915692        0.5936964405        0.5319975778



     Writing config-only to output data dir ../../results/server/9h2_abs/9H2abs_C.save/
     NEW-OLD atomic charge density approx. for the potential

     Check: negative core charge=   -0.000002
     extrapolated charge  121.47114, renormalised to  114.00000

     total cpu time spent up to now is        4.1 secs

     Self-consistent Calculation

     iteration #  1     ecut=    40.00 Ry     beta= 0.05
     Davidson diagonalization with overlap
     ethr =  1.00E-06,  avg # of iterations = 39.0

     total cpu time spent up to now is        4.7 secs

     total energy              =    -292.36328359 Ry
     estimated scf accuracy    <     228.83359587 Ry

     iteration #  2     ecut=    40.00 Ry     beta= 0.05
     Davidson diagonalization with overlap
     ethr =  1.00E-02,  avg # of iterations =  8.0

     total cpu time spent up to now is        4.8 secs

     total energy              =    -304.05720204 Ry
     estimated scf accuracy    <       7.87728458 Ry

     iteration #  3     ecut=    40.00 Ry     beta= 0.05
     Davidson diagonalization with overlap
     ethr =  6.91E-03,  avg # of iterations =  2.0

     total cpu time spent up to now is        4.9 secs

     total energy              =    -303.22339884 Ry
     estimated scf accuracy    <       7.51356982 Ry

     iteration #  4     ecut=    40.00 Ry     beta= 0.05
     Davidson diagonalization with overlap
     ethr =  6.59E-03,  avg # of iterations =  1.0

     total cpu time spent up to now is        4.9 secs

     total energy              =    -303.43141502 Ry
     estimated scf accuracy    <       7.05397722 Ry

     iteration #  5     ecut=    40.00 Ry     beta= 0.05
     Davidson diagonalization with overlap
     ethr =  6.19E-03,  avg # of iterations =  1.0

     total cpu time spent up to now is        5.0 secs

     total energy              =    -302.61902555 Ry
     estimated scf accuracy    <       6.74181739 Ry

     iteration #  6     ecut=    40.00 Ry     beta= 0.05
     Davidson diagonalization with overlap
     ethr =  5.91E-03,  avg # of iterations = 14.0

     total cpu time spent up to now is        5.1 secs

     total energy              =    -305.51042075 Ry
     estimated scf accuracy    <      24.61863604 Ry

     iteration #  7     ecut=    40.00 Ry     beta= 0.05
     Davidson diagonalization with overlap
     ethr =  5.91E-03,  avg # of iterations =  1.0

     total cpu time spent up to now is        5.2 secs

     total energy              =    -305.77354732 Ry
     estimated scf accuracy    <       3.98616250 Ry

     iteration #  8     ecut=    40.00 Ry     beta= 0.05
     Davidson diagonalization with overlap
     ethr =  3.50E-03,  avg # of iterations =  1.0

     total cpu time spent up to now is        5.3 secs

     total energy              =    -305.66624639 Ry
     estimated scf accuracy    <       2.39725589 Ry

     iteration #  9     ecut=    40.00 Ry     beta= 0.05
     Davidson diagonalization with overlap
     ethr =  2.10E-03,  avg # of iterations =  1.0

     total cpu time spent up to now is        5.3 secs

     total energy              =    -305.63700593 Ry
     estimated scf accuracy    <       0.63753050 Ry

     iteration # 10     ecut=    40.00 Ry     beta= 0.05
     Davidson diagonalization with overlap
     ethr =  5.59E-04,  avg # of iterations =  1.0

     total cpu time spent up to now is        5.4 secs

     total energy              =    -305.59316673 Ry
     estimated scf accuracy    <       0.28381039 Ry

     iteration # 11     ecut=    40.00 Ry     beta= 0.05
     Davidson diagonalization with overlap
     ethr =  2.49E-04,  avg # of iterations =  2.0

     total cpu time spent up to now is        5.5 secs

     total energy              =    -305.59340540 Ry
     estimated scf accuracy    <       0.09841859 Ry

     iteration # 12     ecut=    40.00 Ry     beta= 0.05
     Davidson diagonalization with overlap
     ethr =  8.63E-05,  avg # of iterations =  6.0

     total cpu time spent up to now is        5.6 secs

     total energy              =    -305.60557390 Ry
     estimated scf accuracy    <       0.04841730 Ry

     iteration # 13     ecut=    40.00 Ry     beta= 0.05
     Davidson diagonalization with overlap
     ethr =  4.25E-05,  avg # of iterations =  2.0

     total cpu time spent up to now is        5.6 secs

     total energy              =    -305.59941229 Ry
     estimated scf accuracy    <       0.05090241 Ry

     iteration # 14     ecut=    40.00 Ry     beta= 0.05
     Davidson diagonalization with overlap
     ethr =  4.25E-05,  avg # of iterations =  2.0

     total cpu time spent up to now is        5.7 secs

     total energy              =    -305.59622900 Ry
     estimated scf accuracy    <       0.03136785 Ry

     iteration # 15     ecut=    40.00 Ry     beta= 0.05
     Davidson diagonalization with overlap
     ethr =  2.75E-05,  avg # of iterations =  2.0

     total cpu time spent up to now is        5.8 secs

     total energy              =    -305.59826689 Ry
     estimated scf accuracy    <       0.01696889 Ry

     iteration # 16     ecut=    40.00 Ry     beta= 0.05
     Davidson diagonalization with overlap
     ethr =  1.49E-05,  avg # of iterations =  2.0

     total cpu time spent up to now is        5.8 secs

     total energy              =    -305.59824946 Ry
     estimated scf accuracy    <       0.01536902 Ry

     iteration # 17     ecut=    40.00 Ry     beta= 0.05
     Davidson diagonalization with overlap
     ethr =  1.35E-05,  avg # of iterations =  2.0

     total cpu time spent up to now is        5.9 secs

     total energy              =    -305.59863873 Ry
     estimated scf accuracy    <       0.01394009 Ry

     iteration # 18     ecut=    40.00 Ry     beta= 0.05
     Davidson diagonalization with overlap
     ethr =  1.22E-05,  avg # of iterations = 13.0

     total cpu time spent up to now is        6.0 secs

     total energy              =    -305.59822243 Ry
     estimated scf accuracy    <       0.01383321 Ry

     iteration # 19     ecut=    40.00 Ry     beta= 0.05
     Davidson diagonalization with overlap
     ethr =  1.21E-05,  avg # of iterations =  1.0

     total cpu time spent up to now is        6.1 secs

     total energy              =    -305.59452998 Ry
     estimated scf accuracy    <       0.01209820 Ry

     iteration # 20     ecut=    40.00 Ry     beta= 0.05
     Davidson diagonalization with overlap
     ethr =  1.06E-05,  avg # of iterations =  4.0

     total cpu time spent up to now is        6.2 secs

     total energy              =    -305.59686902 Ry
     estimated scf accuracy    <       0.00617743 Ry

     iteration # 21     ecut=    40.00 Ry     beta= 0.05
     Davidson diagonalization with overlap
     ethr =  5.42E-06,  avg # of iterations =  6.0

     total cpu time spent up to now is        6.2 secs

     total energy              =    -305.59600257 Ry
     estimated scf accuracy    <       0.00576482 Ry

     iteration # 22     ecut=    40.00 Ry     beta= 0.05
     Davidson diagonalization with overlap
     ethr =  5.06E-06,  avg # of iterations =  2.0

     total cpu time spent up to now is        6.3 secs

     total energy              =    -305.59607141 Ry
     estimated scf accuracy    <       0.00462640 Ry

     iteration # 23     ecut=    40.00 Ry     beta= 0.05
     Davidson diagonalization with overlap
     ethr =  4.06E-06,  avg # of iterations =  2.0

     total cpu time spent up to now is        6.4 secs

     total energy              =    -305.59605318 Ry
     estimated scf accuracy    <       0.00430656 Ry

     iteration # 24     ecut=    40.00 Ry     beta= 0.05
     Davidson diagonalization with overlap
     ethr =  3.78E-06,  avg # of iterations =  1.0

     total cpu time spent up to now is        6.4 secs

     total energy              =    -305.59563701 Ry
     estimated scf accuracy    <       0.00395327 Ry

     iteration # 25     ecut=    40.00 Ry     beta= 0.05
     Davidson diagonalization with overlap
     ethr =  3.47E-06,  avg # of iterations =  1.0

     total cpu time spent up to now is        6.5 secs

     total energy              =    -305.59586584 Ry
     estimated scf accuracy    <       0.00310188 Ry

     iteration # 26     ecut=    40.00 Ry     beta= 0.05
     Davidson diagonalization with overlap
     ethr =  2.72E-06,  avg # of iterations =  1.0

     total cpu time spent up to now is        6.6 secs

     total energy              =    -305.59590044 Ry
     estimated scf accuracy    <       0.00308211 Ry

     iteration # 27     ecut=    40.00 Ry     beta= 0.05
     Davidson diagonalization with overlap
     ethr =  2.70E-06,  avg # of iterations =  1.0

     total cpu time spent up to now is        6.6 secs

     total energy              =    -305.59584303 Ry
     estimated scf accuracy    <       0.00325857 Ry

     iteration # 28     ecut=    40.00 Ry     beta= 0.05
     Davidson diagonalization with overlap
     ethr =  2.70E-06,  avg # of iterations =  1.0

     total cpu time spent up to now is        6.7 secs

     total energy              =    -305.59605215 Ry
     estimated scf accuracy    <       0.00293346 Ry

     iteration # 29     ecut=    40.00 Ry     beta= 0.05
     Davidson diagonalization with overlap
     ethr =  2.57E-06,  avg # of iterations =  2.0

     total cpu time spent up to now is        6.8 secs

     total energy              =    -305.59628261 Ry
     estimated scf accuracy    <       0.00420100 Ry

     iteration # 30     ecut=    40.00 Ry     beta= 0.05
     Davidson diagonalization with overlap
     ethr =  2.57E-06,  avg # of iterations =  1.0

     total cpu time spent up to now is        6.8 secs

     total energy              =    -305.59453566 Ry
     estimated scf accuracy    <       0.00422135 Ry

     iteration # 31     ecut=    40.00 Ry     beta= 0.05
     Davidson diagonalization with overlap
     ethr =  2.57E-06,  avg # of iterations =  2.0

     total cpu time spent up to now is        6.9 secs

     total energy              =    -305.59508472 Ry
     estimated scf accuracy    <       0.00106121 Ry

     iteration # 32     ecut=    40.00 Ry     beta= 0.05
     Davidson diagonalization with overlap
     ethr =  9.31E-07,  avg # of iterations =  5.0

     total cpu time spent up to now is        7.0 secs

     total energy              =    -305.59517975 Ry
     estimated scf accuracy    <       0.00096837 Ry

     iteration # 33     ecut=    40.00 Ry     beta= 0.05
     Davidson diagonalization with overlap
     ethr =  8.49E-07,  avg # of iterations =  2.0

     total cpu time spent up to now is        7.0 secs

     total energy              =    -305.59513597 Ry
     estimated scf accuracy    <       0.00086069 Ry

     iteration # 34     ecut=    40.00 Ry     beta= 0.05
     Davidson diagonalization with overlap
     ethr =  7.55E-07,  avg # of iterations =  1.0

     total cpu time spent up to now is        7.1 secs

     total energy              =    -305.59512095 Ry
     estimated scf accuracy    <       0.00068633 Ry

     iteration # 35     ecut=    40.00 Ry     beta= 0.05
     Davidson diagonalization with overlap
     ethr =  6.02E-07,  avg # of iterations =  2.0

     total cpu time spent up to now is        7.2 secs

     total energy              =    -305.59501653 Ry
     estimated scf accuracy    <       0.00076002 Ry

     iteration # 36     ecut=    40.00 Ry     beta= 0.05
     Davidson diagonalization with overlap
     ethr =  6.02E-07,  avg # of iterations =  2.0

     total cpu time spent up to now is        7.2 secs

     total energy              =    -305.59500876 Ry
     estimated scf accuracy    <       0.00040706 Ry

     iteration # 37     ecut=    40.00 Ry     beta= 0.05
     Davidson diagonalization with overlap
     ethr =  3.57E-07,  avg # of iterations =  2.0

     total cpu time spent up to now is        7.3 secs

     total energy              =    -305.59498559 Ry
     estimated scf accuracy    <       0.00033073 Ry

     iteration # 38     ecut=    40.00 Ry     beta= 0.05
     Davidson diagonalization with overlap
     ethr =  2.90E-07,  avg # of iterations =  2.0

     total cpu time spent up to now is        7.4 secs

     total energy              =    -305.59498439 Ry
     estimated scf accuracy    <       0.00025723 Ry

     iteration # 39     ecut=    40.00 Ry     beta= 0.05
     Davidson diagonalization with overlap
     ethr =  2.26E-07,  avg # of iterations =  2.0

     total cpu time spent up to now is        7.5 secs

     total energy              =    -305.59496561 Ry
     estimated scf accuracy    <       0.00021454 Ry

     iteration # 40     ecut=    40.00 Ry     beta= 0.05
     Davidson diagonalization with overlap
     ethr =  1.88E-07,  avg # of iterations =  2.0

     total cpu time spent up to now is        7.5 secs

     total energy              =    -305.59494680 Ry
     estimated scf accuracy    <       0.00015533 Ry

     iteration # 41     ecut=    40.00 Ry     beta= 0.05
     Davidson diagonalization with overlap
     ethr =  1.36E-07,  avg # of iterations =  6.0

     total cpu time spent up to now is        7.6 secs

     total energy              =    -305.59493895 Ry
     estimated scf accuracy    <       0.00009581 Ry

     iteration # 42     ecut=    40.00 Ry     beta= 0.05
     Davidson diagonalization with overlap
     ethr =  8.40E-08,  avg # of iterations =  2.0

     total cpu time spent up to now is        7.7 secs

     total energy              =    -305.59494565 Ry
     estimated scf accuracy    <       0.00006631 Ry

     iteration # 43     ecut=    40.00 Ry     beta= 0.05
     Davidson diagonalization with overlap
     ethr =  5.82E-08,  avg # of iterations =  1.0

     total cpu time spent up to now is        7.7 secs

     total energy              =    -305.59494126 Ry
     estimated scf accuracy    <       0.00006014 Ry

     iteration # 44     ecut=    40.00 Ry     beta= 0.05
     Davidson diagonalization with overlap
     ethr =  5.28E-08,  avg # of iterations =  1.0

     total cpu time spent up to now is        7.8 secs

     total energy              =    -305.59493551 Ry
     estimated scf accuracy    <       0.00005250 Ry

     iteration # 45     ecut=    40.00 Ry     beta= 0.05
     Davidson diagonalization with overlap
     ethr =  4.61E-08,  avg # of iterations =  2.0

     total cpu time spent up to now is        7.9 secs

     total energy              =    -305.59493563 Ry
     estimated scf accuracy    <       0.00003332 Ry

     iteration # 46     ecut=    40.00 Ry     beta= 0.05
     Davidson diagonalization with overlap
     ethr =  2.92E-08,  avg # of iterations =  2.0

     total cpu time spent up to now is        7.9 secs

     total energy              =    -305.59493646 Ry
     estimated scf accuracy    <       0.00002492 Ry

     iteration # 47     ecut=    40.00 Ry     beta= 0.05
     Davidson diagonalization with overlap
     ethr =  2.19E-08,  avg # of iterations =  2.0

     total cpu time spent up to now is        8.0 secs

     total energy              =    -305.59492685 Ry
     estimated scf accuracy    <       0.00002709 Ry

     iteration # 48     ecut=    40.00 Ry     beta= 0.05
     Davidson diagonalization with overlap
     ethr =  2.19E-08,  avg # of iterations =  4.0

     total cpu time spent up to now is        8.1 secs

     total energy              =    -305.59492919 Ry
     estimated scf accuracy    <       0.00001675 Ry

     iteration # 49     ecut=    40.00 Ry     beta= 0.05
     Davidson diagonalization with overlap
     ethr =  1.47E-08,  avg # of iterations =  2.0

     total cpu time spent up to now is        8.2 secs

     total energy              =    -305.59493056 Ry
     estimated scf accuracy    <       0.00000597 Ry

     iteration # 50     ecut=    40.00 Ry     beta= 0.05
     Davidson diagonalization with overlap
     ethr =  5.23E-09,  avg # of iterations =  4.0

     total cpu time spent up to now is        8.2 secs

     total energy              =    -305.59493071 Ry
     estimated scf accuracy    <       0.00000506 Ry

     iteration # 51     ecut=    40.00 Ry     beta= 0.05
     Davidson diagonalization with overlap
     ethr =  4.44E-09,  avg # of iterations =  2.0

     total cpu time spent up to now is        8.3 secs

     total energy              =    -305.59493045 Ry
     estimated scf accuracy    <       0.00000447 Ry

     iteration # 52     ecut=    40.00 Ry     beta= 0.05
     Davidson diagonalization with overlap
     ethr =  3.92E-09,  avg # of iterations =  1.0

     total cpu time spent up to now is        8.4 secs

     total energy              =    -305.59493051 Ry
     estimated scf accuracy    <       0.00000383 Ry

     iteration # 53     ecut=    40.00 Ry     beta= 0.05
     Davidson diagonalization with overlap
     ethr =  3.36E-09,  avg # of iterations =  2.0

     total cpu time spent up to now is        8.4 secs

     total energy              =    -305.59493062 Ry
     estimated scf accuracy    <       0.00000357 Ry

     iteration # 54     ecut=    40.00 Ry     beta= 0.05
     Davidson diagonalization with overlap
     ethr =  3.13E-09,  avg # of iterations =  1.0

     total cpu time spent up to now is        8.5 secs

     total energy              =    -305.59493044 Ry
     estimated scf accuracy    <       0.00000326 Ry

     iteration # 55     ecut=    40.00 Ry     beta= 0.05
     Davidson diagonalization with overlap
     ethr =  2.86E-09,  avg # of iterations =  1.0

     total cpu time spent up to now is        8.6 secs

     total energy              =    -305.59492998 Ry
     estimated scf accuracy    <       0.00000292 Ry

     iteration # 56     ecut=    40.00 Ry     beta= 0.05
     Davidson diagonalization with overlap
     ethr =  2.56E-09,  avg # of iterations =  2.0

     total cpu time spent up to now is        8.6 secs

     total energy              =    -305.59492965 Ry
     estimated scf accuracy    <       0.00000170 Ry

     iteration # 57     ecut=    40.00 Ry     beta= 0.05
     Davidson diagonalization with overlap
     ethr =  1.49E-09,  avg # of iterations =  3.0

     total cpu time spent up to now is        8.7 secs

     End of self-consistent calculation

          k = 0.0000 0.0000 0.0000 (  8607 PWs)   bands (ev):

   -14.7352 -14.5034 -14.2989  -9.8843  -9.7641  -9.7278  -9.6529  -9.5770
    -9.5478  -9.5048  -9.4376  -9.4139  -8.7061  -8.6740  -8.6046  -8.4791
    -8.4701  -8.4323  -8.3497  -8.3410  -8.3135  -6.6944  -4.4430  -3.5198
    -2.8573  -2.1880  -2.1610  -2.1312  -2.0819  -2.0071  -1.9855  -1.9330
    -1.8879  -1.8642  -1.7995  -1.7169  -1.1335  -0.7720  -0.3605  -0.2616
    -0.1198   0.8678   0.9173   1.0363   1.1348   1.1719   1.2707   1.2756
     1.3879   1.4303   1.6203   1.7099   1.7385   2.0710   2.1021   2.1335
     3.0687   5.2279   5.3101   5.3802   5.6871   5.7019   5.7655   5.9248
     5.9621   6.0918   7.0512   7.7496

     the Fermi energy is     4.3841 ev

!    total energy              =    -305.59492904 Ry
     estimated scf accuracy    <       0.00000100 Ry
     smearing contrib. (-TS)   =      -0.00000000 Ry
     internal energy E=F+TS    =    -305.59492904 Ry

     The total energy is F=E-TS. E is the sum of the following terms:
     one-electron contribution =    -338.09272483 Ry
     hartree contribution      =     215.84805243 Ry
     xc contribution           =    -110.29816327 Ry
     ewald contribution        =     -73.05209337 Ry

     convergence has been achieved in  57 iterations

     Forces acting on atoms (cartesian axes, Ry/au):

     atom    1 type  1   force =     0.00472385   -0.00441949    0.00097018
     atom    2 type  1   force =    -0.01011828    0.00730703   -0.00539307
     atom    3 type  1   force =     0.00285072   -0.00265994   -0.00080115
     atom    4 type  1   force =    -0.00468516    0.00448190   -0.00073095
     atom    5 type  1   force =     0.01121064   -0.00555715    0.00295883
     atom    6 type  1   force =    -0.00297724    0.00292564   -0.00270561
     atom    7 type  1   force =     0.00442642   -0.00414088    0.00081581
     atom    8 type  1   force =    -0.00623016    0.00312597   -0.00611910
     atom    9 type  1   force =     0.00293866   -0.00272657   -0.00118819
     atom   10 type  1   force =    -0.00436343    0.00429295   -0.00088049
     atom   11 type  1   force =     0.01511517   -0.01825672   -0.02393544
     atom   12 type  1   force =    -0.00296023    0.00282830   -0.00201926
     atom   13 type  1   force =     0.00438808   -0.00450459    0.00095699
     atom   14 type  1   force =    -0.00468958    0.00992542   -0.00742411
     atom   15 type  1   force =     0.00279637   -0.00257834   -0.00107042
     atom   16 type  1   force =    -0.00520194    0.00452115   -0.00282960
     atom   17 type  1   force =     0.00297962   -0.00523797    0.00074688
     atom   18 type  1   force =    -0.00296587    0.00297512   -0.00182755
     atom   19 type  1   force =     0.00413482   -0.00385074    0.00177037
     atom   20 type  1   force =     0.00066689    0.00102745   -0.00425492
     atom   21 type  1   force =     0.00298254   -0.00253330   -0.00018333
     atom   22 type  1   force =    -0.00480622    0.00419253   -0.00060165
     atom   23 type  1   force =     0.00894949   -0.01013476    0.00624115
     atom   24 type  1   force =    -0.00278702    0.00279308   -0.00228173
     atom   25 type  2   force =     0.02340242   -0.00021806   -0.01111350
     atom   26 type  2   force =    -0.02292734   -0.02066293   -0.00038203
     atom   27 type  2   force =    -0.00395096   -0.00954038    0.00440788
     atom   28 type  2   force =     0.00254883    0.00903375    0.00598978
     atom   29 type  2   force =     0.01164079   -0.00147942    0.00147999
     atom   30 type  2   force =    -0.01320979    0.00253409   -0.00022733
     atom   31 type  2   force =     0.00222753    0.00655334   -0.00131131
     atom   32 type  2   force =    -0.00374463   -0.00511702    0.00405561
     atom   33 type  2   force =     0.00302555    0.02488389   -0.01421595
     atom   34 type  2   force =     0.03185782   -0.01849445    0.00460543
     atom   35 type  2   force =    -0.11286639    0.04709323    0.01716858
     atom   36 type  2   force =    -0.04913893    0.04961591    0.05144765
     atom   37 type  2   force =     0.00614980    0.00479508   -0.00476480
     atom   38 type  2   force =    -0.00145266   -0.01100869   -0.00020972
     atom   39 type  2   force =    -0.01217799    0.00721886    0.00675307
     atom   40 type  2   force =     0.01222620   -0.00437320    0.00628731
     atom   41 type  2   force =     0.06418883    0.02148264   -0.02127808
     atom   42 type  2   force =     0.04582277   -0.08611273    0.00109376
     The non-local contrib.  to forces
     atom    1 type  1   force =     0.01116666   -0.01031940    0.00182974
     atom    2 type  1   force =     0.00993975   -0.00079395   -0.00370742
     atom    3 type  1   force =     0.00864018   -0.00846822   -0.00051419
     atom    4 type  1   force =    -0.01084541    0.01212901    0.00325941
     atom    5 type  1   force =     0.02109715   -0.04337535    0.02097670
     atom    6 type  1   force =    -0.00935922    0.00842294   -0.00133514
     atom    7 type  1   force =     0.01259363   -0.01007680    0.00167511
     atom    8 type  1   force =    -0.02173791    0.03235712   -0.00505672
     atom    9 type  1   force =     0.00906206   -0.00699803    0.00022927
     atom   10 type  1   force =    -0.01327216    0.01259158    0.00296770
     atom   11 type  1   force =    -0.00556286   -0.00608985   -0.02217706
     atom   12 type  1   force =    -0.00772550    0.00726470   -0.00030638
     atom   13 type  1   force =     0.01158993   -0.01176511    0.00175229
     atom   14 type  1   force =    -0.03621691    0.00857360   -0.00123221
     atom   15 type  1   force =     0.00843790   -0.00934983    0.00012814
     atom   16 type  1   force =    -0.01262189    0.01101917   -0.00069795
     atom   17 type  1   force =     0.02369669   -0.01597084    0.00786239
     atom   18 type  1   force =    -0.00934580    0.00939543   -0.00069354
     atom   19 type  1   force =     0.01191570   -0.01070867    0.00443419
     atom   20 type  1   force =    -0.02030301    0.02579425   -0.01159935
     atom   21 type  1   force =     0.00834907   -0.00758009    0.00099524
     atom   22 type  1   force =    -0.01202696    0.01030961    0.00387081
     atom   23 type  1   force =     0.03525888   -0.00449267    0.02709067
     atom   24 type  1   force =    -0.00842246    0.00877756   -0.00049845
     atom   25 type  2   force =     0.05682566   -0.00824811    0.00606781
     atom   26 type  2   force =    -0.05673308    0.01444522   -0.01115388
     atom   27 type  2   force =    -0.01819472   -0.06495396    0.00486624
     atom   28 type  2   force =     0.01816603    0.06463605   -0.00354722
     atom   29 type  2   force =     0.06585116   -0.01290092    0.00792796
     atom   30 type  2   force =    -0.06599175    0.01287161   -0.00850478
     atom   31 type  2   force =     0.01677697    0.06651134   -0.00246814
     atom   32 type  2   force =    -0.01739807   -0.06612142    0.00309871
     atom   33 type  2   force =     0.01501407    0.05908973   -0.00161159
     atom   34 type  2   force =    -0.01717766   -0.05877490   -0.00059735
     atom   35 type  2   force =    -0.04130197    0.01134206   -0.02337709
     atom   36 type  2   force =     0.04579636   -0.01017528    0.01315688
     atom   37 type  2   force =     0.01648928    0.06372987   -0.00275280
     atom   38 type  2   force =    -0.01543371   -0.06566280    0.00099084
     atom   39 type  2   force =    -0.06314861    0.01879005   -0.01187730
     atom   40 type  2   force =     0.06337507   -0.01815522    0.01314786
     atom   41 type  2   force =     0.00684594    0.04216797   -0.00505446
     atom   42 type  2   force =    -0.00930172   -0.04565248    0.01860917
     The ionic contribution  to forces
     atom    1 type  1   force =     0.06317773   -0.09445239   -0.32318862
     atom    2 type  1   force =    -0.08894273    0.96491074    6.96650112
     atom    3 type  1   force =     0.35017207   -1.15770355   -7.42386346
     atom    4 type  1   force =    -0.02432047   -0.00676242   -0.33495792
     atom    5 type  1   force =    -0.28118066    0.88824682    7.04625651
     atom    6 type  1   force =     0.27129191   -1.07584494   -7.41525279
     atom    7 type  1   force =     0.05253307   -0.09445344   -0.32941430
     atom    8 type  1   force =    -0.50418900    0.98629670    6.78884866
     atom    9 type  1   force =     0.31173166   -1.13733620   -7.42959505
     atom   10 type  1   force =    -0.03924784   -0.00380606   -0.34077087
     atom   11 type  1   force =    -0.18452881    0.88457940    6.40545058
     atom   12 type  1   force =     0.24614791   -1.07503556   -7.44771660
     atom   13 type  1   force =     0.05587695   -0.08413553   -0.32841853
     atom   14 type  1   force =    -0.31899258    1.23711418    6.67030992
     atom   15 type  1   force =     0.31766046   -1.13699858   -7.41515792
     atom   16 type  1   force =    -0.03421812   -0.00682556   -0.33157354
     atom   17 type  1   force =    -0.16177458    0.98415277    7.00051608
     atom   18 type  1   force =     0.24570925   -1.06911920   -7.44609159
     atom   19 type  1   force =     0.05938197   -0.09254303   -0.33295815
     atom   20 type  1   force =    -0.39556779    1.14410917    6.90971378
     atom   21 type  1   force =     0.34132663   -1.15551838   -7.43501010
     atom   22 type  1   force =    -0.02885319   -0.01466813   -0.33638183
     atom   23 type  1   force =    -0.20523481    1.10703506    6.99462575
     atom   24 type  1   force =     0.26788492   -1.08768310   -7.41970092
     atom   25 type  2   force =    -0.79124962    0.18793131    1.79710078
     atom   26 type  2   force =     0.70761782   -0.03005943    1.89510425
     atom   27 type  2   force =     0.26378049    0.57787212   -1.54711540
     atom   28 type  2   force =    -0.18032783   -1.01260564   -1.37935545
     atom   29 type  2   force =    -0.74690384   -0.04288917   -1.34674264
     atom   30 type  2   force =     0.87960847   -0.36985174   -1.21221689
     atom   31 type  2   force =    -0.15284189   -1.00153164   -1.21036669
     atom   32 type  2   force =     0.26933314    0.61460877   -1.37053239
     atom   33 type  2   force =    -0.03170541   -0.46615916    1.88485612
     atom   34 type  2   force =     0.27455835    1.03972847    1.71070668
     atom   35 type  2   force =     0.14756243    0.27440737    2.07529375
     atom   36 type  2   force =    -0.91227541    0.49014300    1.51901159
     atom   37 type  2   force =    -0.25952786   -0.46623547    1.62376814
     atom   38 type  2   force =     0.09959894    1.02082870    1.48098269
     atom   39 type  2   force =     0.84273199   -0.45343513   -1.41925840
     atom   40 type  2   force =    -0.73430486    0.02126351   -1.63344775
     atom   41 type  2   force =    -0.13591817   -0.32775937    2.37238094
     atom   42 type  2   force =     0.14441930    1.04018469    2.06766046
     The local contribution  to forces
     atom    1 type  1   force =    -0.06922131    0.10000800    0.32202267
     atom    2 type  1   force =     0.06914889   -0.95662708   -6.96789586
     atom    3 type  1   force =    -0.35553088    1.16307946    7.42303116
     atom    4 type  1   force =     0.02993338   -0.00063396    0.33063985
     atom    5 type  1   force =     0.27200925   -0.85166161   -7.06330401
     atom    6 type  1   force =    -0.26523655    1.07060326    7.41323145
     atom    7 type  1   force =    -0.06014380    0.09997932    0.32826311
     atom    8 type  1   force =     0.51907344   -1.01405488   -6.78990074
     atom    9 type  1   force =    -0.31748877    1.14123535    7.42759850
     atom   10 type  1   force =     0.04773950   -0.00421069    0.33660216
     atom   11 type  1   force =     0.20481112   -0.89671360   -6.40765256
     atom   12 type  1   force =    -0.24172267    1.07079368    7.44534555
     atom   13 type  1   force =    -0.06256470    0.09078867    0.32738609
     atom   14 type  1   force =     0.34918594   -1.23578874   -6.67646137
     atom   15 type  1   force =    -0.32291522    1.14328318    7.41343813
     atom   16 type  1   force =     0.04117640    0.00077784    0.32895438
     atom   17 type  1   force =     0.14235784   -0.97424596   -7.00691891
     atom   18 type  1   force =    -0.23970551    1.06304267    7.44430393
     atom   19 type  1   force =    -0.06670704    0.09885195    0.33010203
     atom   20 type  1   force =     0.41554429   -1.16779286   -6.90248814
     atom   21 type  1   force =    -0.34632356    1.16009817    7.43329671
     atom   22 type  1   force =     0.03559850    0.00913084    0.33152750
     atom   23 type  1   force =     0.17990396   -1.11299197   -7.01442733
     atom   24 type  1   force =    -0.26258442    1.08196528    7.41728035
     atom   25 type  2   force =     0.75782182   -0.17987186   -1.81412845
     atom   26 type  2   force =    -0.67381062   -0.00503616   -1.88417260
     atom   27 type  2   force =    -0.24954021   -0.52246228    1.54664952
     atom   28 type  2   force =     0.16471817    0.95701698    1.38888607
     atom   29 type  2   force =     0.69271014    0.05430256    1.34031283
     atom   30 type  2   force =    -0.82684508    0.35951625    1.22050106
     atom   31 type  2   force =     0.13830183    0.94159762    1.21153695
     atom   32 type  2   force =    -0.25567823   -0.55362228    1.37149738
     atom   33 type  2   force =     0.01971272    0.43196906   -1.89730812
     atom   34 type  2   force =    -0.22551185   -0.99941885   -1.70534707
     atom   35 type  2   force =    -0.21919975   -0.23862120   -2.03461654
     atom   36 type  2   force =     0.81733008   -0.43032731   -1.48057068
[...]
     atom   40 type  2   force =    -0.57827688   -0.10982768   -2.30090085
     atom   41 type  2   force =    -0.08431235    0.19539728    1.37463009
     atom   42 type  2   force =     0.07521648    0.07298841    1.37304625
     The local contribution  to forces
     atom    1 type  1   force =    -0.10200681    0.22680343    1.43432795
     atom    2 type  1   force =     0.13526980   -1.09860371   -8.04755111
     atom    3 type  1   force =    -0.19191320    0.83321894    6.17801621
     atom    4 type  1   force =    -0.08984876    0.18867046    1.48905012
     atom    5 type  1   force =     0.25472264   -1.10191790   -8.30649343
     atom    6 type  1   force =    -0.17514563    0.86618766    6.24051237
     atom    7 type  1   force =     0.00009773    0.22136194    1.46584576
     atom    8 type  1   force =     0.31985627   -1.11885693   -8.21896306
     atom    9 type  1   force =    -0.21384588    0.90110914    6.30404184
     atom   10 type  1   force =    -0.00014662    0.19927988    1.48609088
     atom   11 type  1   force =     0.29418375   -1.10058384   -7.64324991
     atom   12 type  1   force =    -0.18676835    0.91437593    6.22056272
     atom   13 type  1   force =    -0.04643056    0.17201551    1.51863982
     atom   14 type  1   force =     0.22477134   -1.22444884   -8.16340868
     atom   15 type  1   force =    -0.23009855    0.89283803    6.22540741
     atom   16 type  1   force =    -0.04161883    0.18783154    1.42688870
     atom   17 type  1   force =     0.29413539   -1.20438930   -8.24800345
     atom   18 type  1   force =    -0.20520228    0.85545614    6.19284166
     atom   19 type  1   force =    -0.04825281    0.19482775    1.34379951
     atom   20 type  1   force =     0.28446238   -1.07329785   -7.66937833
     atom   21 type  1   force =    -0.17076308    0.90502537    6.17060133
     atom   22 type  1   force =    -0.03930327    0.26460231    1.49966968
     atom   23 type  1   force =     0.19292818   -1.19461271   -8.09757895
     atom   24 type  1   force =    -0.15740857    0.87606284    6.27319933
     atom   25 type  2   force =     0.05101968   -0.30549827   -1.33928013
     atom   26 type  2   force =     0.08278609   -0.05785176   -1.34412664
     atom   27 type  2   force =    -0.28517962   -0.24729671    2.31144181
     atom   28 type  2   force =     0.13512319    0.96175068    2.21273506
     atom   29 type  2   force =     0.51760163    0.11574172    2.43662407
     atom   30 type  2   force =    -0.66968928    0.57150127    2.32359861
     atom   31 type  2   force =     0.08718768    0.91849798    2.16840607
     atom   32 type  2   force =    -0.16361231   -0.32753988    2.36181081
     atom   33 type  2   force =     0.14301045   -0.11616538   -1.38767987
     atom   34 type  2   force =    -0.07644398   -0.29124494   -1.34879198
     atom   35 type  2   force =     0.17410372   -0.26280241   -1.32798401
     atom   36 type  2   force =     0.07343616   -0.18271241   -1.31813450
     atom   37 type  2   force =     0.01894738    0.38625353   -1.97538933
     atom   38 type  2   force =    -0.04201445   -0.94951891   -1.79696225
     atom   39 type  2   force =    -0.72502871    0.47930547    2.25047669
     atom   40 type  2   force =     0.52341131    0.12581368    2.29532849
     atom   41 type  2   force =     0.08376254   -0.19462362   -1.36941456
     atom   42 type  2   force =    -0.05584194   -0.08499772   -1.37403804
     The core correction contribution to forces
     atom    1 type  1   force =    -0.00018970   -0.00000612   -0.00095707
     atom    2 type  1   force =    -0.00079311    0.00033824    0.00060788
     atom    3 type  1   force =     0.00002238    0.00040626    0.00229872
     atom    4 type  1   force =    -0.00022332   -0.00027546   -0.00106235
     atom    5 type  1   force =     0.00019356    0.00032127    0.00039963
     atom    6 type  1   force =     0.00021184    0.00023351    0.00241818
     atom    7 type  1   force =     0.00012947   -0.00009247   -0.00078338
     atom    8 type  1   force =     0.00021965    0.00005930    0.00031901
     atom    9 type  1   force =    -0.00035424    0.00046414    0.00265464
     atom   10 type  1   force =     0.00032539   -0.00025969   -0.00111376
     atom   11 type  1   force =     0.00030166   -0.00000970    0.00178223
     atom   12 type  1   force =    -0.00017200    0.00018231    0.00238681
     atom   13 type  1   force =     0.00003505   -0.00019358   -0.00066421
     atom   14 type  1   force =    -0.00005757   -0.00018761    0.00018161
     atom   15 type  1   force =    -0.00012737    0.00037690    0.00251946
     atom   16 type  1   force =     0.00014001   -0.00029884   -0.00133399
     atom   17 type  1   force =     0.00001676    0.00021809    0.00064185
     atom   18 type  1   force =     0.00017365    0.00045621    0.00224613
     atom   19 type  1   force =    -0.00002747   -0.00020969   -0.00121905
     atom   20 type  1   force =     0.00025818    0.00030636    0.00162516
     atom   21 type  1   force =    -0.00017934    0.00023033    0.00224199
     atom   22 type  1   force =     0.00004031    0.00019033   -0.00107698
     atom   23 type  1   force =    -0.00032270   -0.00013758    0.00082255
     atom   24 type  1   force =    -0.00014647    0.00039026    0.00261615
     atom   25 type  2   force =     0.00000000    0.00000000    0.00000000
     atom   26 type  2   force =     0.00000000    0.00000000    0.00000000
     atom   27 type  2   force =     0.00000000    0.00000000    0.00000000
     atom   28 type  2   force =     0.00000000    0.00000000    0.00000000
     atom   29 type  2   force =     0.00000000    0.00000000    0.00000000
     atom   30 type  2   force =     0.00000000    0.00000000    0.00000000
     atom   31 type  2   force =     0.00000000    0.00000000    0.00000000
     atom   32 type  2   force =     0.00000000    0.00000000    0.00000000
     atom   33 type  2   force =     0.00000000    0.00000000    0.00000000
     atom   34 type  2   force =     0.00000000    0.00000000    0.00000000
     atom   35 type  2   force =     0.00000000    0.00000000    0.00000000
     atom   36 type  2   force =     0.00000000    0.00000000    0.00000000
     atom   37 type  2   force =     0.00000000    0.00000000    0.00000000
     atom   38 type  2   force =     0.00000000    0.00000000    0.00000000
     atom   39 type  2   force =     0.00000000    0.00000000    0.00000000
     atom   40 type  2   force =     0.00000000    0.00000000    0.00000000
     atom   41 type  2   force =     0.00000000    0.00000000    0.00000000
     atom   42 type  2   force =     0.00000000    0.00000000    0.00000000
     The Hubbard contrib.    to forces
     atom    1 type  1   force =     0.00000000    0.00000000    0.00000000
     atom    2 type  1   force =     0.00000000    0.00000000    0.00000000
     atom    3 type  1   force =     0.00000000    0.00000000    0.00000000
     atom    4 type  1   force =     0.00000000    0.00000000    0.00000000
     atom    5 type  1   force =     0.00000000    0.00000000    0.00000000
     atom    6 type  1   force =     0.00000000    0.00000000    0.00000000
     atom    7 type  1   force =     0.00000000    0.00000000    0.00000000
     atom    8 type  1   force =     0.00000000    0.00000000    0.00000000
     atom    9 type  1   force =     0.00000000    0.00000000    0.00000000
     atom   10 type  1   force =     0.00000000    0.00000000    0.00000000
     atom   11 type  1   force =     0.00000000    0.00000000    0.00000000
     atom   12 type  1   force =     0.00000000    0.00000000    0.00000000
     atom   13 type  1   force =     0.00000000    0.00000000    0.00000000
     atom   14 type  1   force =     0.00000000    0.00000000    0.00000000
     atom   15 type  1   force =     0.00000000    0.00000000    0.00000000
     atom   16 type  1   force =     0.00000000    0.00000000    0.00000000
     atom   17 type  1   force =     0.00000000    0.00000000    0.00000000
     atom   18 type  1   force =     0.00000000    0.00000000    0.00000000
     atom   19 type  1   force =     0.00000000    0.00000000    0.00000000
     atom   20 type  1   force =     0.00000000    0.00000000    0.00000000
     atom   21 type  1   force =     0.00000000    0.00000000    0.00000000
     atom   22 type  1   force =     0.00000000    0.00000000    0.00000000
     atom   23 type  1   force =     0.00000000    0.00000000    0.00000000
     atom   24 type  1   force =     0.00000000    0.00000000    0.00000000
     atom   25 type  2   force =     0.00000000    0.00000000    0.00000000
     atom   26 type  2   force =     0.00000000    0.00000000    0.00000000
     atom   27 type  2   force =     0.00000000    0.00000000    0.00000000
     atom   28 type  2   force =     0.00000000    0.00000000    0.00000000
     atom   29 type  2   force =     0.00000000    0.00000000    0.00000000
     atom   30 type  2   force =     0.00000000    0.00000000    0.00000000
     atom   31 type  2   force =     0.00000000    0.00000000    0.00000000
     atom   32 type  2   force =     0.00000000    0.00000000    0.00000000
     atom   33 type  2   force =     0.00000000    0.00000000    0.00000000
     atom   34 type  2   force =     0.00000000    0.00000000    0.00000000
     atom   35 type  2   force =     0.00000000    0.00000000    0.00000000
     atom   36 type  2   force =     0.00000000    0.00000000    0.00000000
     atom   37 type  2   force =     0.00000000    0.00000000    0.00000000
     atom   38 type  2   force =     0.00000000    0.00000000    0.00000000
     atom   39 type  2   force =     0.00000000    0.00000000    0.00000000
     atom   40 type  2   force =     0.00000000    0.00000000    0.00000000
     atom   41 type  2   force =     0.00000000    0.00000000    0.00000000
     atom   42 type  2   force =     0.00000000    0.00000000    0.00000000
     The SCF correction term to forces
     atom    1 type  1   force =    -0.00000670   -0.00000012   -0.00001999
     atom    2 type  1   force =    -0.00000666   -0.00000158   -0.00003965
     atom    3 type  1   force =    -0.00000977    0.00000109    0.00002984
     atom    4 type  1   force =    -0.00000608   -0.00000953   -0.00001652
     atom    5 type  1   force =     0.00000992   -0.00001045   -0.00003804
     atom    6 type  1   force =    -0.00001029    0.00000890    0.00002722
     atom    7 type  1   force =     0.00000709    0.00000502   -0.00001366
     atom    8 type  1   force =     0.00000921   -0.00000220   -0.00003880
     atom    9 type  1   force =     0.00000676   -0.00000345    0.00003170
     atom   10 type  1   force =     0.00000320   -0.00002059   -0.00001318
     atom   11 type  1   force =    -0.00000566   -0.00000751   -0.00003710
     atom   12 type  1   force =     0.00000775    0.00000818    0.00002899
     atom   13 type  1   force =    -0.00000090   -0.00001247   -0.00001594
     atom   14 type  1   force =     0.00000156   -0.00001581   -0.00003525
     atom   15 type  1   force =    -0.00000038    0.00000705    0.00003228
     atom   16 type  1   force =     0.00000714    0.00000590   -0.00001821
     atom   17 type  1   force =    -0.00000138   -0.00000038   -0.00004108
     atom   18 type  1   force =    -0.00000027   -0.00000427    0.00003036
     atom   19 type  1   force =     0.00000232   -0.00000328   -0.00001667
     atom   20 type  1   force =     0.00000157   -0.00000795   -0.00003842
     atom   21 type  1   force =    -0.00000556    0.00001685    0.00002730
     atom   22 type  1   force =    -0.00000857    0.00001099   -0.00001817
     atom   23 type  1   force =     0.00000609   -0.00000913   -0.00003894
     atom   24 type  1   force =    -0.00000609    0.00000598    0.00003032
     atom   25 type  2   force =    -0.00000012   -0.00000038   -0.00000015
     atom   26 type  2   force =     0.00000024    0.00000055    0.00000024
     atom   27 type  2   force =    -0.00000072    0.00000095    0.00001083
     atom   28 type  2   force =    -0.00000090    0.00000168    0.00001074
     atom   29 type  2   force =     0.00000007    0.00000132    0.00000987
     atom   30 type  2   force =    -0.00000001    0.00000151    0.00000967
     atom   31 type  2   force =    -0.00000081    0.00000094    0.00000900
     atom   32 type  2   force =    -0.00000074    0.00000161    0.00000874
     atom   33 type  2   force =    -0.00000140   -0.00000019    0.00000040
     atom   34 type  2   force =     0.00000028    0.00000052    0.00000107
     atom   35 type  2   force =     0.00000015   -0.00000023   -0.00000006
     atom   36 type  2   force =     0.00000083    0.00000050    0.00000123
     atom   37 type  2   force =     0.00000066   -0.00000130   -0.00000211
     atom   38 type  2   force =     0.00000091    0.00000076   -0.00000209
     atom   39 type  2   force =    -0.00000016    0.00000150    0.00001078
     atom   40 type  2   force =    -0.00000012    0.00000183    0.00001032
     atom   41 type  2   force =    -0.00000057    0.00000018    0.00000002
     atom   42 type  2   force =     0.00000018   -0.00000036   -0.00000100

     Total force =     0.004646     Total SCF correction =     0.000158


     Computing stress (Cartesian axis) and pressure

          total   stress  (Ry/bohr**3)                   (kbar)     P=       -0.08
  -0.00000089  -0.00000008  -0.00000535           -0.13       -0.01       -0.79
  -0.00000008  -0.00000138  -0.00000242           -0.01       -0.20       -0.36
  -0.00000535  -0.00000242   0.00000069           -0.79       -0.36        0.10

     Energy error            =      3.4E-05 Ry
     Gradient error          =      1.8E-03 Ry/Bohr
     Cell gradient error     =      7.9E-01 kbar

     number of scf cycles    =  50
     number of bfgs steps    =  49

     enthalpy           old  =    -306.0924411993 Ry
     enthalpy           new  =    -306.0924747983 Ry

     CASE: enthalpy          _new < enthalpy          _old

     new trust radius        =       0.0098318179 bohr

     The maximum number of steps has been reached.

     End of BFGS Geometry Optimization
     new unit-cell volume =   1662.21447 a.u.^3 (   246.31477 Ang^3 )
     density =      2.06564 g/cm^3

CELL_PARAMETERS (alat=  8.00000437)
   1.177266897   0.008074495   0.035360816
  -0.590984322   1.006486412  -0.160728682
   0.182102055  -0.432570127   2.795751809

ATOMIC_POSITIONS (crystal)
C            -0.0719189842       -0.0665562379        0.1640669898
C            -0.0328590750        0.1032177112        0.3784644815
C             0.0647914622        0.0494688455        0.9140122830
C             0.0942498051        0.2654855518        0.1630076604
C             0.3019470058        0.2720611267        0.3814052399
C             0.2312871886        0.3823474719        0.9139105554
C             0.4283151846       -0.0671591634        0.1635821908
C             0.4684205346        0.1040655840        0.3800331510
C             0.5643480481        0.0461842580        0.9129460515
C             0.5951120813        0.2654073991        0.1630189712
C             0.8009847095        0.2679097250        0.3763309320
C             0.7309142487        0.3794518442        0.9133375319
C            -0.0719175970        0.4323379463        0.1631300889
C            -0.0319168944        0.6040349098        0.3799691008
C             0.0645329381        0.5492517562        0.9136066290
C             0.0946908150        0.7653928025        0.1628668403
C             0.3019299907        0.7716974786        0.3810047333
C             0.2316693116        0.8826885525        0.9136646570
C             0.4284310520        0.4342721842        0.1654388005
C             0.4676501041        0.6004591006        0.3757750663
C             0.5642240587        0.5466875899        0.9141540637
C             0.5949420073        0.7661463493        0.1630372037
C             0.8009739880        0.7703934697        0.3797119964
C             0.7309119923        0.8789840611        0.9127566071
H             0.7374382824        1.2092375740        0.5818995401
H             0.6359884245        1.0128767916        0.5817912024
H             0.4354887861        0.6695258636        0.7598850936
H             0.2944922286        0.4970157418        0.7587107634
H             0.8130348555        0.6336134342        0.7673684225
H             0.9259668834        0.5638628945        0.7668637929
H             0.3071082928        0.0027393421        0.7594451401
H             0.4280614617        0.1798792124        0.7571137391
H             0.0792080549        0.5516020177        0.5794901387
H             0.2759606645        0.6558594210        0.5818040748
H             0.6371309309        0.6662656095        0.5834081888
H             0.5123735269        0.7849285428        0.5903595995
H             0.0980909039       -0.0062098075        0.5582293241
H             0.1942772522        0.1739199588        0.5607855609
H             0.9375549196        1.0663687703        0.7594686038
H             0.8128982399        1.1206194001        0.7602582416
H             0.8450692407        0.4452943964        0.5861163136
H             0.7306087372        0.5611960118        0.5797738562



     Writing config-only to output data dir ../../results/server/9h2_abs/9H2abs_C.save/
     NEW-OLD atomic charge density approx. for the potential

     Check: negative core charge=   -0.000001
     extrapolated charge  113.99128, renormalised to  114.00000

     Writing all to output data dir ../../results/server/9h2_abs/9H2abs_C.save/
 
     init_run     :      0.25s CPU      0.40s WALL (       1 calls)
     electrons    :     82.27s CPU     87.97s WALL (      50 calls)
     update_pot   :      5.69s CPU      5.79s WALL (      50 calls)
     forces       :      3.48s CPU      6.14s WALL (      50 calls)
     stress       :      9.93s CPU     10.67s WALL (      50 calls)

     Called by init_run:
     wfcinit      :      0.04s CPU      0.07s WALL (       1 calls)
     potinit      :      0.08s CPU      0.10s WALL (       1 calls)
     hinit0       :      0.08s CPU      0.13s WALL (       1 calls)

     Called by electrons:
     c_bands      :     59.45s CPU     62.07s WALL (    1033 calls)
     sum_band     :     11.07s CPU     11.55s WALL (    1033 calls)
     v_of_rho     :      0.89s CPU      0.91s WALL (    1073 calls)
     newd         :      3.69s CPU      3.77s WALL (    1073 calls)
     mix_rho      :      6.05s CPU      6.19s WALL (    1033 calls)

     Called by c_bands:
     init_us_2    :      0.20s CPU      0.25s WALL (    2067 calls)
     init_us_2:cp :      0.19s CPU      0.24s WALL (    2067 calls)
     cegterg      :     58.57s CPU     60.32s WALL (    1040 calls)

     Called by *egterg:
     cdiaghg      :     19.12s CPU     19.33s WALL (    4152 calls)
     h_psi        :     33.09s CPU     34.56s WALL (    4220 calls)
     s_psi        :      1.09s CPU      1.11s WALL (    4220 calls)
     g_psi        :      0.06s CPU      0.06s WALL (    3179 calls)

     Called by h_psi:
     h_psi:calbec :      3.16s CPU      3.32s WALL (    4220 calls)
     vloc_psi     :     28.54s CPU     29.82s WALL (    4220 calls)
     add_vuspsi   :      1.29s CPU      1.31s WALL (    4220 calls)

     General routines
     calbec       :      4.52s CPU      4.74s WALL (    5503 calls)
     fft          :      2.69s CPU      2.81s WALL (    6799 calls)
     ffts         :      3.11s CPU      3.18s WALL (   21704 calls)
     fftw         :     31.10s CPU     32.54s WALL (  446130 calls)
     interpolate  :      0.50s CPU      0.53s WALL (    1073 calls)
 
     Parallel routines
 
     PWSCF        :   1m43.25s CPU   1m53.98s WALL

 
   This run was terminated on:  11:46:20   3Sep2024            

=------------------------------------------------------------------------------=
   JOB DONE.
=------------------------------------------------------------------------------=
