ITEM: TIMESTEP
150000
ITEM: NUMBER OF ATOMS
1901
ITEM: BOX BOUNDS pp pp pp
-3.0000000000000000e+01 3.0000000000000000e+01
-3.0000000000000000e+01 3.0000000000000000e+01
-1.8000000000000000e+01 1.8000000000000000e+01
ITEM: ATOMS id type xs ys zs
5076 2 0.139678 0.034567 0.172473
5094 2 0.310835 0.153704 0.384909
5251 2 0.16764 0.215576 0.242059
5090 2 0.274776 0.0181666 0.00810777
5239 2 0.0484966 0.199651 0.257436
5099 2 0.209145 0.213669 0.0879218
5078 2 0.0981634 0.00219738 0.0612904
1505 2 0.324294 0.246714 0.285789
5275 2 0.234354 0.102635 0.246815
5193 2 0.180489 0.0732535 0.513493
4878 2 0.311237 0.232556 0.595218
5074 2 0.184597 0.232158 0.605959
5248 2 0.173101 0.177485 0.933284
5258 2 0.162247 0.112949 0.820165
5146 2 0.274512 0.128 0.66859
5166 2 0.0703526 0.140278 0.944882
5121 2 0.28622 0.162807 0.922535
5168 2 0.113263 0.0369036 0.819364
5277 2 0.0837544 0.0484797 0.542312
5237 2 0.0713789 0.135057 0.543136
5240 2 0.14312 0.219238 0.737855
4999 2 0.237149 0.00598823 0.658735
5195 2 0.277802 0.171153 0.507167
2076 2 0.303624 0.312148 0.36474
3915 2 0.227827 0.272093 0.348594
3058 2 0.206883 0.495346 0.235623
1869 2 0.312079 0.430581 0.487179
5224 2 0.0886525 0.329199 0.311876
2856 2 0.292723 0.461703 0.235402
1851 2 0.277146 0.367851 0.354497
2130 2 0.283219 0.29888 0.159449
2116 2 0.305962 0.494013 0.0392917
2075 2 0.249041 0.396744 0.188599
4352 2 0.209051 0.3173 0.117323
2583 2 0.256044 0.430082 0.329561
2622 2 0.303138 0.38191 0.436411
1521 2 0.299983 0.448104 0.0628147
1776 2 0.323235 0.479667 0.112517
1010 2 0.244029 0.394113 0.492185
1039 2 0.306131 0.419287 0.130478
1164 2 0.309009 0.460972 0.387952
254 1 0.33214 0.358287 0.366203
1328 2 0.305602 0.396992 0.279182
2417 2 0.309892 0.489971 0.489258
5232 2 0.166804 0.385887 0.19997
1285 2 0.296113 0.332425 0.265559
5058 2 0.0823698 0.455949 0.0633368
1687 2 0.255784 0.459346 0.443162
1493 2 0.308451 0.371804 0.131686
2045 2 0.283344 0.398548 0.0493714
1569 2 0.321137 0.412623 0.38561
255 1 0.328821 0.356167 0.328371
2038 2 0.303764 0.348623 0.0543585
1522 2 0.328543 0.338939 0.46624
1782 2 0.253419 0.479949 0.132145
3466 2 0.21202 0.352071 0.290412
4136 2 0.218729 0.416554 0.0589526
4138 2 0.198567 0.401041 0.391071
3176 2 0.242897 0.340648 0.00399697
2168 2 0.253237 0.413862 0.938544
5250 2 0.127856 0.282015 0.905381
3028 2 0.169263 0.491976 0.798816
1754 2 0.301346 0.379931 0.892559
2826 2 0.277529 0.280582 0.777246
2763 2 0.290386 0.484911 0.646352
1832 2 0.277716 0.458067 0.561832
2143 2 0.265988 0.309618 0.50546
2617 2 0.299403 0.41492 0.798095
2717 2 0.298943 0.454642 0.873238
4627 2 0.0166619 0.361797 0.527399
1112 2 0.317326 0.32648 0.878781
1862 2 0.319603 0.39822 0.964555
1379 2 0.235151 0.41832 0.815426
1150 2 0.261204 0.42241 0.682497
1334 2 0.28786 0.357022 0.722608
1172 2 0.324855 0.366225 0.823471
1174 2 0.329427 0.365884 0.610244
2886 2 0.263288 0.479664 0.755142
1195 2 0.321446 0.377935 0.526648
5180 2 0.128566 0.306398 0.529643
1333 2 0.264187 0.357511 0.594811
1555 2 0.331475 0.325821 0.563353
1372 2 0.322743 0.439753 0.654747
1559 2 0.237305 0.339486 0.85494
1617 2 0.3066 0.412235 0.586663
5205 2 0.170851 0.410592 0.68836
1286 2 0.161364 0.448306 0.931609
2357 2 0.327356 0.46837 0.776164
1231 2 0.308261 0.343602 0.965489
549 1 0.327937 0.473835 0.57993
4388 2 0.148501 0.405628 0.531461
4888 2 0.210911 0.492448 0.614893
1600 2 0.291874 0.299723 0.652101
2649 2 0.310868 0.448273 0.976455
5267 2 0.1956 0.321207 0.675389
4877 2 0.0220663 0.497047 0.764176
5056 2 0.0427508 0.39963 0.843764
4509 2 0.212185 0.259303 0.853811
1630 2 0.2785 0.264676 0.988502
2129 2 0.24746 0.515091 0.332485
2837 2 0.243204 0.594328 0.430743
2825 2 0.273066 0.729744 0.3265
1550 2 0.325969 0.550763 0.367678
4941 2 0.156658 0.642265 0.390145
3966 2 0.253035 0.721666 0.042287
2185 2 0.300256 0.567115 0.0512109
4496 2 0.148042 0.552516 0.446354
136 1 0.327139 0.648658 0.121137
2125 2 0.275351 0.671194 0.124112
1365 2 0.309802 0.526226 0.100982
1436 2 0.315357 0.676692 0.378902
2343 2 0.325199 0.577077 0.117751
228 1 0.324733 0.656594 0.156476
1969 2 0.311142 0.553984 0.451708
1069 2 0.324013 0.631285 0.348048
1275 2 0.236028 0.550836 0.124155
2548 2 0.277283 0.582294 0.307685
1169 2 0.284837 0.655525 0.221839
2128 2 0.28253 0.535826 0.221257
1236 2 0.313124 0.59394 0.396984
3022 2 0.215409 0.737146 0.481725
1766 2 0.315056 0.660302 0.0326064
2480 2 0.289651 0.616804 0.0846681
4405 2 0.149057 0.576171 0.154154
3443 2 0.228553 0.588743 0.00555568
1366 2 0.302094 0.596411 0.494734
1582 2 0.324612 0.504054 0.330766
2767 2 0.236965 0.615779 0.180122
2247 2 0.306015 0.640101 0.433328
1779 2 0.305503 0.507747 0.40804
2112 2 0.323973 0.705427 0.198694
2538 2 0.253802 0.655982 0.350704
2843 2 0.311871 0.696728 0.466899
3218 2 0.265026 0.742005 0.188625
2154 2 0.301923 0.608676 0.16755
2273 2 0.324984 0.702916 0.101357
2913 2 0.248704 0.529765 0.490378
5178 2 0.0488501 0.627478 0.345265
5211 2 0.174833 0.657797 0.0500395
1936 2 0.243891 0.659111 0.48397
2884 2 0.3309 0.732409 0.393246
3438 2 0.333258 0.598589 0.230503
2246 2 0.33329 0.695678 0.302411
4569 2 0.205412 0.650822 0.935378
3331 2 0.251907 0.668197 0.674665
2153 2 0.237779 0.508529 0.983
2216 2 0.319884 0.585189 0.746735
1021 2 0.319499 0.571922 0.664411
1313 2 0.320801 0.584693 0.84037
4518 2 0.198145 0.570841 0.554944
2532 2 0.301692 0.622505 0.698974
2751 2 0.256498 0.608042 0.580934
1239 2 0.313238 0.684612 0.840629
5079 2 0.126925 0.553432 0.874956
1850 2 0.301129 0.518628 0.565657
2667 2 0.281663 0.533094 0.853236
2595 2 0.280194 0.543695 0.641697
1222 2 0.210834 0.544602 0.876237
1238 2 0.303654 0.531102 0.721533
5242 2 0.158409 0.74192 0.974959
5010 2 0.164298 0.64142 0.832562
3046 2 0.326356 0.650366 0.509478
1552 2 0.330119 0.728261 0.796341
3020 2 0.261406 0.602378 0.88632
1781 2 0.291985 0.613834 0.990949
1615 2 0.241241 0.668298 0.820183
1899 2 0.328514 0.560103 0.593612
2233 2 0.281879 0.691564 0.944938
1457 2 0.318069 0.63729 0.884713
1474 2 0.304681 0.624873 0.795865
1983 2 0.243096 0.587803 0.741682
4374 2 0.211317 0.724822 0.742483
3848 2 0.172113 0.561632 0.698756
1350 2 0.298985 0.669757 0.756749
3336 2 0.319236 0.660228 0.640809
2620 2 0.308704 0.559963 0.972102
1549 2 0.323091 0.700287 0.704536
2044 2 0.324503 0.613652 0.61858
5083 2 0.111428 0.713491 0.519555
2959 2 0.302853 0.729974 0.57288
5209 2 0.040323 0.609116 0.659633
5035 2 0.0558972 0.748794 0.925455
5262 2 0.00521357 0.609407 0.885981
5270 2 0.089538 0.642037 0.981117
5272 2 0.103154 0.511833 0.709513
1183 2 0.316634 0.502309 0.960668
5278 2 0.0985308 0.654509 0.73832
4925 2 0.270645 0.886077 0.329911
5249 2 0.00925357 0.851485 0.023964
3169 2 0.310357 0.790607 0.463973
5133 2 0.289395 0.78424 0.0965346
5233 2 0.239985 0.886893 0.475053
5045 2 0.259801 0.876893 0.0856132
5247 2 0.174886 0.923824 0.10973
5268 2 0.0445745 0.760328 0.126151
5271 2 0.136885 0.786304 0.37132
5274 2 0.309097 0.958473 0.375078
5261 2 0.185913 0.851132 0.989228
5212 2 0.0494801 0.98045 0.687812
3035 2 0.291648 0.768896 0.688151
5163 2 0.309284 0.867383 0.577129
4990 2 0.303471 0.858061 0.782713
5234 2 0.0959438 0.855978 0.554582
1266 2 0.304327 0.756132 0.892527
5231 2 0.102442 0.877415 0.91149
4083 2 0.324569 0.8388 0.950808
5141 2 0.296275 0.977706 0.789643
5155 2 0.176162 0.825734 0.766495
5196 2 0.238435 0.796762 0.578131
2041 2 0.599476 0.111339 0.461089
4270 2 0.438237 0.183379 0.0148265
3401 2 0.577249 0.231666 0.185543
2696 2 0.466291 0.21964 0.316713
3285 2 0.652177 0.19938 0.328334
2697 2 0.531984 0.199633 0.460678
3865 2 0.652338 0.194892 0.0358852
1466 2 0.65088 0.247389 0.454815
3016 2 0.654727 0.187159 0.183575
4853 2 0.368999 0.143712 0.283176
2774 2 0.562365 0.226891 0.337138
1932 2 0.55171 0.192197 0.0652043
4576 2 0.44432 0.196136 0.47554
1871 2 0.422759 0.238322 0.0924196
5246 2 0.604328 0.0155821 0.42742
1386 2 0.384367 0.24711 0.222476
5167 2 0.405672 0.0967385 0.4306
5098 2 0.56592 0.128677 0.311193
4723 2 0.49571 0.235043 0.137772
5154 2 0.421952 0.0692123 0.095757
5254 2 0.511088 0.0739269 0.178086
5260 2 0.635178 0.0754274 0.0661893
1410 2 0.373622 0.238972 0.00212683
4204 2 0.390262 0.247119 0.365935
4650 2 0.378439 0.19719 0.803425
4749 2 0.539329 0.189903 0.917508
2802 2 0.6102 0.218281 0.939699
3121 2 0.57069 0.224721 0.607402
2793 2 0.364147 0.197359 0.503318
2640 2 0.575558 0.241906 0.729411
5245 2 0.558021 0.101467 0.940711
3762 2 0.511555 0.231587 0.804938
1369 2 0.501666 0.196943 0.599125
2422 2 0.410164 0.206033 0.61062
2747 2 0.437573 0.249767 0.920327
5222 2 0.463228 0.159555 0.804205
3806 2 0.657693 0.204477 0.562049
5109 2 0.434473 0.0848594 0.887225
5144 2 0.357471 0.0776076 0.561723
5152 2 0.557545 0.143268 0.698526
5266 2 0.374904 0.106876 0.776413
3355 2 0.642058 0.24599 0.680285
5281 2 0.635325 0.0649421 0.612204
9 1 0.410223 0.347717 0.032871
7 1 0.388737 0.349399 0.0295508
6 1 0.376304 0.353674 0.0594103
8 1 0.386015 0.358909 0.0929973
13 1 0.43835 0.348053 0.0659889
11 1 0.417458 0.347829 0.0663474
10 1 0.406498 0.353446 0.0974185
12 1 0.417339 0.359445 0.130966
15 1 0.448108 0.35366 0.0968693
14 1 0.439813 0.357716 0.130897
58 1 0.377271 0.374323 0.119105
53 1 0.359051 0.385967 0.106088
54 1 0.360027 0.409468 0.107821
59 1 0.377639 0.419604 0.126688
71 1 0.411052 0.375304 0.157237
65 1 0.390854 0.384265 0.146552
66 1 0.390596 0.407808 0.152734
67 1 0.409782 0.419201 0.169582
72 1 0.42804 0.386654 0.182244
74 1 0.427584 0.409659 0.190066
17 1 0.464901 0.361157 0.0843689
16 1 0.454417 0.365657 0.155894
20 1 0.498923 0.357917 0.0965981
19 1 0.479794 0.364438 0.107585
18 1 0.475787 0.366842 0.143694
21 1 0.49364 0.3658 0.167317
25 1 0.526729 0.34308 0.103493
23 1 0.511209 0.349052 0.120084
22 1 0.512401 0.35698 0.156165
24 1 0.532999 0.360431 0.173334
27 1 0.544029 0.34085 0.120476
26 1 0.54928 0.35134 0.152642
78 1 0.450711 0.379614 0.185653
76 1 0.448607 0.422192 0.200278
85 1 0.493346 0.381299 0.194819
81 1 0.470984 0.390214 0.202576
82 1 0.471075 0.413722 0.210027
86 1 0.493585 0.427826 0.210422
98 1 0.535409 0.379774 0.194717
93 1 0.514966 0.392743 0.201276
92 1 0.516148 0.417315 0.206117
97 1 0.536749 0.428423 0.192094
102 1 0.557372 0.390018 0.192021
101 1 0.555656 0.414283 0.187702
28 1 0.557752 0.335095 0.0952873
29 1 0.570885 0.355562 0.159674
33 1 0.588448 0.338357 0.0694586
31 1 0.579206 0.336727 0.101432
30 1 0.586371 0.347387 0.133252
32 1 0.606699 0.355496 0.124968
36 1 0.623074 0.320394 0.0465472
34 1 0.609815 0.330771 0.0716931
35 1 0.618361 0.346345 0.095042
37 1 0.63923 0.354062 0.0825252
107 1 0.575882 0.376753 0.179346
106 1 0.572037 0.422072 0.165445
112 1 0.612068 0.374992 0.142155
111 1 0.597019 0.386329 0.169045
110 1 0.592538 0.409224 0.162454
116 1 0.607731 0.415348 0.1368
125 1 0.643485 0.375595 0.0913728
120 1 0.630681 0.383961 0.122423
117 1 0.627747 0.405457 0.125472
124 1 0.638746 0.417417 0.0997664
60 1 0.385248 0.439485 0.111742
55 1 0.373167 0.451369 0.088017
56 1 0.374562 0.473496 0.0860071
61 1 0.377753 0.483199 0.118482
68 1 0.413121 0.440651 0.156886
63 1 0.397513 0.450754 0.134738
64 1 0.391995 0.472383 0.144349
69 1 0.408565 0.483735 0.165224
73 1 0.432502 0.451752 0.165276
75 1 0.430807 0.473711 0.163632
57 2 0.43988 0.453042 0.0759443
50 1 0.365201 0.48453 0.0563469
77 1 0.451475 0.444207 0.185151
79 1 0.452499 0.48308 0.154159
87 1 0.494324 0.449293 0.191944
83 1 0.472374 0.455044 0.178095
84 1 0.46994 0.468018 0.146529
88 1 0.486263 0.474913 0.121303
96 1 0.532131 0.446219 0.165218
91 1 0.511687 0.456203 0.163382
90 1 0.506702 0.465483 0.125154
95 1 0.522195 0.469858 0.0956617
100 1 0.545615 0.447249 0.132697
99 1 0.542829 0.460372 0.101492
252 2 0.527273 0.400575 0.111759
359 1 0.611741 0.487247 0.374416
360 1 0.613621 0.468709 0.391523
105 1 0.56584 0.436844 0.137512
104 1 0.562 0.471219 0.0871193
115 1 0.603558 0.432666 0.115247
109 1 0.582871 0.442192 0.114068
108 1 0.582828 0.462513 0.0956188
114 1 0.602125 0.475117 0.0954329
121 1 0.642235 0.435493 0.120774
119 1 0.623193 0.445227 0.110028
118 1 0.622123 0.467228 0.108119
123 1 0.638324 0.477139 0.129928
362 1 0.630504 0.456863 0.372679
349 1 0.574159 0.485031 0.36562
350 1 0.57567 0.46908 0.395289
259 1 0.384652 0.349979 0.296731
258 1 0.365324 0.360265 0.312394
257 1 0.366535 0.361655 0.351152
299 1 0.385617 0.368809 0.357673
262 1 0.430209 0.352404 0.297799
261 1 0.407023 0.356937 0.30407
260 1 0.40476 0.36773 0.335186
312 1 0.422979 0.373371 0.356904
264 1 0.447257 0.357263 0.324185
263 1 0.442538 0.365363 0.357516
300 1 0.384297 0.38667 0.377393
295 1 0.371504 0.391195 0.404564
296 1 0.372361 0.414602 0.414464
311 1 0.421675 0.392013 0.373736
306 1 0.402718 0.397814 0.382681
307 1 0.401401 0.41905 0.383032
313 1 0.433774 0.402407 0.397664
315 1 0.433049 0.425368 0.393344
265 1 0.469944 0.358535 0.318502
317 1 0.456385 0.376528 0.383112
268 1 0.50393 0.35617 0.354334
267 1 0.48438 0.363695 0.348239
266 1 0.476152 0.37061 0.382407
326 1 0.487375 0.375656 0.41541
271 1 0.526618 0.338084 0.397416
270 1 0.510418 0.351503 0.389921
269 1 0.506202 0.365266 0.418308
339 1 0.521506 0.371728 0.446768
273 1 0.540633 0.338379 0.426121
272 1 0.541842 0.359491 0.444304
321 1 0.449369 0.390958 0.412153
327 1 0.482751 0.395232 0.440194
322 1 0.461271 0.403819 0.437106
323 1 0.460385 0.429787 0.437686
338 1 0.52147 0.394481 0.460258
334 1 0.500941 0.408442 0.456963
333 1 0.500442 0.43345 0.453763
343 1 0.54217 0.407942 0.45899
342 1 0.540812 0.431791 0.450166
274 1 0.559964 0.329114 0.416755
348 1 0.56232 0.371258 0.444573
277 1 0.597032 0.330347 0.394417
276 1 0.580579 0.337423 0.418029
275 1 0.58011 0.358888 0.426585
354 1 0.594276 0.372332 0.407038
280 1 0.609562 0.332149 0.341322
278 1 0.605763 0.34215 0.371573
279 1 0.601653 0.363866 0.373226
366 1 0.606287 0.376329 0.34491
347 1 0.562071 0.396137 0.444801
353 1 0.597458 0.393619 0.415117
352 1 0.58279 0.406148 0.438529
351 1 0.581543 0.42947 0.438568
365 1 0.616427 0.395699 0.355071
361 1 0.612794 0.403005 0.391366
358 1 0.616027 0.425327 0.398657
301 1 0.381682 0.426629 0.385557
308 1 0.418255 0.430348 0.366329
302 1 0.378514 0.446828 0.368716
297 1 0.362679 0.455925 0.387789
298 1 0.363348 0.478582 0.377685
309 1 0.417391 0.448002 0.346577
304 1 0.39507 0.456465 0.344191
305 1 0.39326 0.478173 0.329277
314 1 0.436158 0.460229 0.351708
316 1 0.434674 0.480791 0.332182
318 1 0.447947 0.43964 0.408684
328 1 0.479732 0.444433 0.44131
337 1 0.52145 0.444105 0.44023
319 1 0.450381 0.456619 0.382634
329 1 0.48214 0.463201 0.413823
324 1 0.464988 0.470855 0.391866
325 1 0.465873 0.489978 0.371676
336 1 0.520982 0.457044 0.405731
332 1 0.503059 0.470134 0.400352
331 1 0.506083 0.489128 0.377468
341 1 0.539525 0.461466 0.381432
340 1 0.540359 0.478006 0.351992
346 1 0.559379 0.437681 0.428204
357 1 0.599768 0.438811 0.420496
364 1 0.630597 0.435212 0.372089
345 1 0.557548 0.456387 0.402007
356 1 0.595786 0.459935 0.408799
52 1 0.356291 0.442293 0.0687042
1575 2 0.521945 0.429002 0.030915
253 2 0.345199 0.410672 0.327407
1146 2 0.513657 0.348835 0.260628
47 1 0.355247 0.472858 0.0274289
46 1 0.35146 0.451839 0.0366995
49 1 0.349654 0.422111 0.0800222
38 1 0.64508 0.320351 0.0516013
284 2 0.567757 0.415699 0.349168
2858 2 0.536491 0.477983 0.243181
39 1 0.650984 0.342753 0.0547708
370 1 0.629762 0.406385 0.332019
113 1 0.600956 0.496967 0.10308
128 1 0.651175 0.41176 0.0704119
127 1 0.661095 0.448204 0.120497
42 2 0.564506 0.390348 0.0932345
375 1 0.620491 0.380321 0.287003
43 2 0.371797 0.444264 0.217061
369 1 0.637107 0.42672 0.339458
89 1 0.484647 0.495658 0.10318
256 1 0.344192 0.358252 0.2996
126 1 0.655639 0.465618 0.145888
94 1 0.521313 0.491007 0.0741234
103 1 0.562352 0.494102 0.0769769
1440 2 0.412166 0.491965 0.411197
282 1 0.610877 0.365614 0.311595
292 1 0.362078 0.426099 0.440684
1735 2 0.632387 0.480082 0.0205506
291 1 0.358417 0.374876 0.415331
290 1 0.350659 0.36687 0.378487
1468 2 0.524275 0.407703 0.372561
1012 2 0.4224 0.402977 0.0808313
1018 2 0.405462 0.461174 0.443169
1141 2 0.57788 0.285778 0.0685255
1653 2 0.571694 0.4848 0.177265
344 1 0.559482 0.487565 0.335669
1480 2 0.33994 0.311419 0.0467039
281 1 0.612806 0.341841 0.311611
294 1 0.355547 0.447154 0.42493
2211 2 0.344147 0.456874 0.297471
1237 2 0.567819 0.2994 0.165399
355 1 0.592854 0.497052 0.364218
368 1 0.644348 0.468509 0.353481
367 1 0.648398 0.487981 0.376976
129 1 0.652658 0.388728 0.0641212
1911 2 0.616408 0.489625 0.477537
1382 2 0.56592 0.299636 0.33811
2 1 0.351191 0.365685 0.0124922
1421 2 0.366792 0.321678 0.4175
1442 2 0.460467 0.452879 0.272777
1360 2 0.384407 0.390383 0.238011
1614 2 0.428586 0.405378 0.281757
1177 2 0.384793 0.317504 0.15139
1399 2 0.62307 0.269525 0.0832465
1367 2 0.44924 0.3407 0.446455
1484 2 0.454179 0.412856 0.111815
1488 2 0.558053 0.346138 0.326252
1507 2 0.615797 0.302462 0.150629
2086 2 0.479932 0.310351 0.0730766
48 1 0.348724 0.378661 0.0728432
5 1 0.377431 0.340657 0.00268221
41 1 0.662452 0.355258 0.0288056
1572 2 0.551164 0.380294 0.358471
1585 2 0.385105 0.411687 0.296791
1180 2 0.406092 0.45081 0.0179692
1594 2 0.413195 0.453753 0.251149
3139 2 0.342618 0.262018 0.12762
1389 2 0.46923 0.336683 0.231911
3122 2 0.474268 0.25843 0.417455
2243 2 0.634652 0.427448 0.21221
4 1 0.356431 0.363583 0.049943
2371 2 0.359208 0.30895 0.341746
1701 2 0.388955 0.300696 0.0675787
1707 2 0.588207 0.441955 0.319975
2147 2 0.420856 0.334352 0.212682
1728 2 0.492622 0.451817 0.318732
1739 2 0.393447 0.40343 0.0371077
1745 2 0.488865 0.420305 0.361756
1445 2 0.458586 0.49827 0.0195493
1511 2 0.473405 0.314976 0.151694
1686 2 0.610814 0.437111 0.0224586
1732 2 0.433918 0.299896 0.0241185
1774 2 0.640884 0.360959 0.439027
1777 2 0.613142 0.341968 0.216091
1394 2 0.50679 0.253787 0.0199447
1798 2 0.460212 0.412168 0.317889
132 1 0.661268 0.431226 0.0579523
45 1 0.338816 0.412979 0.0523987
2862 2 0.59748 0.290201 0.268486
1640 2 0.494241 0.317557 0.45891
303 1 0.375292 0.489972 0.346887
2841 2 0.406559 0.291121 0.469011
374 1 0.631806 0.399327 0.297971
287 1 0.35711 0.407027 0.4616
131 1 0.658943 0.471298 0.184036
283 1 0.629285 0.327405 0.303231
1919 2 0.491671 0.415205 0.121165
1205 2 0.405646 0.349545 0.432587
2521 2 0.407523 0.302269 0.288385
289 1 0.353534 0.481783 0.43726
1049 2 0.654298 0.340105 0.166781
44 1 0.336581 0.391726 0.0530548
1298 2 0.467745 0.31814 0.385446
2029 2 0.410951 0.422624 0.477167
372 1 0.64338 0.440332 0.310826
293 1 0.356783 0.49057 0.405187
2065 2 0.568607 0.340647 0.246705
310 1 0.414319 0.490407 0.319454
2258 2 0.604867 0.473831 0.284599
2114 2 0.566054 0.38925 0.28055
2700 2 0.525544 0.257706 0.254141
2137 2 0.592797 0.423018 0.250966
1595 2 0.540749 0.373738 0.0356788
2212 2 0.503337 0.398811 0.28964
1228 2 0.483847 0.457886 0.0321568
373 1 0.653518 0.459541 0.321357
286 1 0.355102 0.38491 0.449392
1156 2 0.489416 0.48593 0.271963
2279 2 0.48282 0.403356 0.0345986
1785 2 0.501766 0.491369 0.482168
40 1 0.652866 0.313458 0.0846227
371 1 0.658724 0.494018 0.409032
1176 2 0.34102 0.450594 0.161226
2308 2 0.413561 0.319244 0.368825
2577 2 0.506603 0.306918 0.323226
2314 2 0.430081 0.304629 0.120459
2151 2 0.616363 0.31394 0.477053
2237 2 0.518731 0.30849 0.186942
2397 2 0.457582 0.304966 0.307284
2434 2 0.537457 0.440683 0.285163
130 1 0.651112 0.491517 0.199923
2426 2 0.52651 0.285732 0.397459
122 1 0.632954 0.49627 0.14807
1251 2 0.630609 0.40862 0.485731
320 1 0.452742 0.494288 0.339235
288 1 0.350844 0.461956 0.449048
2494 2 0.407948 0.382862 0.470464
1562 2 0.649717 0.38362 0.207253
1772 2 0.596605 0.391793 0.0546048
1094 2 0.651217 0.313706 0.391993
2187 2 0.354909 0.309312 0.260002
134 1 0.664492 0.377033 0.0369508
2892 2 0.445192 0.273715 0.215698
1102 2 0.566802 0.476779 0.486238
1950 2 0.346073 0.493789 0.192819
1553 2 0.664215 0.399512 0.409675
1916 2 0.604739 0.460638 0.195008
2139 2 0.381113 0.497944 0.243878
2660 2 0.657476 0.361702 0.358711
2859 2 0.526245 0.289804 0.104432
1926 2 0.342384 0.397532 0.19452
3106 2 0.565217 0.426775 0.0320216
1593 2 0.439557 0.390259 0.0110886
335 1 0.522903 0.492049 0.348033
1943 2 0.445864 0.495691 0.240384
2489 2 0.365277 0.35133 0.203673
1981 2 0.341302 0.333159 0.123179
2395 2 0.621137 0.280335 0.353853
133 1 0.661926 0.449163 0.0814994
330 1 0.486761 0.499146 0.369531
2105 2 0.648647 0.452547 0.459635
363 1 0.628623 0.498071 0.386353
135 2 0.423725 0.492196 0.0766184
3068 2 0.542928 0.292697 0.480306
2686 2 0.58502 0.280428 0.424869
1162 2 0.531762 0.324663 0.0153741
2796 2 0.450252 0.493121 0.469079
1815 2 0.49221 0.356918 0.00533728
2123 2 0.612226 0.368993 0.00370814
2304 2 0.349489 0.285177 0.498105
1252 2 0.634976 0.273828 0.000109654
512 1 0.398736 0.320488 0.598051
510 1 0.385352 0.329056 0.5755
509 1 0.380152 0.350473 0.584989
511 1 0.384254 0.360254 0.620944
516 1 0.425968 0.333641 0.611435
514 1 0.406595 0.330342 0.628084
513 1 0.399755 0.349503 0.641997
515 1 0.416122 0.361444 0.661335
518 1 0.444766 0.344674 0.619725
517 1 0.439134 0.357949 0.649383
559 1 0.381465 0.381803 0.630184
555 1 0.374128 0.393144 0.598775
556 1 0.365151 0.412171 0.602037
560 1 0.374595 0.422602 0.634807
572 1 0.410198 0.381777 0.680972
566 1 0.392015 0.39265 0.662898
567 1 0.38841 0.415585 0.665316
568 1 0.404243 0.431883 0.685466
573 1 0.42793 0.396446 0.69782
575 1 0.424862 0.42205 0.700012
520 1 0.460917 0.348654 0.593682
519 1 0.454332 0.37417 0.657622
523 1 0.492214 0.371909 0.58375
522 1 0.472704 0.368149 0.597883
521 1 0.469509 0.378356 0.631747
524 1 0.487049 0.38545 0.649503
528 1 0.527452 0.368412 0.600325
526 1 0.508432 0.375754 0.606769
525 1 0.506564 0.38108 0.639077
527 1 0.522988 0.37702 0.664566
530 1 0.5417 0.358329 0.619956
529 1 0.541189 0.365268 0.655124
579 1 0.450004 0.39011 0.685802
577 1 0.444733 0.436079 0.691286
586 1 0.487789 0.400475 0.676059
582 1 0.468187 0.405133 0.68921
583 1 0.465874 0.427767 0.694253
587 1 0.483942 0.441048 0.699512
599 1 0.524442 0.392551 0.691052
594 1 0.506134 0.407154 0.693846
593 1 0.504996 0.429697 0.709014
598 1 0.526308 0.439677 0.706204
603 1 0.544653 0.399027 0.705524
602 1 0.544411 0.423914 0.710392
531 1 0.556799 0.348398 0.601697
532 1 0.561054 0.365329 0.674538
536 1 0.589737 0.334995 0.598016
534 1 0.57458 0.344016 0.620763
533 1 0.578177 0.355188 0.654656
535 1 0.599674 0.360084 0.657665
539 1 0.619903 0.336516 0.566849
537 1 0.610033 0.337676 0.599911
538 1 0.614938 0.352201 0.628693
540 1 0.63433 0.364562 0.618342
608 1 0.563985 0.383778 0.699937
607 1 0.566026 0.432636 0.702349
613 1 0.605435 0.3795 0.678167
612 1 0.586737 0.392043 0.700618
611 1 0.585918 0.416959 0.702187
617 1 0.602468 0.42486 0.680023
626 1 0.63751 0.3848 0.635368
621 1 0.620829 0.392351 0.660348
618 1 0.622156 0.413857 0.676045
625 1 0.64144 0.424795 0.665341
561 1 0.375113 0.443555 0.628507
557 1 0.363801 0.452607 0.59978
558 1 0.359535 0.472847 0.604904
562 1 0.37895 0.482517 0.602488
569 1 0.407833 0.453117 0.666611
564 1 0.394457 0.455291 0.636907
565 1 0.397344 0.473355 0.613211
570 1 0.415831 0.478749 0.594004
574 1 0.4284 0.463945 0.652323
576 1 0.432463 0.471072 0.613658
860 2 0.583349 0.453985 0.819174
857 1 0.614037 0.488553 0.926394
578 1 0.446541 0.457598 0.671351
580 1 0.451145 0.48156 0.601904
588 1 0.484162 0.462793 0.681216
584 1 0.465727 0.46953 0.66201
585 1 0.467683 0.481687 0.627704
589 1 0.488288 0.48561 0.613057
597 1 0.5263 0.459793 0.683227
592 1 0.505662 0.471788 0.671255
591 1 0.506586 0.483896 0.636592
596 1 0.527406 0.48625 0.617776
601 1 0.546358 0.465033 0.663425
600 1 0.544416 0.472534 0.625349
784 1 0.343649 0.431778 0.842198
614 1 0.606276 0.493605 0.586232
858 1 0.61423 0.47063 0.90696
606 1 0.564766 0.451595 0.675725
605 1 0.56253 0.472138 0.600103
616 1 0.599626 0.44531 0.663024
610 1 0.580997 0.452904 0.648185
609 1 0.58112 0.463197 0.613428
615 1 0.601886 0.475266 0.607833
622 1 0.639146 0.447208 0.662495
620 1 0.618588 0.456356 0.656905
619 1 0.617412 0.473767 0.635839
624 1 0.628858 0.489062 0.654422
545 2 0.540233 0.420224 0.616683
861 1 0.632039 0.462731 0.888388
847 1 0.576443 0.489329 0.902307
757 1 0.388403 0.34814 0.821126
756 1 0.374585 0.348939 0.854428
755 1 0.374281 0.368689 0.870828
796 1 0.391058 0.381041 0.861491
760 1 0.42786 0.370318 0.800577
759 1 0.40562 0.363953 0.809272
758 1 0.407876 0.378428 0.83892
809 1 0.426975 0.385391 0.860418
762 1 0.447693 0.36849 0.823522
761 1 0.447041 0.381187 0.853002
797 1 0.388702 0.401071 0.868491
792 1 0.370672 0.410922 0.877402
793 1 0.375323 0.429052 0.85549
808 1 0.425312 0.400865 0.886471
803 1 0.406435 0.410236 0.885662
804 1 0.402047 0.429346 0.901233
810 1 0.436126 0.405114 0.918422
812 1 0.431248 0.424889 0.942543
763 1 0.469524 0.361845 0.817901
814 1 0.45775 0.377427 0.885338
766 1 0.507396 0.352286 0.841879
765 1 0.486754 0.363214 0.843031
764 1 0.477807 0.369161 0.87935
824 1 0.490808 0.371423 0.908902
769 1 0.534397 0.338324 0.88575
768 1 0.516191 0.348459 0.876375
767 1 0.51104 0.361063 0.907153
837 1 0.526239 0.366875 0.937213
771 1 0.546405 0.337749 0.916328
770 1 0.546258 0.355163 0.941084
818 1 0.453722 0.392386 0.915117
825 1 0.489467 0.389981 0.933446
820 1 0.470176 0.40098 0.937814
821 1 0.469378 0.424499 0.952219
836 1 0.525876 0.389297 0.952025
832 1 0.506489 0.401111 0.949164
831 1 0.507843 0.424442 0.941541
841 1 0.546635 0.401633 0.955792
840 1 0.545032 0.423444 0.939449
772 1 0.56354 0.33025 0.899682
846 1 0.567567 0.366101 0.951008
775 1 0.596963 0.332964 0.875326
774 1 0.583335 0.338064 0.904549
773 1 0.585477 0.357126 0.926031
852 1 0.600963 0.372433 0.909535
778 1 0.625998 0.342063 0.840681
776 1 0.613896 0.34559 0.86944
777 1 0.606637 0.366864 0.874956
865 1 0.611222 0.382665 0.847884
845 1 0.568229 0.390165 0.958624
851 1 0.601228 0.394624 0.917083
850 1 0.586024 0.403117 0.945455
849 1 0.583421 0.4264 0.94268
864 1 0.618303 0.40246 0.857039
859 1 0.61408 0.407407 0.893118
856 1 0.615579 0.429408 0.89869
798 1 0.392086 0.440234 0.873809
805 1 0.412734 0.437869 0.929317
799 1 0.398933 0.459319 0.864381
794 1 0.393447 0.46748 0.830532
795 1 0.396972 0.489658 0.82662
806 1 0.414169 0.460664 0.925415
801 1 0.404315 0.470182 0.893975
802 1 0.406399 0.490628 0.883541
811 1 0.434221 0.47055 0.940086
813 1 0.436022 0.489753 0.92423
815 1 0.449325 0.436546 0.96041
826 1 0.489575 0.438151 0.944399
835 1 0.525965 0.435166 0.927478
816 1 0.452578 0.460626 0.9544
827 1 0.491526 0.45912 0.926118
822 1 0.473716 0.470943 0.937977
823 1 0.472099 0.488525 0.913208
834 1 0.524328 0.452063 0.898509
830 1 0.504381 0.46363 0.892005
829 1 0.502366 0.482632 0.866175
839 1 0.543018 0.463301 0.886219
838 1 0.543433 0.483673 0.861601
844 1 0.562351 0.437723 0.937301
855 1 0.601667 0.437418 0.925765
863 1 0.624243 0.44493 0.871466
843 1 0.558475 0.458901 0.91574
854 1 0.598105 0.458285 0.91824
848 1 0.577759 0.467781 0.907103
1371 2 0.637611 0.294384 0.8739
571 1 0.415974 0.496796 0.568027
2810 2 0.440312 0.45769 0.510817
868 1 0.634182 0.43952 0.839899
867 1 0.650573 0.476217 0.88652
604 1 0.566779 0.488738 0.57211
1324 2 0.502397 0.260987 0.69128
866 1 0.652198 0.492844 0.915139
502 2 0.409288 0.431048 0.55936
782 2 0.571704 0.404248 0.616695
541 1 0.639175 0.347272 0.560613
542 1 0.643476 0.364124 0.58382
3698 2 0.35367 0.430148 0.727771
1321 2 0.58964 0.491537 0.712297
503 2 0.50546 0.433192 0.611967
285 2 0.604368 0.373712 0.503816
508 1 0.38537 0.320288 0.541016
628 1 0.652627 0.459701 0.680057
507 1 0.372907 0.361886 0.555669
627 1 0.64395 0.482976 0.681965
554 1 0.34941 0.443182 0.576188
551 1 0.356828 0.422552 0.5699
552 1 0.340286 0.484031 0.606161
751 2 0.483364 0.420662 0.855688
787 1 0.356957 0.378357 0.892321
550 1 0.371937 0.384185 0.562128
505 1 0.371227 0.353908 0.520297
750 2 0.425301 0.333779 0.88249
791 1 0.376313 0.457749 0.812507
788 1 0.352377 0.401731 0.887678
544 1 0.649903 0.38223 0.565742
754 1 0.369747 0.33763 0.886065
1935 2 0.358094 0.282652 0.591392
1201 2 0.543088 0.313945 0.677292
789 1 0.36449 0.438625 0.826989
1091 2 0.430036 0.415736 0.6111
1096 2 0.434723 0.317248 0.808826
629 1 0.659487 0.416221 0.645446
1319 2 0.385106 0.463139 0.517458
2402 2 0.660595 0.425408 0.751503
546 1 0.370856 0.396325 0.532627
1304 2 0.567164 0.402838 0.788129
752 1 0.352122 0.363951 0.920168
1230 2 0.357706 0.389041 0.789559
2260 2 0.486503 0.311833 0.792369
4375 2 0.34118 0.268582 0.879266
872 1 0.655771 0.473403 0.848792
1483 2 0.569796 0.421836 0.852627
1491 2 0.522335 0.403436 0.858165
780 1 0.616625 0.374011 0.81495
1519 2 0.412761 0.357203 0.935346
1535 2 0.594393 0.387195 0.57306
871 1 0.646422 0.457202 0.825487
869 1 0.624113 0.418886 0.830987
1401 2 0.352784 0.322004 0.654231
1537 2 0.52482 0.458463 0.529713
1551 2 0.564709 0.358951 0.818224
1557 2 0.451615 0.444568 0.865922
1284 2 0.655422 0.374302 0.906837
1622 2 0.59005 0.345002 0.747979
1663 2 0.36479 0.359886 0.716378
1768 2 0.602392 0.453556 0.520608
630 1 0.65514 0.398248 0.623197
3701 2 0.528429 0.470099 0.992346
1376 2 0.391637 0.295184 0.843585
2270 2 0.40111 0.32971 0.734546
2393 2 0.564676 0.432985 0.535096
1471 2 0.598235 0.305852 0.675519
786 1 0.388784 0.483798 0.772643
1496 2 0.547195 0.312131 0.809371
842 1 0.562109 0.496966 0.874091
1724 2 0.511713 0.394596 0.781168
753 1 0.36189 0.344074 0.919682
1755 2 0.437065 0.463736 0.764156
779 1 0.626255 0.353373 0.812768
547 1 0.359254 0.415041 0.534168
1778 2 0.453752 0.348102 0.964373
1637 2 0.423951 0.386564 0.576504
1910 2 0.511175 0.292516 0.870886
785 1 0.38252 0.463343 0.779131
1352 2 0.612206 0.42298 0.584547
2988 2 0.346412 0.31508 0.79682
1859 2 0.506511 0.319674 0.597466
1874 2 0.464985 0.411501 0.779413
873 1 0.619556 0.410004 0.798686
1794 2 0.605241 0.300492 0.795259
1446 2 0.553797 0.474181 0.76168
874 1 0.618486 0.38894 0.789409
1125 2 0.656923 0.315066 0.630006
1944 2 0.493389 0.332808 0.664732
2296 2 0.410692 0.272351 0.564906
1977 2 0.556464 0.38683 0.869281
2575 2 0.578088 0.317289 0.990722
833 1 0.522835 0.495392 0.851973
2025 2 0.488272 0.359631 0.730367
1645 2 0.350186 0.479087 0.884065
1390 2 0.632322 0.335926 0.954559
1295 2 0.490583 0.26539 0.531341
1040 2 0.45933 0.291977 0.604201