ITEM: TIMESTEP
150000
ITEM: NUMBER OF ATOMS
860
ITEM: BOX BOUNDS pp pp pp
-3.0000000000000000e+01 3.0000000000000000e+01
-3.0000000000000000e+01 3.0000000000000000e+01
-3.0000000000000000e+01 3.0000000000000000e+01
ITEM: ATOMS id type xs ys zs
9125 2 0.455076 0.178983 0.130577
8556 2 0.300414 0.42244 0.249631
9213 2 0.0151191 0.337777 0.0507194
9095 2 0.238405 0.17662 0.146945
9081 2 0.277878 0.289487 0.0294278
8614 2 0.205276 0.0136525 0.242709
9045 2 0.0562859 0.489144 0.0334378
9052 2 0.261341 0.398202 0.111485
8917 2 0.329093 0.22109 0.132583
8908 2 0.218178 0.293981 0.215258
9155 2 0.288575 0.125672 0.0153436
9023 2 0.158693 0.109456 0.244926
8885 2 0.027833 0.467276 0.199705
9109 2 0.152594 0.385171 0.191727
9154 2 0.0311764 0.117155 0.0600896
9136 2 0.133888 0.448871 0.0914517
9140 2 0.467381 0.271722 0.0659538
9172 2 0.168127 0.222241 0.241583
9228 2 0.289191 0.0586682 0.0777942
9238 2 0.08067 0.17747 0.00879011
9239 2 0.458668 0.448621 0.126354
1047 2 0.284417 0.342458 0.453283
88 1 0.476772 0.354845 0.443038
590 2 0.479918 0.401373 0.404793
60 1 0.378831 0.362884 0.493892
327 2 0.448844 0.403493 0.449087
44 2 0.407203 0.401351 0.454475
74 1 0.411152 0.348619 0.444614
9135 2 0.0590019 0.195155 0.270585
5711 2 0.461761 0.345022 0.382695
8426 2 0.293399 0.341109 0.351527
9178 2 0.0623341 0.34191 0.418865
201 1 0.454797 0.484723 0.474278
76 1 0.436668 0.448467 0.479957
54 1 0.335372 0.371454 0.459846
49 1 0.320938 0.381892 0.472879
4754 2 0.424221 0.262981 0.357273
26 2 0.349516 0.435716 0.494154
78 1 0.438322 0.355125 0.470878
82 1 0.456677 0.440311 0.489477
1080 2 0.371671 0.412512 0.471137
7050 2 0.203346 0.349372 0.454086
984 2 0.360177 0.480206 0.45448
2266 2 0.209534 0.455229 0.460681
3422 2 0.231548 0.461856 0.374063
69 1 0.392353 0.350227 0.458406
59 1 0.353387 0.361623 0.467227
6232 2 0.482981 0.411755 0.292014
987 2 0.295836 0.431514 0.483405
1524 2 0.38181 0.300963 0.438905
45 1 0.324784 0.386257 0.49401
1073 2 0.465771 0.307314 0.470142
89 1 0.472359 0.454352 0.495111
64 1 0.369898 0.354408 0.453474
1953 2 0.406869 0.38579 0.335198
2232 2 0.482173 0.45168 0.363352
186 1 0.413594 0.480284 0.476775
5878 2 0.282641 0.231969 0.449407
809 2 0.396778 0.446641 0.438944
2231 2 0.462694 0.227228 0.423606
4988 2 0.358659 0.239199 0.396916
359 2 0.42538 0.388432 0.407979
80 1 0.460856 0.360624 0.477378
520 2 0.270481 0.375706 0.496172
538 2 0.47348 0.457785 0.433181
79 1 0.43464 0.34942 0.449908
84 1 0.454347 0.351138 0.436887
806 2 0.331689 0.31563 0.448532
85 1 0.479643 0.386355 0.49923
9018 2 0.0214608 0.0131689 0.437349
209 1 0.473179 0.476468 0.487048
968 2 0.334447 0.484988 0.498394
8837 2 0.443371 0.0299318 0.405834
8468 2 0.4747 0.320712 0.314539
8093 2 0.241023 0.225194 0.341604
738 2 0.389874 0.336761 0.393649
8790 2 0.00333381 0.395462 0.447509
55 1 0.356909 0.36508 0.489836
193 1 0.435098 0.470883 0.473019
68 1 0.39657 0.355533 0.479668
1972 2 0.432198 0.300984 0.425302
23 2 0.429432 0.479834 0.418013
86 1 0.479453 0.360825 0.464411
9065 2 0.1032 0.0107068 0.35096
2 2 0.486499 0.415917 0.452396
65 1 0.400986 0.449737 0.498502
1911 2 0.331048 0.425454 0.440955
926 2 0.367496 0.310732 0.48946
73 1 0.419688 0.358349 0.484868
1631 2 0.387909 0.237242 0.471646
1736 2 0.372331 0.393706 0.41849
2104 2 0.316504 0.330441 0.495636
71 1 0.419456 0.438029 0.490989
90 1 0.496528 0.357975 0.429838
9167 2 0.205402 0.0564281 0.42471
1651 2 0.484489 0.306527 0.418994
4139 2 0.329836 0.354142 0.407369
177 1 0.397579 0.470674 0.491617
4259 2 0.37894 0.449174 0.366997
5836 2 0.283291 0.394782 0.434379
8719 2 0.0935091 0.292756 0.257156
1366 2 0.474143 0.246815 0.495282
1461 2 0.416926 0.304438 0.477838
83 1 0.461552 0.373979 0.494787
9025 2 0.0276905 0.325807 0.335925
8981 2 0.110551 0.272201 0.454132
8712 2 0.394149 0.375128 0.255842
8760 2 0.437221 0.490475 0.258352
1004 2 0.311048 0.484844 0.390326
9015 2 0.000728178 0.494787 0.422985
8973 2 0.324488 0.0404304 0.300343
9084 2 0.12398 0.403034 0.467621
9224 2 0.0857923 0.0508961 0.536034
1713 2 0.33585 0.443846 0.530053
47 1 0.358624 0.404587 0.56288
2589 2 0.425191 0.451929 0.592682
67 1 0.405261 0.406875 0.510811
166 1 0.380927 0.473207 0.526862
53 1 0.384339 0.441616 0.556314
66 1 0.404874 0.383375 0.511774
153 1 0.367178 0.477761 0.561479
51 1 0.34855 0.389513 0.523622
62 1 0.393928 0.420481 0.523119
52 1 0.376592 0.41774 0.5546
57 1 0.379023 0.409845 0.534628
8946 2 0.277145 0.201162 0.553242
147 2 0.43669 0.479504 0.527237
56 1 0.370506 0.389539 0.525075
8066 2 0.15331 0.461349 0.550077
9204 2 0.354486 0.243364 0.737296
61 1 0.384039 0.376748 0.510625
1409 2 0.296896 0.410849 0.534074
58 1 0.388268 0.453676 0.535853
7795 2 0.441689 0.415984 0.730087
63 1 0.395271 0.442562 0.519879
8971 2 0.322175 0.301057 0.643524
72 1 0.42286 0.373263 0.501029
8855 2 0.439527 0.165447 0.673004
5839 2 0.329971 0.407812 0.675315
95 1 0.496922 0.459852 0.523955
70 1 0.422264 0.418292 0.502532
219 1 0.493616 0.483111 0.521744
8934 2 0.165563 0.18134 0.575231
5573 2 0.396719 0.363888 0.67354
9044 2 0.404526 0.000983172 0.670223
159 1 0.370296 0.487281 0.540764
1918 2 0.230655 0.393066 0.565366
483 2 0.448853 0.323397 0.515338
505 2 0.353363 0.336571 0.538066
7957 2 0.255991 0.305692 0.578239
2585 2 0.394971 0.29997 0.618887
5929 2 0.357249 0.189794 0.588256
174 1 0.386633 0.482753 0.506875
94 1 0.485423 0.445721 0.511756
1882 2 0.442144 0.446359 0.544594
586 2 0.467802 0.379027 0.617651
46 1 0.346482 0.390952 0.547686
8765 2 0.296162 0.364202 0.745433
8997 2 0.334504 0.193361 0.66973
895 2 0.480519 0.420928 0.562203
958 2 0.401481 0.327215 0.527494
1986 2 0.496497 0.333061 0.510912
4467 2 0.35493 0.431892 0.61554
773 2 0.253175 0.477169 0.603572
48 1 0.37553 0.458658 0.569626
851 2 0.492567 0.47108 0.578338
1417 2 0.30479 0.35572 0.540469
77 1 0.440437 0.406825 0.503307
2149 2 0.399043 0.365234 0.563851
1611 2 0.317004 0.492242 0.546099
9141 2 0.153976 0.210118 0.744
1084 2 0.449401 0.359891 0.547685
9067 2 0.161416 0.483277 0.68714
1124 2 0.328641 0.27134 0.548761
491 2 0.418276 0.493251 0.563469
1273 2 0.431507 0.404632 0.557996
2437 2 0.416553 0.252264 0.544933
524 2 0.324488 0.444191 0.573606
1349 2 0.307401 0.391177 0.588254
2702 2 0.246997 0.466242 0.521433
1416 2 0.400452 0.40393 0.602736
8769 2 0.0963245 0.346453 0.73764
93 1 0.490968 0.423099 0.508701
87 1 0.475124 0.40744 0.507463
2353 2 0.353108 0.357985 0.593109
75 1 0.441561 0.384385 0.501249
9118 2 0.0782625 0.486575 0.734534
7868 2 0.178028 0.416442 0.633624
216 1 0.482727 0.491843 0.501937
1098 2 0.498736 0.373817 0.547563
7559 2 0.402028 0.446752 0.675614
81 1 0.457381 0.419082 0.501928
50 1 0.34217 0.378105 0.504046
8853 2 0.38845 0.101101 0.547531
9190 2 0.233403 0.0717431 0.609794
9200 2 0.197936 0.319846 0.668872
944 2 0.494577 0.290041 0.576343
9073 2 0.217127 0.0842368 0.980745
8985 2 0.236835 0.229116 0.874606
8748 2 0.026193 0.357532 0.822799
8884 2 0.0342362 0.221242 0.84713
8881 2 0.425304 0.0495063 0.86032
8862 2 0.387849 0.141785 0.94568
9165 2 0.123273 0.276246 0.910589
9227 2 0.398805 0.403653 0.921395
8757 2 0.343443 0.349167 0.993746
9199 2 0.373976 0.101716 0.78134
8873 2 0.475102 0.488898 0.756117
8967 2 0.292957 0.360048 0.903173
8697 2 0.133202 0.148298 0.883947
9160 2 0.191702 0.175128 0.949239
9093 2 0.493254 0.00151562 0.926733
8947 2 0.139131 0.0486797 0.7948
9183 2 0.0171743 0.150033 0.934193
9186 2 0.474853 0.141364 0.941831
9208 2 0.0961152 0.420373 0.836266
9226 2 0.461421 0.393974 0.852432
9245 2 0.283872 0.137356 0.768276
9225 2 0.284216 0.912051 0.118611
8918 2 0.165258 0.906473 0.24995
8848 2 0.118698 0.695261 0.0185364
6662 2 0.498253 0.566885 0.221082
8843 2 0.00986611 0.634519 0.0225564
9237 2 0.0204499 0.519553 0.115098
8090 2 0.0150094 0.740469 0.0831549
9164 2 0.00742423 0.85904 0.0233538
9144 2 0.185322 0.991623 0.00813955
9007 2 0.117507 0.854947 0.104969
9071 2 0.0492531 0.909721 0.161282
8792 2 0.127812 0.991938 0.144748
9168 2 0.228512 0.810045 0.120539
9229 2 0.391195 0.71649 0.0474549
9146 2 0.111027 0.951594 0.0618305
9196 2 0.346397 0.519165 0.206336
9211 2 0.413981 0.804843 0.148766
9175 2 0.497063 0.644441 0.00772585
9232 2 0.198869 0.895892 0.143869
9234 2 0.280187 0.650908 0.170927
9236 2 0.304445 0.677058 0.0619109
198 1 0.451796 0.575927 0.457577
730 2 0.272413 0.513808 0.462237
208 1 0.473906 0.538901 0.460589
176 1 0.395182 0.537821 0.480689
185 1 0.411141 0.502033 0.469353
9055 2 0.27988 0.871455 0.369645
1172 2 0.436811 0.615766 0.358695
311 2 0.49187 0.623001 0.430683
1035 2 0.319935 0.575778 0.478469
190 1 0.434684 0.603898 0.482734
204 1 0.471089 0.604581 0.481004
191 1 0.430984 0.537739 0.456288
2494 2 0.350859 0.54449 0.358407
2552 2 0.35163 0.738061 0.388825
206 1 0.471714 0.586124 0.465399
202 1 0.453617 0.60663 0.494809
183 1 0.411361 0.57372 0.46732
821 2 0.292654 0.626995 0.493945
184 1 0.410931 0.548554 0.466843
37 2 0.45119 0.657119 0.478608
179 1 0.396027 0.605767 0.486343
2941 2 0.425717 0.514192 0.356343
9129 2 0.0473639 0.760323 0.383512
215 1 0.493299 0.549635 0.467769
214 1 0.492355 0.573962 0.466185
170 1 0.379711 0.615681 0.498027
171 1 0.376017 0.571249 0.489971
180 1 0.392532 0.584162 0.477937
213 1 0.489077 0.616298 0.489119
192 1 0.432018 0.586214 0.46593
329 2 0.388865 0.518968 0.422214
187 1 0.416982 0.615331 0.49133
9123 2 0.11128 0.827781 0.348103
199 1 0.45266 0.550209 0.453356
8373 2 0.396277 0.873652 0.414503
1234 2 0.445505 0.631329 0.437553
194 1 0.431811 0.514339 0.460211
9043 2 0.0718015 0.563755 0.350752
8924 2 0.377018 0.87588 0.279517
2825 2 0.4712 0.514373 0.412312
1128 2 0.363658 0.558002 0.437843
5144 2 0.296475 0.590515 0.428074
8081 2 0.259402 0.639636 0.385362
789 2 0.372276 0.722096 0.464149
8915 2 0.14223 0.74414 0.496007
1319 2 0.398666 0.61396 0.430289
7985 2 0.433612 0.709466 0.342542
1794 2 0.484356 0.570837 0.411458
1197 2 0.318634 0.720289 0.49268
6885 2 0.243077 0.729618 0.486767
8369 2 0.220124 0.565969 0.467402
804 2 0.497114 0.663698 0.465396
9112 2 0.262679 0.866113 0.474016
148 1 0.341638 0.652112 0.484027
504 2 0.435462 0.698873 0.427603
975 2 0.421573 0.56754 0.410562
662 2 0.341824 0.526972 0.470733
528 2 0.394269 0.65664 0.463566
571 2 0.349396 0.60806 0.452301
7815 2 0.39297 0.637353 0.278956
178 1 0.393806 0.513797 0.481822
154 1 0.346658 0.674359 0.483982
200 1 0.453904 0.505023 0.46509
8961 2 0.219778 0.55526 0.273722
217 1 0.484973 0.512344 0.492277
8950 2 0.169029 0.630968 0.354617
172 1 0.382734 0.550145 0.495261
36 2 0.411638 0.689824 0.492534
1200 2 0.296004 0.673597 0.460041
210 1 0.471531 0.518255 0.472366
2102 2 0.333918 0.797374 0.448846
1440 2 0.456938 0.750293 0.489675
2070 2 0.349856 0.663031 0.426216
9038 2 0.256218 0.722537 0.298318
9180 2 0.498209 0.726141 0.294823
9218 2 0.306103 0.962502 0.374182
4391 2 0.499467 0.53962 0.34411
175 1 0.382079 0.669795 0.535054
494 2 0.322236 0.529785 0.513015
181 1 0.40255 0.641789 0.517498
173 1 0.38393 0.504643 0.501675
8501 2 0.154506 0.670502 0.683308
515 2 0.382527 0.72491 0.51923
196 1 0.43372 0.632254 0.546677
168 1 0.366663 0.668206 0.517451
146 2 0.418444 0.573119 0.524517
8969 2 0.303966 0.786604 0.547312
151 1 0.362817 0.545958 0.551379
304 2 0.455037 0.672542 0.518573
8952 2 0.071298 0.766674 0.644699
195 1 0.435291 0.623546 0.525418
188 1 0.418951 0.629032 0.510597
305 2 0.485287 0.568388 0.519569
3308 2 0.298804 0.639592 0.634702
205 1 0.473273 0.622333 0.524232
189 1 0.417579 0.648817 0.552569
658 2 0.434051 0.516638 0.515154
8856 2 0.228356 0.604539 0.723581
169 1 0.38245 0.633995 0.511166
182 1 0.40221 0.655314 0.535442
38 2 0.449272 0.554014 0.506522
207 1 0.474686 0.629528 0.545853
203 1 0.45415 0.630268 0.556411
197 1 0.45436 0.614815 0.516476
164 1 0.363802 0.581621 0.506025
211 1 0.494097 0.641272 0.552596
8608 2 0.497585 0.830014 0.667801
149 1 0.333913 0.605938 0.526382
150 1 0.340989 0.585486 0.535987
530 2 0.495954 0.763954 0.575181
751 2 0.395777 0.594773 0.548407
163 1 0.362778 0.604136 0.506898
156 1 0.343829 0.616141 0.508794
212 1 0.488822 0.628973 0.508376
366 2 0.447711 0.704376 0.636484
2178 2 0.344514 0.706239 0.552704
1253 2 0.369063 0.623898 0.564728
2652 2 0.389049 0.675144 0.59161
1407 2 0.421509 0.704836 0.54853
6870 2 0.447802 0.585076 0.661964
167 1 0.377456 0.517546 0.51878
936 2 0.244236 0.684231 0.570647
1444 2 0.290328 0.574591 0.518823
573 2 0.332551 0.653185 0.558327
1310 2 0.451116 0.578326 0.557918
1022 2 0.310449 0.546672 0.558488
1115 2 0.416065 0.536701 0.551156
1300 2 0.333444 0.503664 0.596702
5962 2 0.289132 0.615817 0.555598
865 2 0.472459 0.527044 0.545817
157 1 0.353721 0.571456 0.523575
3841 2 0.213136 0.631753 0.510411
8271 2 0.185054 0.799748 0.532113
152 1 0.362982 0.523735 0.555263
1756 2 0.460753 0.53133 0.604803
2218 2 0.39597 0.557747 0.593748
6274 2 0.297115 0.548311 0.655027
1997 2 0.419171 0.612382 0.597807
2684 2 0.339606 0.578216 0.592252
4597 2 0.373072 0.562475 0.676703
160 1 0.366327 0.553667 0.53057
165 1 0.374808 0.53973 0.513992
2401 2 0.460859 0.681018 0.569984
2961 2 0.241139 0.539132 0.54868
162 1 0.364598 0.647093 0.512492
2486 2 0.415262 0.759894 0.58781
8783 2 0.352281 0.730741 0.631176
2538 2 0.368814 0.636702 0.639941
8786 2 0.137274 0.931929 0.716555
966 2 0.306631 0.672337 0.52166
2745 2 0.479739 0.635349 0.609148
1584 2 0.497086 0.591547 0.576847
9117 2 0.1166 0.851833 0.56142
158 1 0.369028 0.509658 0.538792
747 2 0.389696 0.501524 0.605896
7425 2 0.419929 0.741709 0.718343
9212 2 0.400801 0.874724 0.586351
341 2 0.493651 0.692753 0.532047
8889 2 0.262863 0.816138 0.735593
161 1 0.357838 0.68146 0.501223
8258 2 0.494141 0.845985 0.571074
155 1 0.345098 0.639348 0.503193
8870 2 0.0795968 0.617856 0.566441
9102 2 0.120159 0.583431 0.668584
9106 2 0.0403345 0.781944 0.525324
8718 2 0.130193 0.708682 0.56893
5260 2 0.378461 0.810687 0.517997
8814 2 0.215657 0.554592 0.614851
8875 2 0.0827121 0.697526 0.923959
8847 2 0.306801 0.758331 0.988961
9042 2 0.102573 0.782679 0.757116
9077 2 0.41363 0.72289 0.82906
8815 2 0.313887 0.98656 0.899194
9219 2 0.205736 0.529464 0.752001
8772 2 0.163416 0.812244 0.807541
9156 2 0.376472 0.798235 0.905485
8326 2 0.159135 0.674153 0.793404
8824 2 0.148835 0.560712 0.857233
9021 2 0.144347 0.864074 0.967235
8014 2 0.180798 0.95161 0.873792
8308 2 0.344368 0.577561 0.805027
7920 2 0.431683 0.607621 0.77007
8677 2 0.232045 0.650461 0.990382
8935 2 0.393237 0.603817 0.94148
9046 2 0.481155 0.767383 0.797264
9205 2 0.0667736 0.895512 0.94501
9188 2 0.300139 0.632594 0.756152
9194 2 0.367296 0.641969 0.870146
9249 2 0.0282 0.972005 0.803356
9062 2 0.918013 0.32722 0.206915
9047 2 0.935237 0.418302 0.204743
9030 2 0.836769 0.0983788 0.203076
8517 2 0.832959 0.359006 0.02302
8572 2 0.766128 0.46582 0.0543782
9051 2 0.989463 0.434911 0.0493398
8052 2 0.51766 0.417816 0.222879
8968 2 0.812999 0.260663 0.0903173
9210 2 0.791113 0.028132 0.19457
9153 2 0.683388 0.449857 0.185626
9033 2 0.51598 0.0393483 0.0196761
9185 2 0.626182 0.0784534 0.0562611
9079 2 0.573595 0.162086 0.13003
9169 2 0.726265 0.370159 0.0547045
9094 2 0.553148 0.0382928 0.181539
8912 2 0.543824 0.311513 0.201777
9216 2 0.865685 0.416834 0.0752089
9217 2 0.944086 0.227828 0.237063
9244 2 0.784491 0.146982 0.0980549
9246 2 0.868446 0.231555 0.186149
9247 2 0.514258 0.40776 0.0396708
847 2 0.593778 0.321264 0.488617
7172 2 0.594024 0.23603 0.384293
24 2 0.570198 0.472651 0.495611
1150 2 0.698826 0.327518 0.462453
121 1 0.602158 0.374436 0.48431
113 1 0.568823 0.403068 0.487776
3359 2 0.765869 0.317503 0.447089
108 1 0.555249 0.390689 0.454062
1619 2 0.633478 0.255599 0.490112
114 1 0.572618 0.393147 0.467962
282 1 0.644248 0.471952 0.472871
8226 2 0.525483 0.238419 0.266874
7595 2 0.769092 0.408331 0.340931
27 2 0.511796 0.496077 0.446688
124 1 0.615097 0.356275 0.447455
115 1 0.59059 0.378306 0.466028
130 1 0.644566 0.337763 0.470095
2132 2 0.563382 0.407377 0.385056
129 1 0.6221 0.364245 0.484004
119 1 0.596927 0.370837 0.446369
566 2 0.531058 0.475245 0.484387
2712 2 0.666908 0.276354 0.443558
125 1 0.630311 0.354944 0.46478
140 1 0.654094 0.308854 0.489207
833 2 0.513991 0.446139 0.464423
6 2 0.594903 0.448241 0.484309
8670 2 0.666486 0.391923 0.32778
9148 2 0.905216 0.364877 0.362401
97 1 0.515558 0.397745 0.496576
107 1 0.550124 0.41118 0.492236
110 1 0.580289 0.374075 0.429694
42 2 0.618659 0.424243 0.468486
275 1 0.642962 0.471018 0.495235
21 2 0.67485 0.370181 0.436185
634 2 0.689243 0.443522 0.459714
1000 2 0.622635 0.499404 0.404397
1913 2 0.518953 0.358686 0.374779
104 1 0.538829 0.373171 0.424611
866 2 0.697714 0.481504 0.494224
734 2 0.55787 0.445196 0.452097
629 2 0.65435 0.4032 0.473882
103 1 0.533973 0.390001 0.46254
362 2 0.592668 0.426436 0.429683
931 2 0.611041 0.300374 0.453074
1754 2 0.615131 0.36585 0.387629
2198 2 0.655427 0.453103 0.419582
8902 2 0.878594 0.443586 0.283265
1489 2 0.524279 0.424605 0.421324
137 1 0.649332 0.330172 0.490655
2508 2 0.551246 0.380534 0.306481
881 2 0.584985 0.323503 0.414019
109 1 0.558479 0.382155 0.433972
102 1 0.53328 0.401229 0.482108
451 2 0.557741 0.335873 0.460398
8759 2 0.550455 0.196222 0.491273
2880 2 0.522908 0.270459 0.35567
9009 2 0.685204 0.080624 0.353869
8401 2 0.587513 0.329251 0.338907
1076 2 0.636002 0.401062 0.426409
1291 2 0.649266 0.323463 0.414497
92 1 0.500654 0.38175 0.491073
8429 2 0.886557 0.0866019 0.430383
145 2 0.682793 0.374786 0.492406
9191 2 0.630091 0.316796 0.252568
98 1 0.518449 0.373425 0.457225
283 1 0.630106 0.484666 0.461111
8868 2 0.517318 0.170283 0.396408
99 1 0.517094 0.369521 0.435527
812 2 0.746387 0.485518 0.444058
8577 2 0.808961 0.480237 0.375787
2446 2 0.722492 0.34733 0.386631
1429 2 0.535295 0.319788 0.416936
1605 2 0.579974 0.494338 0.437334
2894 2 0.702436 0.490734 0.377516
1714 2 0.62256 0.447343 0.356916
91 1 0.500696 0.369442 0.471462
598 2 0.513716 0.318486 0.46418
681 2 0.552198 0.256705 0.447845
1280 2 0.795118 0.406795 0.427489
7331 2 0.546725 0.471988 0.307143
8863 2 0.680687 0.209355 0.444161
2605 2 0.539156 0.487777 0.38912
9017 2 0.840361 0.0462073 0.2974
2340 2 0.701406 0.273919 0.493577
9181 2 0.949481 0.139196 0.306258
761 2 0.55072 0.353968 0.49882
9157 2 0.598224 0.021311 0.431827
9162 2 0.867424 0.235826 0.377244
9223 2 0.811823 0.353831 0.2871
9193 2 0.962213 0.0445747 0.330995
9242 2 0.777225 0.16259 0.293918
136 1 0.651811 0.408406 0.530305
138 1 0.645671 0.383848 0.531728
141 1 0.670003 0.420384 0.524515
126 1 0.615379 0.413482 0.525296
971 2 0.626891 0.406815 0.58001
127 1 0.619909 0.458298 0.532901
143 1 0.647935 0.364618 0.544304
96 1 0.510865 0.415183 0.51182
255 1 0.599741 0.494415 0.535582
122 1 0.600763 0.447667 0.542642
132 1 0.635344 0.422689 0.524548
131 1 0.635974 0.445455 0.52237
133 1 0.629701 0.377676 0.518537
2025 2 0.751349 0.394454 0.576824
6502 2 0.765372 0.318224 0.541101
144 1 0.648504 0.3446 0.53226
233 1 0.533595 0.48364 0.540447
9122 2 0.693387 0.126275 0.564791
240 1 0.555525 0.494949 0.542584
263 1 0.617645 0.480794 0.526526
116 1 0.580002 0.459745 0.547914
41 2 0.589965 0.342007 0.529881
123 1 0.597847 0.425307 0.534018
111 1 0.558636 0.448411 0.542308
225 1 0.513456 0.495236 0.530317
247 1 0.579129 0.484095 0.546298
105 1 0.53631 0.459754 0.540585
31 2 0.670457 0.484928 0.54254
117 1 0.579829 0.416049 0.524749
112 1 0.561462 0.428618 0.527032
3272 2 0.681269 0.395582 0.576897
1193 2 0.657159 0.447284 0.572706
413 2 0.548658 0.290307 0.522529
496 2 0.594464 0.376303 0.560586
333 2 0.700216 0.376711 0.536177
1793 2 0.513186 0.432059 0.622246
429 2 0.697935 0.329107 0.515646
2404 2 0.603416 0.450753 0.646583
106 1 0.546335 0.425216 0.510084
6497 2 0.548092 0.332351 0.693393
7013 2 0.744451 0.42778 0.738149
452 2 0.619938 0.481228 0.584921
6264 2 0.726736 0.34387 0.63924
1520 2 0.689534 0.415544 0.653956
5772 2 0.59997 0.239459 0.585333
9230 2 0.983972 0.417299 0.535228
118 1 0.581202 0.400105 0.506143
1252 2 0.545065 0.37654 0.536168
135 1 0.649433 0.450923 0.505227
101 1 0.525543 0.43116 0.516565
636 2 0.687829 0.33739 0.576332
9054 2 0.987428 0.179574 0.698911
128 1 0.615321 0.393474 0.513336
2206 2 0.712476 0.449078 0.547057
269 1 0.627249 0.48521 0.504946
697 2 0.666447 0.291969 0.543197
139 1 0.642439 0.342435 0.509888
762 2 0.529655 0.410221 0.568109
8363 2 0.871996 0.485244 0.526921
964 2 0.615717 0.298702 0.528634
120 1 0.597966 0.386613 0.50265
134 1 0.63319 0.360815 0.504068
1057 2 0.550284 0.472461 0.594247
7949 2 0.720048 0.18474 0.512579
1709 2 0.5759 0.420581 0.587537
100 1 0.517513 0.44887 0.530454
1221 2 0.542195 0.348022 0.590875
2115 2 0.62052 0.327936 0.577936
8713 2 0.829032 0.471938 0.661945
9243 2 0.634907 0.0641094 0.61129
3146 2 0.784718 0.447179 0.509122
2843 2 0.672878 0.272031 0.619271
142 1 0.668812 0.439825 0.511285
8901 2 0.693253 0.222278 0.716851
8746 2 0.684704 0.00713539 0.511829
9128 2 0.693168 0.069358 0.749133
4178 2 0.613917 0.375179 0.638312
9040 2 0.806829 0.302619 0.615947
9202 2 0.985461 0.018305 0.538725
8995 2 0.957818 0.338259 0.744103
9131 2 0.568626 0.29117 0.63356
9149 2 0.954388 0.278021 0.506904
2981 2 0.508201 0.498537 0.651084
740 2 0.720153 0.416966 0.502502
9184 2 0.832201 0.185452 0.794452
8850 2 0.685152 0.00569497 0.922345
9105 2 0.840409 0.224535 0.915814
9176 2 0.670055 0.172472 0.905131
9049 2 0.989668 0.281953 0.896353
9150 2 0.787976 0.0375585 0.931195
8872 2 0.539141 0.415151 0.921843
8716 2 0.633089 0.14463 0.830563
9061 2 0.708857 0.309416 0.932842
9014 2 0.75112 0.213088 0.93577
8910 2 0.535002 0.218077 0.770151
8992 2 0.933734 0.125147 0.862965
8939 2 0.801706 0.0562569 0.784912
8983 2 0.84895 0.414298 0.818839
9010 2 0.9101 0.317368 0.828799
9151 2 0.566156 0.104258 0.956823
9035 2 0.720056 0.447988 0.840726
9060 2 0.557161 0.16359 0.824077
9087 2 0.969853 0.437752 0.955448
9113 2 0.914155 0.230171 0.912959
9198 2 0.687182 0.315241 0.839509
9132 2 0.550658 0.324061 0.886393
9215 2 0.545961 0.226972 0.993431
9221 2 0.83161 0.435673 0.942304
9233 2 0.633935 0.23043 0.800962
9235 2 0.738422 0.113842 0.870449
9182 2 0.713872 0.716539 0.0966467
9139 2 0.603251 0.983013 0.0157746
8680 2 0.577166 0.919721 0.170598
8963 2 0.797436 0.979815 0.134351
9068 2 0.980671 0.844712 0.19434
9080 2 0.653288 0.827356 0.136194
9203 2 0.594902 0.519395 0.108294
8822 2 0.744642 0.577929 0.158484
8715 2 0.943065 0.60548 0.157859
8393 2 0.555631 0.838089 0.103742
8609 2 0.574713 0.773905 0.207821
8818 2 0.848766 0.883376 0.144696
8569 2 0.888446 0.922705 0.0590171
9206 2 0.785312 0.911377 0.0158452
7676 2 0.54958 0.68305 0.245638
9192 2 0.622941 0.516184 0.210449
9130 2 0.790249 0.508388 0.19419
9166 2 0.914963 0.871529 0.242443
9120 2 0.941378 0.969213 0.248996
9174 2 0.664351 0.626095 0.133859
9179 2 0.929704 0.778185 0.176389
9222 2 0.746475 0.697265 0.173356
9231 2 0.583714 0.736558 0.131724
9240 2 0.677715 0.916902 0.156701
9248 2 0.786162 0.634566 0.103689
28 2 0.575841 0.580502 0.443007
287 1 0.653706 0.642954 0.463259
9012 2 0.937249 0.529418 0.350224
29 2 0.559632 0.509965 0.479427
6072 2 0.609114 0.610638 0.31641
7487 2 0.915515 0.508476 0.470064
229 1 0.527606 0.621522 0.488312
250 1 0.580214 0.583158 0.49698
281 1 0.650853 0.683798 0.484086
276 1 0.624735 0.528084 0.461312
278 1 0.64924 0.666822 0.497756
221 1 0.510668 0.586963 0.472236
235 1 0.546221 0.585892 0.486629
228 1 0.528841 0.573495 0.47991
236 1 0.547032 0.609812 0.486512
8398 2 0.781479 0.760338 0.355231
1787 2 0.782047 0.672584 0.389198
286 1 0.648403 0.62408 0.450493
222 1 0.508961 0.609621 0.481194
274 1 0.621126 0.504728 0.46915
280 1 0.651155 0.646548 0.485645
284 1 0.628779 0.56345 0.436835
285 1 0.625768 0.540051 0.44113
279 1 0.639994 0.604022 0.460301
277 1 0.629663 0.58141 0.453884
268 1 0.621843 0.544504 0.477013
220 1 0.510399 0.538932 0.48215
261 1 0.611603 0.57989 0.484325
218 1 0.50561 0.521886 0.497216
1789 2 0.659417 0.541755 0.393723
7085 2 0.71643 0.607619 0.333773
3173 2 0.601156 0.528255 0.331372
265 1 0.618148 0.600346 0.489587
434 2 0.624633 0.671702 0.427811
805 2 0.538953 0.610701 0.431584
271 1 0.62098 0.566899 0.470132
2191 2 0.658496 0.754462 0.392744
2565 2 0.51465 0.719192 0.435588
3044 2 0.546438 0.601746 0.359644
1495 2 0.673735 0.511225 0.445143
2458 2 0.679824 0.730113 0.480019
1729 2 0.550923 0.660217 0.457946
7843 2 0.768648 0.615447 0.458961
469 2 0.601169 0.658563 0.470746
588 2 0.617858 0.607233 0.403607
948 2 0.591916 0.622323 0.445874
509 2 0.703124 0.661274 0.488126
2389 2 0.67942 0.583177 0.426984
8593 2 0.682864 0.996092 0.369809
947 2 0.685365 0.684731 0.440409
8344 2 0.505522 0.824222 0.355678
264 1 0.612 0.538273 0.497662
1040 2 0.688223 0.604527 0.487015
794 2 0.572122 0.541617 0.460191
1112 2 0.551775 0.764468 0.492349
4892 2 0.594696 0.687961 0.364051
244 1 0.566181 0.619159 0.493984
1806 2 0.585491 0.547915 0.404274
2546 2 0.671089 0.636753 0.395898
272 1 0.634573 0.611667 0.480897
888 2 0.614372 0.719753 0.464885
9134 2 0.957939 0.740604 0.320965
913 2 0.674662 0.556637 0.46637
1286 2 0.703936 0.630744 0.444569
1616 2 0.512191 0.664803 0.383687
522 2 0.532077 0.549531 0.430017
227 1 0.526967 0.552175 0.489834
9072 2 0.883841 0.75612 0.378976
253 1 0.602381 0.611801 0.499757
3789 2 0.571889 0.776415 0.392005
8636 2 0.834357 0.656516 0.299514
8348 2 0.762279 0.709267 0.469302
5882 2 0.735699 0.564427 0.397437
8893 2 0.623596 0.864466 0.280713
270 1 0.616153 0.500733 0.490998
273 1 0.640403 0.629765 0.495041
30 2 0.666384 0.519967 0.495437
8827 2 0.666465 0.752355 0.26056
8821 2 0.669061 0.857847 0.453934
9020 2 0.916465 0.625979 0.496257
9187 2 0.751334 0.878629 0.438473
9127 2 0.714334 0.681224 0.319864
310 2 0.526612 0.691771 0.49713
1041 2 0.730887 0.543158 0.499925
251 1 0.581959 0.604626 0.498306
8210 2 0.810917 0.996491 0.358638
223 1 0.507922 0.640565 0.515942
288 2 0.647469 0.525936 0.536293
289 2 0.6338 0.589286 0.540522
825 2 0.58997 0.589405 0.55217
231 1 0.530584 0.655069 0.544119
3355 2 0.714473 0.653341 0.610747
312 2 0.549493 0.603141 0.544782
8685 2 0.78805 0.893724 0.648624
242 1 0.558978 0.556857 0.512185
226 1 0.517202 0.516058 0.517777
260 1 0.628322 0.65141 0.529103
8604 2 0.932426 0.955395 0.586729
6876 2 0.538336 0.669835 0.653873
309 2 0.51516 0.588989 0.531918
8938 2 0.616596 0.961783 0.614725
262 1 0.606697 0.516633 0.50242
254 1 0.606211 0.627712 0.514357
1422 2 0.675405 0.506176 0.61698
257 1 0.59908 0.552206 0.509582
949 2 0.615236 0.544058 0.563385
259 1 0.612075 0.650754 0.547131
1606 2 0.697686 0.574733 0.558556
232 1 0.53564 0.528552 0.52414
241 1 0.555488 0.517189 0.534576
266 1 0.6277 0.635505 0.513992
256 1 0.595971 0.512762 0.523082
249 1 0.578465 0.546367 0.519042
224 1 0.511761 0.642703 0.537889
9220 2 0.540756 0.90659 0.617711
1394 2 0.656292 0.628981 0.573957
234 1 0.538327 0.54734 0.510425
829 2 0.549412 0.560536 0.567484
248 1 0.577068 0.525724 0.52882
237 1 0.549139 0.646467 0.513553
239 1 0.568549 0.655441 0.548257
252 1 0.588856 0.645136 0.543163
5024 2 0.575337 0.758694 0.592099
8600 2 0.92021 0.92594 0.671693
2595 2 0.652754 0.576038 0.631035
8898 2 0.678549 0.73415 0.709381
371 2 0.688469 0.69325 0.529951
8894 2 0.621789 0.83601 0.606015
2466 2 0.51452 0.684556 0.588443
2510 2 0.596839 0.621388 0.593888
230 1 0.528135 0.637798 0.505437
435 2 0.59771 0.701305 0.545785
8839 2 0.552266 0.953338 0.70593
8549 2 0.681914 0.901947 0.57423
392 2 0.638017 0.723925 0.521373
245 1 0.568389 0.636541 0.507458
246 1 0.587476 0.635402 0.522977
1238 2 0.578969 0.521067 0.586753
1957 2 0.515713 0.524623 0.576701
9119 2 0.865811 0.697246 0.660035
2090 2 0.585055 0.681702 0.594284
243 1 0.560306 0.57559 0.50121
1869 2 0.531246 0.576476 0.641264
840 2 0.590131 0.684903 0.503899
238 1 0.550131 0.656337 0.534141
1307 2 0.546525 0.708285 0.545265
9024 2 0.673002 0.886081 0.737118
1248 2 0.540278 0.623816 0.58703
903 2 0.658672 0.571007 0.508425
8833 2 0.825252 0.795873 0.713963
1780 2 0.625927 0.810636 0.511639
3028 2 0.69687 0.775069 0.532722
8944 2 0.554845 0.820172 0.744354
4261 2 0.595347 0.539062 0.652665
9008 2 0.984542 0.551937 0.657946
8480 2 0.905656 0.647942 0.739473
8688 2 0.547638 0.728331 0.730418
2245 2 0.647675 0.687509 0.573138
8958 2 0.839195 0.894352 0.52182
267 1 0.640187 0.668978 0.519245
427 2 0.681541 0.63222 0.530168
6822 2 0.655692 0.652142 0.665554
7023 2 0.657235 0.765138 0.603637
1362 2 0.759977 0.631316 0.53862
1494 2 0.749127 0.510006 0.571433
8383 2 0.755989 0.75122 0.583754
258 1 0.59931 0.571838 0.500634
9214 2 0.517513 0.604916 0.899781
9022 2 0.909211 0.843834 0.817536
9027 2 0.945599 0.993221 0.902477
8801 2 0.785725 0.720799 0.820056
9070 2 0.74367 0.513293 0.881819
9053 2 0.517664 0.848617 0.922492
9003 2 0.505167 0.608776 0.783853
8632 2 0.573667 0.560275 0.980408
8676 2 0.62998 0.669094 0.956615
8836 2 0.972691 0.550803 0.766152
9177 2 0.508597 0.51889 0.83209
8846 2 0.755908 0.872348 0.817406
9050 2 0.586985 0.83442 0.840384
9189 2 0.994772 0.616579 0.897352
9195 2 0.665527 0.589755 0.841013
9197 2 0.795037 0.519645 0.76523
9209 2 0.925742 0.689483 0.813282
9241 2 0.929269 0.609739 0.831925
