ITEM: TIMESTEP
150000
ITEM: NUMBER OF ATOMS
1169
ITEM: BOX BOUNDS pp pp pp
-3.0000000000000000e+01 3.0000000000000000e+01
-3.0000000000000000e+01 3.0000000000000000e+01
-1.5000000000000000e+01 1.5000000000000000e+01
ITEM: ATOMS id type xs ys zs
4883 2 0.277258 0.185185 0.181814
5097 2 0.183205 0.243043 0.341208
3624 2 0.285902 0.247817 0.421642
5004 2 0.328532 0.0466275 0.27451
5093 2 0.205506 0.0606959 0.416185
5115 2 0.213118 0.0425301 0.194102
5123 2 0.290445 0.0601069 0.0781507
4859 2 0.185128 0.0318704 0.578029
4910 2 0.0172745 0.118184 0.701004
5047 2 0.0398271 0.139887 0.932735
4733 2 0.0772248 0.0716182 0.785619
5024 2 0.306264 0.126187 0.695697
4941 2 0.287286 0.159622 0.915861
5089 2 0.173501 0.177668 0.931782
5122 2 0.0837188 0.0486557 0.542699
5081 2 0.143504 0.219673 0.733731
5100 2 0.162004 0.112546 0.821114
258 2 0.317 0.396574 0.184518
4361 2 0.198682 0.455194 0.0769858
611 2 0.315347 0.350326 0.148545
1066 2 0.271622 0.449179 0.0256181
757 2 0.282455 0.48546 0.299424
551 2 0.32191 0.422029 0.102906
700 2 0.325392 0.434158 0.23704
1428 2 0.319694 0.364844 0.258824
687 2 0.320926 0.464754 0.165713
739 2 0.313086 0.318607 0.2305
555 2 0.331862 0.345992 0.343448
799 2 0.273212 0.415584 0.30154
1871 2 0.24382 0.3371 0.311801
1089 2 0.311447 0.448673 0.455537
3695 2 0.26042 0.488813 0.151567
1231 2 0.320112 0.294886 0.32377
1014 2 0.32535 0.491027 0.0829898
2235 2 0.243545 0.380236 0.163221
5098 2 0.0566553 0.339285 0.421776
1624 2 0.283946 0.378905 0.0250018
1132 2 0.318074 0.297187 0.127566
5061 2 0.0219289 0.408149 0.30387
4232 2 0.231841 0.273569 0.21913
4706 2 0.200784 0.44834 0.268109
3564 2 0.292881 0.37271 0.442624
5085 2 0.134828 0.393248 0.112472
5088 2 0.197531 0.366065 0.404394
999 2 0.324524 0.263293 0.212106
1136 2 0.275352 0.404268 0.867469
270 1 0.321821 0.411802 0.8104
4728 2 0.067337 0.412768 0.768054
2087 2 0.233613 0.477315 0.844628
2318 2 0.222222 0.443119 0.622076
1287 2 0.278475 0.431535 0.762641
3041 2 0.288169 0.300249 0.83345
1410 2 0.265866 0.387155 0.694267
686 2 0.292137 0.369259 0.784293
838 2 0.296073 0.457358 0.901683
731 2 0.317597 0.346073 0.707244
269 1 0.31931 0.402264 0.710623
1474 2 0.309376 0.468791 0.811747
2085 2 0.209148 0.396306 0.790718
2109 2 0.324353 0.274788 0.68871
1060 2 0.295755 0.447754 0.666598
4731 2 0.208777 0.314915 0.832387
271 1 0.318297 0.396301 0.667244
5092 2 0.127679 0.281833 0.904837
4164 2 0.228924 0.315923 0.627481
5026 2 0.0428702 0.466691 0.888367
331 1 0.327618 0.421407 0.851847
604 2 0.300676 0.415914 0.566999
2266 2 0.292257 0.357045 0.609078
887 2 0.32703 0.36964 0.883609
2011 2 0.330119 0.431132 0.965332
5076 2 0.0134972 0.353349 0.952514
4849 2 0.318409 0.291341 0.979278
4979 2 0.159185 0.348238 0.529098
1643 2 0.206843 0.381907 0.947361
1686 2 0.321216 0.499097 0.744748
189 1 0.329559 0.590073 0.20077
1320 2 0.323616 0.594221 0.437886
1068 2 0.278471 0.595184 0.239103
190 1 0.3251 0.619448 0.331977
3676 2 0.317246 0.701064 0.0907536
4583 2 0.253427 0.713308 0.242181
875 2 0.287935 0.595444 0.115929
4287 2 0.195595 0.600463 0.424944
560 2 0.303948 0.638308 0.194113
83 2 0.331356 0.513023 0.176589
2460 2 0.228271 0.643752 0.1795
1551 2 0.245045 0.510385 0.421811
876 2 0.277996 0.595392 0.35675
744 2 0.326847 0.66951 0.28242
3871 2 0.223086 0.539239 0.277173
3438 2 0.243112 0.664702 0.462823
188 1 0.323819 0.615336 0.288339
1006 2 0.310631 0.542735 0.0920472
2862 2 0.295798 0.737203 0.353187
1171 2 0.317855 0.563501 0.30335
1467 2 0.294966 0.546446 0.200156
4547 2 0.213744 0.567075 0.143936
4943 2 0.138447 0.510476 0.351519
1598 2 0.277341 0.645359 0.295925
982 2 0.305122 0.662132 0.39352
2667 2 0.241749 0.536449 0.0191463
837 2 0.324023 0.518856 0.424712
5094 2 0.12293 0.655244 0.115965
5127 2 0.0203032 0.518742 0.114602
431 2 0.324817 0.619044 0.840237
1112 2 0.285745 0.579653 0.689813
330 2 0.302103 0.541032 0.775505
2870 2 0.198664 0.655206 0.611591
676 2 0.254201 0.503712 0.690079
434 1 0.330657 0.614034 0.724712
535 2 0.302538 0.657313 0.775601
4754 2 0.0437127 0.744773 0.788513
4965 2 0.0735656 0.630612 0.618964
650 2 0.297039 0.512448 0.859552
4806 2 0.152322 0.534377 0.553844
1067 2 0.295508 0.691528 0.681032
692 2 0.247345 0.635022 0.859922
721 2 0.275796 0.719804 0.929438
1254 2 0.294533 0.588257 0.801385
2055 2 0.310165 0.512355 0.577584
977 2 0.297204 0.56342 0.908955
5038 2 0.0892343 0.535711 0.821932
1557 2 0.283293 0.632444 0.697156
1667 2 0.287707 0.652877 0.594457
1180 2 0.331152 0.540454 0.696296
1887 2 0.300218 0.627737 0.963704
1341 2 0.325442 0.605542 0.614624
2685 2 0.23308 0.551078 0.849021
2208 2 0.245323 0.564285 0.556279
3818 2 0.207956 0.584348 0.697645
5006 2 0.161063 0.503228 0.822705
4515 2 0.189608 0.619106 0.994095
2625 2 0.238262 0.70709 0.7675
1479 2 0.331898 0.711964 0.60431
433 1 0.332754 0.650967 0.677647
1166 2 0.310729 0.504344 0.967651
5084 2 0.158319 0.741835 0.976505
5103 2 0.00496091 0.609123 0.884151
4914 2 0.188101 0.811788 0.0904146
5090 2 0.275481 0.847466 0.249475
4954 2 0.300799 0.779162 0.0657358
5077 2 0.206952 0.893615 0.103374
5021 2 0.107736 0.966187 0.0739371
5067 2 0.184095 0.751495 0.402255
5114 2 0.0445438 0.760278 0.127381
5120 2 0.309056 0.958478 0.375304
5125 2 0.0546374 0.843433 0.0464402
5069 2 0.033875 0.789674 0.519709
4379 2 0.185331 0.785562 0.685442
5051 2 0.193117 0.974141 0.919769
1379 2 0.29646 0.767439 0.745648
4971 2 0.251041 0.867002 0.869604
5036 2 0.0502948 0.980179 0.683483
5062 2 0.0960074 0.887275 0.82514
4211 2 0.263348 0.751217 0.568621
4710 2 0.53789 0.185476 0.112218
4637 2 0.410185 0.192772 0.296072
4949 2 0.41489 0.0607425 0.362862
4310 2 0.605708 0.199553 0.364577
4936 2 0.608409 0.161801 0.185731
4542 2 0.455526 0.150215 0.127749
4981 2 0.550722 0.10615 0.0728475
3349 2 0.341587 0.177524 0.425995
3498 2 0.483777 0.231572 0.332945
5072 2 0.375273 0.13364 0.117892
3864 2 0.416878 0.229803 0.0138335
5037 2 0.449411 0.156879 0.494611
929 2 0.552377 0.248027 0.360374
3750 2 0.643885 0.247199 0.805633
4461 2 0.520548 0.156789 0.76298
4962 2 0.37496 0.170222 0.901109
5028 2 0.411033 0.0846864 0.816002
4476 2 0.503818 0.216915 0.608395
4296 2 0.483571 0.210138 0.907244
4213 2 0.42789 0.192083 0.725893
5102 2 0.474209 0.135864 0.938033
5124 2 0.543831 0.144503 0.504251
5129 2 0.635324 0.0649338 0.612388
17 1 0.371932 0.311951 0.313591
13 1 0.364117 0.315999 0.270181
10 1 0.365781 0.33682 0.250219
14 1 0.374286 0.351803 0.280114
25 1 0.40753 0.32159 0.361023
21 1 0.386747 0.325946 0.337816
20 1 0.387413 0.345771 0.318105
24 1 0.407945 0.357607 0.320382
29 1 0.428686 0.333322 0.362553
28 1 0.42895 0.346218 0.326132
15 1 0.375143 0.373819 0.265603
11 1 0.368472 0.381389 0.224146
12 1 0.369297 0.404514 0.212668
16 1 0.378106 0.419423 0.242733
23 1 0.408337 0.378899 0.306324
18 1 0.391132 0.387519 0.283258
19 1 0.391409 0.410099 0.275953
22 1 0.411106 0.42148 0.286881
26 1 0.428899 0.388044 0.293593
27 1 0.43129 0.410165 0.289306
33 1 0.450781 0.332936 0.381442
30 1 0.448308 0.353356 0.303623
38 1 0.490941 0.347068 0.373011
37 1 0.470447 0.341695 0.356794
35 1 0.469026 0.349648 0.314496
39 1 0.486236 0.357918 0.286406
49 1 0.522374 0.36732 0.371228
45 1 0.507618 0.356713 0.348779
44 1 0.506273 0.360323 0.304428
48 1 0.524092 0.367885 0.28186
53 1 0.540994 0.374239 0.353054
52 1 0.541125 0.376407 0.307746
32 1 0.446711 0.373656 0.28028
31 1 0.450317 0.417604 0.267033
40 1 0.483102 0.371068 0.248495
34 1 0.462266 0.380624 0.250203
36 1 0.461622 0.402876 0.23623
41 1 0.476874 0.411363 0.20407
47 1 0.521762 0.374559 0.23732
43 1 0.500653 0.378764 0.220856
42 1 0.497433 0.398253 0.194779
46 1 0.517392 0.405737 0.174138
51 1 0.540467 0.380976 0.218612
50 1 0.538802 0.394607 0.181935
54 1 0.560285 0.368631 0.374059
57 1 0.560388 0.376006 0.285103
65 1 0.598287 0.361501 0.36554
61 1 0.579367 0.367871 0.348259
58 1 0.578195 0.367965 0.304853
63 1 0.596083 0.364394 0.281548
70 1 0.630637 0.33564 0.359862
66 1 0.615987 0.352742 0.346772
69 1 0.615074 0.358934 0.303835
73 1 0.634598 0.35673 0.285248
56 1 0.560154 0.380176 0.242033
55 1 0.559736 0.404089 0.169414
62 1 0.597989 0.373391 0.240127
60 1 0.580172 0.380731 0.219533
59 1 0.580366 0.395042 0.183114
64 1 0.601509 0.40681 0.176493
72 1 0.637605 0.373313 0.251969
68 1 0.619265 0.380652 0.227636
67 1 0.620135 0.400005 0.2034
71 1 0.639023 0.415367 0.211715
101 1 0.377939 0.442937 0.233293
96 1 0.371544 0.451191 0.193966
97 1 0.373306 0.475128 0.184089
104 1 0.383394 0.488923 0.214377
112 1 0.411076 0.443756 0.281477
106 1 0.39258 0.455702 0.258039
107 1 0.393799 0.479441 0.250604
115 1 0.412675 0.491168 0.264726
117 1 0.431567 0.454192 0.274854
119 1 0.431477 0.476997 0.269499
259 2 0.503333 0.454915 0.296219
6 1 0.362844 0.342385 0.204519
122 1 0.451315 0.44071 0.261624
125 1 0.452289 0.484128 0.25376
132 1 0.478248 0.434039 0.199688
128 1 0.4642 0.447941 0.225038
129 1 0.465838 0.471202 0.224545
134 1 0.484741 0.479313 0.204472
144 1 0.517279 0.429694 0.162408
139 1 0.499071 0.442912 0.182022
137 1 0.502182 0.46569 0.188947
141 1 0.524247 0.473187 0.200556
148 1 0.539309 0.441033 0.16006
147 1 0.541665 0.462819 0.180547
86 1 0.36964 0.444035 0.124509
93 1 0.368141 0.435011 0.162753
91 1 0.372608 0.4823 0.141577
154 1 0.559955 0.428461 0.157783
151 1 0.561694 0.467173 0.204804
164 1 0.6022 0.429608 0.162552
158 1 0.581004 0.440598 0.159396
156 1 0.578926 0.462861 0.176281
161 1 0.596936 0.475135 0.180583
171 1 0.641899 0.437168 0.191763
169 1 0.622318 0.443638 0.166935
168 1 0.617516 0.467301 0.165342
173 1 0.633902 0.482259 0.175132
8 1 0.368004 0.412132 0.170698
162 1 0.597982 0.493049 0.210636
88 1 0.370102 0.464654 0.11264
99 2 0.420922 0.42466 0.177648
177 1 0.653276 0.477312 0.196675
4 1 0.367651 0.39536 0.140901
75 1 0.647734 0.32869 0.334579
260 2 0.578494 0.427906 0.266382
77 1 0.651507 0.345525 0.304957
256 2 0.417557 0.386801 0.184998
178 1 0.656332 0.454263 0.210815
3 1 0.364648 0.374602 0.153577
255 2 0.363983 0.385371 0.375477
7 1 0.363572 0.365228 0.193572
76 1 0.655487 0.386842 0.258678
74 1 0.654098 0.409797 0.245271
1797 2 0.462825 0.462928 0.108486
2 1 0.363746 0.325588 0.1736
257 2 0.536538 0.428531 0.265301
9 1 0.363948 0.300627 0.237625
1 2 0.50244 0.414575 0.300836
899 2 0.335804 0.403572 0.304943
142 1 0.528239 0.489299 0.235782
683 2 0.349995 0.347951 0.0613561
152 1 0.564043 0.481238 0.244508
82 2 0.557699 0.328596 0.234413
78 1 0.646382 0.312908 0.302291
1975 2 0.413588 0.301219 0.151772
1079 2 0.422105 0.461263 0.162816
1297 2 0.406097 0.417629 0.39294
525 2 0.43928 0.280559 0.394102
527 2 0.476531 0.399416 0.354375
2186 2 0.421423 0.317518 0.473974
773 2 0.580488 0.314526 0.393861
1055 2 0.595745 0.407237 0.421291
3165 2 0.534007 0.279001 0.0986511
602 2 0.442156 0.384634 0.398617
655 2 0.509787 0.325469 0.207982
710 2 0.415471 0.349792 0.209741
184 1 0.664474 0.447869 0.251298
1051 2 0.416239 0.313002 0.247457
746 2 0.591625 0.31082 0.300994
753 2 0.461055 0.326625 0.210598
755 2 0.608854 0.323269 0.21481
1726 2 0.487327 0.384099 0.452934
770 2 0.547001 0.323045 0.32251
941 2 0.453932 0.44407 0.372196
790 2 0.644313 0.395553 0.365053
1651 2 0.359639 0.441967 0.340276
736 2 0.605304 0.450637 0.0585869
878 2 0.565559 0.421051 0.346232
829 2 0.396874 0.474245 0.367108
937 2 0.408579 0.274391 0.302883
963 2 0.488151 0.489078 0.332591
1511 2 0.480751 0.326054 0.475034
902 2 0.504053 0.306995 0.298888
1003 2 0.461099 0.366525 0.142392
1005 2 0.659646 0.303723 0.436571
1159 2 0.608716 0.356567 0.131888
5 1 0.363042 0.304717 0.192506
1134 2 0.559654 0.470288 0.0752492
811 2 0.379988 0.278089 0.401522
1212 2 0.561159 0.347714 0.143921
1205 2 0.51193 0.356071 0.122395
1219 2 0.611993 0.411425 0.31708
880 2 0.399 0.364208 0.430087
1230 2 0.610074 0.450149 0.272735
79 1 0.660173 0.428304 0.271737
1335 2 0.535064 0.471773 0.361803
881 2 0.586982 0.478166 0.350075
1641 2 0.637543 0.407374 0.0903798
1837 2 0.652024 0.457298 0.36807
1528 2 0.534026 0.323985 0.427496
2022 2 0.510605 0.466417 0.0786481
2211 2 0.372138 0.279597 0.0903919
1423 2 0.533644 0.407859 0.0650822
1634 2 0.455635 0.29759 0.29869
1110 2 0.405167 0.348913 0.106911
1664 2 0.477372 0.412087 0.0927589
1307 2 0.464808 0.468327 0.489254
1520 2 0.519687 0.419985 0.39142
157 1 0.583134 0.49542 0.245199
737 2 0.54795 0.392743 0.470058
1030 2 0.490414 0.293267 0.389845
1782 2 0.412142 0.415845 0.0903119
865 2 0.358658 0.256881 0.306164
1900 2 0.619611 0.27889 0.370853
2585 2 0.631076 0.26734 0.244551
1039 2 0.366901 0.410434 0.0356904
1896 2 0.415334 0.478451 0.0630529
675 2 0.622533 0.275083 0.0946434
2301 2 0.585005 0.399441 0.0685084
2120 2 0.355837 0.326376 0.429695
1836 2 0.467559 0.304933 0.0617463
146 1 0.54659 0.492703 0.262961
1734 2 0.632023 0.488469 0.293715
1215 2 0.63278 0.498687 0.0603553
2144 2 0.545333 0.341327 0.0108648
1899 2 0.551992 0.261184 0.231707
1043 2 0.615571 0.34728 0.46927
948 2 0.339165 0.47972 0.268337
261 2 0.663231 0.457768 0.0936843
1253 2 0.47527 0.252436 0.188366
2210 2 0.53618 0.460442 0.497007
2808 2 0.653565 0.330978 0.190398
1814 2 0.364622 0.478571 0.00249946
858 2 0.661781 0.376466 0.148859
135 1 0.491618 0.499278 0.221816
110 2 0.432123 0.499157 0.156748
1048 2 0.443797 0.385769 0.00124364
1544 2 0.389632 0.255718 0.199755
702 2 0.443038 0.499067 0.365513
280 1 0.374288 0.380111 0.649435
277 1 0.355642 0.386656 0.671413
275 1 0.354424 0.387984 0.71642
278 1 0.374534 0.386497 0.737785
286 1 0.414242 0.378383 0.649385
283 1 0.393707 0.37793 0.670874
282 1 0.39414 0.384763 0.714306
285 1 0.413316 0.384301 0.735333
289 1 0.431847 0.389198 0.664817
288 1 0.431393 0.384176 0.707976
279 1 0.375534 0.39505 0.779386
276 1 0.357034 0.405072 0.798468
341 1 0.359716 0.424985 0.82537
284 1 0.415659 0.393509 0.776621
281 1 0.396842 0.401528 0.794724
355 1 0.398678 0.42194 0.819054
287 1 0.435587 0.402589 0.788008
363 1 0.43646 0.422708 0.816254
292 1 0.451941 0.389305 0.644005
290 1 0.452457 0.386444 0.72477
296 1 0.49092 0.37391 0.643113
295 1 0.473127 0.386628 0.659488
294 1 0.472438 0.387231 0.702167
297 1 0.491171 0.386598 0.725083
304 1 0.529744 0.363661 0.654383
301 1 0.509214 0.368855 0.671451
300 1 0.510538 0.37859 0.710942
303 1 0.528103 0.37783 0.737756
307 1 0.548687 0.369621 0.67695
306 1 0.547074 0.37261 0.719706
291 1 0.453826 0.395596 0.765075
298 1 0.491128 0.397178 0.764882
293 1 0.472495 0.40648 0.771078
371 1 0.473322 0.424307 0.79869
302 1 0.528128 0.39012 0.777442
299 1 0.509587 0.40152 0.789986
385 1 0.510287 0.422544 0.813847
305 1 0.548711 0.397103 0.797852
395 1 0.547805 0.420499 0.816455
308 1 0.566342 0.374037 0.653289
310 1 0.56737 0.375308 0.744028
316 1 0.6039 0.370567 0.64298
313 1 0.585754 0.369474 0.671867
311 1 0.586068 0.373339 0.716648
315 1 0.607327 0.378212 0.730399
320 1 0.642665 0.371776 0.637116
317 1 0.623418 0.37659 0.658649
319 1 0.625958 0.380754 0.701736
322 1 0.644561 0.391573 0.713773
309 1 0.568724 0.386977 0.783494
314 1 0.608876 0.389708 0.768607
312 1 0.58893 0.39565 0.790323
405 1 0.588003 0.416785 0.808565
321 1 0.647981 0.400125 0.754384
318 1 0.629188 0.400683 0.780285
411 1 0.627362 0.418636 0.80683
346 1 0.38056 0.434003 0.825773
356 1 0.416958 0.435421 0.825438
347 1 0.379782 0.45609 0.817067
343 1 0.362909 0.467888 0.832224
345 1 0.36104 0.489491 0.816076
358 1 0.416474 0.458781 0.812032
351 1 0.396613 0.467657 0.799109
354 1 0.392259 0.483224 0.765577
361 1 0.43396 0.467568 0.789548
365 1 0.432078 0.483274 0.755478
366 1 0.454928 0.435158 0.811545
376 1 0.492226 0.435864 0.803495
390 1 0.529342 0.435133 0.814862
368 1 0.453985 0.457923 0.799896
378 1 0.49205 0.457703 0.787123
373 1 0.472832 0.467218 0.777621
375 1 0.471785 0.481904 0.739293
388 1 0.529869 0.458246 0.798091
383 1 0.510854 0.467686 0.775437
381 1 0.512154 0.480173 0.736147
393 1 0.549799 0.464879 0.779015
392 1 0.552008 0.476648 0.738457
400 1 0.568513 0.431737 0.814047
410 1 0.606363 0.428215 0.800995
420 1 0.643937 0.43291 0.814202
399 1 0.568359 0.453152 0.792194
409 1 0.603903 0.450654 0.79608
403 1 0.587627 0.459257 0.772188
401 1 0.591414 0.476714 0.743158
417 1 0.638439 0.455159 0.822246
415 1 0.619384 0.464007 0.807771
412 1 0.620396 0.484138 0.792615
268 2 0.487613 0.410386 0.55824
325 1 0.662609 0.389643 0.687972
835 2 0.533672 0.272576 0.515032
254 2 0.41156 0.436225 0.713632
274 1 0.336508 0.388529 0.648144
273 1 0.336077 0.402707 0.780283
272 1 0.33572 0.396686 0.73674
894 2 0.584948 0.416572 0.599397
1392 2 0.36823 0.4952 0.663438
339 1 0.353632 0.457398 0.869911
336 1 0.347113 0.43388 0.858593
1756 2 0.385709 0.465418 0.506817
712 2 0.571376 0.323116 0.729164
601 2 0.493813 0.349532 0.806858
2656 2 0.402993 0.267899 0.696443
608 2 0.500084 0.318534 0.633008
1071 2 0.632373 0.445091 0.706222
644 2 0.662143 0.474023 0.730098
1275 2 0.454092 0.351449 0.565578
667 2 0.396316 0.427919 0.627141
668 2 0.488059 0.437096 0.686279
677 2 0.561186 0.423684 0.705099
2922 2 0.482007 0.42697 0.911148
689 2 0.443947 0.460936 0.909839
866 2 0.581543 0.477962 0.881515
745 2 0.618938 0.326824 0.704412
421 1 0.635243 0.485893 0.86092
767 2 0.337596 0.45339 0.7428
816 2 0.448425 0.438135 0.699561
621 2 0.638294 0.425413 0.619608
1370 2 0.623904 0.32314 0.608788
323 1 0.661995 0.37348 0.6553
980 2 0.645977 0.347716 0.781353
1011 2 0.506799 0.471157 0.625714
396 1 0.573253 0.484785 0.721996
1037 2 0.393325 0.346704 0.809816
1757 2 0.432519 0.27809 0.820807
424 1 0.649191 0.466764 0.853661
912 2 0.345913 0.337617 0.610551
1883 2 0.606488 0.458898 0.507811
696 2 0.617297 0.478808 0.643022
1093 2 0.473845 0.336558 0.729472
1122 2 0.524986 0.430027 0.705318
407 1 0.610031 0.490255 0.753217
890 2 0.450258 0.337055 0.656558
1142 2 0.557667 0.460514 0.631044
427 1 0.631645 0.497349 0.897672
842 2 0.648307 0.42069 0.922053
1119 2 0.605465 0.442089 0.908714
1306 2 0.416472 0.332546 0.71949
1188 2 0.423565 0.398054 0.546818
1191 2 0.598348 0.425733 0.690507
552 2 0.474073 0.261694 0.713276
1244 2 0.543834 0.342181 0.820691
1292 2 0.52153 0.384948 0.893636
1284 2 0.372952 0.438099 0.715432
1324 2 0.417726 0.48371 0.644829
2513 2 0.399841 0.485706 0.90397
1386 2 0.470743 0.382325 0.86787
1395 2 0.398007 0.330488 0.613802
1347 2 0.519451 0.355849 0.548192
1688 2 0.449162 0.438691 0.607836
1391 2 0.36126 0.396306 0.544033
1575 2 0.543943 0.447528 0.917604
1012 2 0.564981 0.321442 0.632867
885 2 0.56573 0.261447 0.690665
1468 2 0.347379 0.440272 0.638555
333 1 0.345786 0.475315 0.896056
1434 2 0.374013 0.387718 0.897885
750 2 0.368084 0.334784 0.708955
1041 2 0.344425 0.350568 0.796275
874 2 0.577779 0.354124 0.549302
1539 2 0.523266 0.324204 0.731039
1540 2 0.393425 0.437098 0.930712
1605 2 0.499066 0.476115 0.88565
1617 2 0.596532 0.341738 0.811759
1835 2 0.57063 0.39317 0.902166
1623 2 0.527274 0.413899 0.622922
387 1 0.533463 0.485812 0.7187
2272 2 0.353964 0.265297 0.544877
1660 2 0.617212 0.378392 0.878115
425 1 0.665096 0.430377 0.795663
629 2 0.627166 0.393357 0.535653
926 2 0.480494 0.324687 0.933733
1529 2 0.590593 0.290337 0.902912
1769 2 0.421997 0.386662 0.892774
1107 2 0.59023 0.49258 0.973443
359 1 0.411533 0.493455 0.749174
1964 2 0.441197 0.348119 0.805127
1743 2 0.507626 0.2798 0.843693
738 2 0.402899 0.320084 0.962328
419 1 0.626117 0.497688 0.827445
335 1 0.347244 0.497665 0.883561
369 1 0.451619 0.49218 0.736006
1437 2 0.358235 0.286457 0.852589
380 1 0.492234 0.490532 0.721443
349 1 0.372197 0.495155 0.774938
1161 2 0.447323 0.262655 0.545269
764 2 0.605981 0.261502 0.529233
1789 2 0.615123 0.343552 0.991672
1311 2 0.463216 0.499387 0.625218
326 1 0.665893 0.351959 0.670426
324 1 0.666443 0.414275 0.762936
98 1 0.383006 0.517759 0.160983
95 1 0.379702 0.540171 0.151908
102 1 0.392165 0.553248 0.178717
108 1 0.400618 0.524672 0.22971
105 1 0.407798 0.543563 0.204839
113 1 0.428606 0.551858 0.197803
120 1 0.437752 0.52383 0.254366
116 1 0.443978 0.542414 0.225269
100 1 0.390995 0.575815 0.174756
111 1 0.430542 0.575239 0.186507
123 1 0.465384 0.550094 0.215395
130 1 0.475706 0.513904 0.236786
127 1 0.481635 0.535392 0.224844
133 1 0.501288 0.540786 0.243167
136 1 0.512241 0.504584 0.238947
138 1 0.512775 0.523276 0.264308
143 1 0.528863 0.524808 0.297154
2077 2 0.406292 0.526506 0.000421978
149 1 0.548969 0.511744 0.294147
121 1 0.470017 0.572509 0.211248
131 1 0.501957 0.562766 0.255925
145 1 0.529243 0.547539 0.311204
153 1 0.570942 0.523292 0.297072
174 1 0.627801 0.505018 0.172748
159 1 0.58703 0.516341 0.265472
163 1 0.59999 0.534217 0.244392
167 1 0.611499 0.509955 0.199692
170 1 0.605678 0.531106 0.202959
172 1 0.61027 0.546609 0.173205
155 1 0.57053 0.54701 0.309599
165 1 0.598045 0.557492 0.251977
175 1 0.604847 0.570024 0.177918
94 1 0.369721 0.584728 0.169438
195 1 0.365611 0.602032 0.200864
198 1 0.384361 0.612172 0.220802
109 1 0.41046 0.587366 0.184914
200 1 0.406885 0.606201 0.210748
203 1 0.426278 0.614621 0.233841
118 1 0.450705 0.585709 0.204265
206 1 0.448572 0.60602 0.228269
197 1 0.381208 0.621027 0.26228
194 1 0.359989 0.621878 0.281633
196 1 0.359198 0.630353 0.32413
199 1 0.377879 0.630146 0.346407
204 1 0.422518 0.624562 0.27337
201 1 0.400029 0.623306 0.286174
202 1 0.396003 0.621211 0.328539
205 1 0.413531 0.618795 0.357023
207 1 0.440175 0.624806 0.30201
208 1 0.435029 0.621437 0.344364
210 1 0.467129 0.612899 0.252019
126 1 0.488955 0.580246 0.235744
212 1 0.487382 0.600798 0.25562
217 1 0.500337 0.603371 0.290368
140 1 0.51404 0.564734 0.293702
218 1 0.51477 0.586653 0.300344
221 1 0.530371 0.590899 0.329399
150 1 0.550225 0.556729 0.321993
225 1 0.550046 0.579264 0.328687
209 1 0.462487 0.623218 0.292216
211 1 0.449954 0.626625 0.377082
216 1 0.498062 0.619546 0.322151
213 1 0.476943 0.625707 0.326947
214 1 0.471661 0.62992 0.369539
215 1 0.488112 0.630825 0.405964
222 1 0.531535 0.609509 0.35132
219 1 0.513216 0.621444 0.357143
220 1 0.510826 0.627511 0.398919
223 1 0.529813 0.625452 0.42873
226 1 0.550727 0.612011 0.373879
227 1 0.552657 0.618962 0.414042
229 1 0.568092 0.59058 0.323843
160 1 0.585758 0.562073 0.288375
232 1 0.581732 0.584491 0.2925
234 1 0.592484 0.601365 0.273572
166 1 0.599105 0.574833 0.220998
238 1 0.600544 0.596359 0.234344
241 1 0.616056 0.610859 0.217007
230 1 0.568133 0.610616 0.344253
228 1 0.576506 0.626893 0.41628
235 1 0.597308 0.619935 0.300435
231 1 0.585924 0.623749 0.339421
233 1 0.592352 0.631147 0.378937
236 1 0.615997 0.635929 0.373108
242 1 0.626157 0.625283 0.24925
239 1 0.617364 0.628917 0.292704
237 1 0.62864 0.633579 0.332596
240 1 0.650392 0.640088 0.319479
224 2 0.546468 0.582909 0.213615
191 1 0.342671 0.610756 0.264414
176 1 0.640159 0.522893 0.156835
180 1 0.616077 0.585555 0.150494
245 1 0.647551 0.62754 0.24579
244 1 0.624319 0.605227 0.174734
781 2 0.455177 0.572316 0.318384
87 1 0.372508 0.514988 0.0892544
264 2 0.639597 0.580547 0.302314
179 1 0.625146 0.540922 0.140729
187 2 0.377809 0.568439 0.281578
243 1 0.659969 0.636396 0.279066
193 1 0.34315 0.627769 0.354192
89 1 0.355314 0.572112 0.14389
114 1 0.41568 0.514948 0.26029
253 2 0.550092 0.66849 0.377312
92 1 0.362867 0.549796 0.128158
2044 2 0.595617 0.726808 0.176461
529 2 0.403872 0.657715 0.429584
593 2 0.62032 0.532781 0.348444
625 2 0.615607 0.582045 0.374945
657 2 0.529576 0.569538 0.429177
685 2 0.483772 0.577761 0.384743
1241 2 0.348844 0.735025 0.213432
706 2 0.456571 0.677218 0.412141
708 2 0.417232 0.572488 0.296068
182 1 0.661238 0.512478 0.151767
192 1 0.344779 0.602355 0.221648
1255 2 0.658379 0.653142 0.431391
1008 2 0.551562 0.544802 0.206003
762 2 0.652074 0.527596 0.26375
85 1 0.363558 0.536266 0.0882407
185 1 0.622713 0.554085 0.102481
916 2 0.359761 0.680357 0.36979
923 2 0.424249 0.533832 0.0960042
938 2 0.363312 0.578455 0.357634
248 1 0.655239 0.622599 0.205955
956 2 0.407136 0.537801 0.359733
965 2 0.5452 0.620698 0.24253
2535 2 0.492638 0.589952 0.47928
1058 2 0.57887 0.571298 0.422877
1061 2 0.50216 0.673654 0.338375
532 2 0.348149 0.543253 0.239785
1608 2 0.439151 0.742492 0.488238
1150 2 0.414816 0.671905 0.332201
1177 2 0.379163 0.674725 0.274941
1189 2 0.631383 0.680734 0.258754
1198 2 0.512705 0.562185 0.144312
1201 2 0.560481 0.520259 0.40604
1224 2 0.451512 0.661594 0.214332
2060 2 0.46439 0.567978 0.100999
1261 2 0.404693 0.66058 0.196673
1281 2 0.545073 0.653039 0.297611
1295 2 0.590164 0.675518 0.312227
183 1 0.621875 0.576272 0.108594
1316 2 0.474429 0.536262 0.337387
1369 2 0.567518 0.735055 0.401491
186 2 0.557503 0.515152 0.159883
1036 2 0.581068 0.651732 0.219952
124 1 0.45468 0.507501 0.251748
1276 2 0.595884 0.678877 0.430349
1382 2 0.619023 0.603662 0.469564
1400 2 0.435734 0.578609 0.417354
1091 2 0.632781 0.6882 0.357293
1405 2 0.570077 0.612587 0.151169
2181 2 0.399992 0.745592 0.34442
84 1 0.334459 0.578044 0.161896
2053 2 0.448538 0.632486 0.492785
103 1 0.38586 0.511108 0.205051
1444 2 0.567647 0.555549 0.108799
1450 2 0.502455 0.652682 0.235684
247 1 0.644853 0.614512 0.170203
763 2 0.588254 0.508444 0.0973991
857 2 0.515698 0.513636 0.130983
1786 2 0.493777 0.616609 0.151337
1730 2 0.38063 0.600837 0.440681
1754 2 0.556324 0.665796 0.104744
1766 2 0.457031 0.675576 0.306834
1851 2 0.579646 0.593609 0.0490337
1774 2 0.441394 0.623695 0.124724
1775 2 0.391404 0.624877 0.109145
1442 2 0.61302 0.632275 0.0811145
1045 2 0.340386 0.626319 0.112622
958 2 0.520065 0.724315 0.23052
2275 2 0.618389 0.521005 0.467016
1854 2 0.509709 0.678629 0.440364
1580 2 0.665024 0.598489 0.381546
868 2 0.351837 0.655447 0.195122
741 2 0.509292 0.523766 0.401539
661 2 0.40152 0.576376 0.0689694
709 2 0.467841 0.517292 0.126782
1894 2 0.365955 0.514351 0.313378
1290 2 0.396721 0.709361 0.0818211
2117 2 0.62216 0.663168 0.167459
1028 2 0.652329 0.56734 0.225304
1310 2 0.34668 0.582486 0.0358789
546 2 0.348425 0.737277 0.454352
90 1 0.379104 0.503233 0.126897
775 2 0.436314 0.724638 0.230901
585 2 0.487412 0.741392 0.365468
1762 2 0.639332 0.711789 0.0521678
1009 2 0.554789 0.659309 0.499287
3820 2 0.485168 0.677924 0.100355
1583 2 0.464775 0.53599 0.496846
492 1 0.592091 0.674872 0.657206
748 2 0.355711 0.669462 0.813246
350 1 0.372775 0.51897 0.762188
344 1 0.359967 0.53209 0.789064
342 1 0.361232 0.55442 0.780579
348 1 0.381687 0.563817 0.770495
360 1 0.412603 0.516574 0.73793
353 1 0.393509 0.529316 0.742947
352 1 0.401277 0.551757 0.758313
357 1 0.421354 0.559728 0.781289
364 1 0.434591 0.526033 0.749501
362 1 0.440534 0.547684 0.770024
496 1 0.600138 0.688509 0.69011
500 1 0.609547 0.660825 0.741846
501 1 0.621428 0.692455 0.756115
370 1 0.452707 0.515907 0.729013
367 1 0.463783 0.558232 0.770451
379 1 0.494693 0.513476 0.711099
374 1 0.474714 0.527735 0.719014
372 1 0.478871 0.549157 0.738329
377 1 0.501966 0.555368 0.740022
386 1 0.535085 0.505817 0.693918
382 1 0.516826 0.52033 0.703086
384 1 0.518681 0.54307 0.713799
389 1 0.535131 0.552631 0.6856
391 1 0.555757 0.514453 0.675747
394 1 0.555346 0.538744 0.67074
497 1 0.606203 0.681894 0.731056
489 1 0.592611 0.654523 0.673829
504 1 0.612822 0.652509 0.783856
397 1 0.576403 0.504146 0.690739
398 1 0.576357 0.550841 0.678175
406 1 0.609164 0.511521 0.745368
402 1 0.59568 0.518161 0.707654
404 1 0.595448 0.541463 0.702652
408 1 0.60547 0.55481 0.735565
418 1 0.624568 0.52006 0.818757
413 1 0.618051 0.526142 0.778194
414 1 0.609708 0.546296 0.777378
416 1 0.611097 0.560617 0.811196
447 1 0.382953 0.58655 0.784435
443 1 0.36403 0.597834 0.772509
442 1 0.364519 0.620255 0.761451
446 1 0.385223 0.630426 0.765129
453 1 0.423449 0.583003 0.799548
450 1 0.403522 0.596873 0.797766
449 1 0.404388 0.620553 0.785443
454 1 0.426799 0.628448 0.774637
458 1 0.446785 0.593694 0.801135
457 1 0.447566 0.616742 0.785081
445 1 0.386321 0.645775 0.73008
441 1 0.36848 0.655474 0.706222
444 1 0.372362 0.66416 0.663252
448 1 0.3927 0.662069 0.646583
455 1 0.426685 0.640375 0.734014
451 1 0.407716 0.648971 0.71379
452 1 0.406506 0.650077 0.669206
456 1 0.422641 0.643097 0.643239
459 1 0.444352 0.640865 0.70668
460 1 0.441633 0.639017 0.663292
462 1 0.467761 0.581199 0.78834
463 1 0.46736 0.626261 0.763723
472 1 0.506684 0.578144 0.750504
467 1 0.48875 0.592315 0.773209
465 1 0.48841 0.616271 0.763084
471 1 0.506947 0.624713 0.733588
477 1 0.53364 0.575909 0.685372
473 1 0.52156 0.588119 0.719464
474 1 0.522534 0.610931 0.715996
478 1 0.538054 0.617978 0.683088
481 1 0.55524 0.585538 0.674577
482 1 0.557045 0.607153 0.670943
461 1 0.464514 0.639662 0.724357
464 1 0.458453 0.644407 0.635352
470 1 0.502127 0.641738 0.702218
466 1 0.480082 0.646461 0.695623
468 1 0.475562 0.652668 0.65441
469 1 0.490904 0.659865 0.62682
479 1 0.536586 0.638549 0.665106
475 1 0.517976 0.650818 0.673398
476 1 0.513303 0.663009 0.637179
480 1 0.530682 0.666387 0.604666
483 1 0.55576 0.647935 0.644762
484 1 0.554789 0.664604 0.6168
486 1 0.576581 0.57418 0.679602
487 1 0.577625 0.618173 0.669036
495 1 0.60602 0.57791 0.731985
490 1 0.594425 0.586938 0.699302
491 1 0.595158 0.60969 0.693168
493 1 0.6066 0.624526 0.71996
502 1 0.616046 0.582922 0.803924
498 1 0.614107 0.592106 0.762758
499 1 0.614365 0.615409 0.758968
503 1 0.614348 0.629913 0.79158
488 1 0.576837 0.639691 0.656664
485 1 0.574835 0.678895 0.624108
494 1 0.605087 0.646762 0.709446
440 1 0.358297 0.664351 0.627662
262 2 0.403359 0.595885 0.687934
2269 2 0.390484 0.546413 0.54538
1319 2 0.594574 0.58996 0.581944
438 1 0.346319 0.62932 0.737105
263 2 0.475033 0.59484 0.667835
1062 2 0.526239 0.668021 0.947705
1960 2 0.500284 0.640913 0.523611
918 2 0.575389 0.68916 0.821405
1834 2 0.518884 0.725382 0.843877
1494 2 0.423304 0.617208 0.893402
515 2 0.558915 0.566933 0.78231
508 1 0.623967 0.666333 0.813972
437 1 0.346873 0.647892 0.711864
249 2 0.5596 0.529548 0.78045
507 1 0.620719 0.621866 0.830841
511 1 0.624547 0.637598 0.863558
512 1 0.623517 0.660548 0.856778
439 1 0.347772 0.584447 0.761905
505 1 0.617246 0.599093 0.837159
422 1 0.62138 0.529716 0.856987
340 1 0.345689 0.568802 0.7957
510 1 0.621998 0.585869 0.873146
423 1 0.612828 0.551104 0.850481
430 1 0.617751 0.56457 0.884453
823 2 0.356187 0.53745 0.96086
514 2 0.495685 0.695356 0.723985
338 1 0.349019 0.526573 0.829042
506 1 0.630132 0.687104 0.794758
432 2 0.404306 0.518805 0.84893