# --- log file ---

variable pre equal 112 # desired pressure (Atm)
variable tem equal 300 # desired temperature (K)

variable k1 equal 4.9 # spring constant
variable k2 equal 3.5 # spring constant

units real
atom_style molecular
boundary p p p
neighbor 1.0 bin
neigh_modify delay 3 one 6000
bond_style harmonic
angle_style harmonic
dihedral_style opls
improper_style harmonic
pair_style hybrid lj/cut 14 sg 15 cb 30 # Fluid-fluid interactions have a cutoff of 15 Å, fluid-solid interactions have a cutoff of 30 Å
# *--* C-C parameters *--*
bond_style harmonic
angle_style harmonic
dihedral_style opls
improper_style harmonic
# *--* C-C parameters *--*


# 2. Read the graphite platelet data file and define potentials parameters
read_data       ../geometry/carbonPlatelets/simulation_data/abpot_sys.data  extra/atom/types 1
Reading data file ...
  orthogonal box = (-30 -30 -30) to (30 30 30)
  3 by 4 by 4 MPI processor grid
  reading atoms ...
  480 atoms
  reading velocities ...
  480 velocities
  scanning bonds ...
  2 = max bonds/atom
  scanning angles ...
  3 = max angles/atom
  scanning dihedrals ...
  8 = max dihedrals/atom
  scanning impropers ...
  2 = max impropers/atom
  orthogonal box = (-30 -30 -30) to (30 30 30)
  3 by 4 by 4 MPI processor grid
  reading bonds ...
  676 bonds
  reading angles ...
  1268 angles
  reading dihedrals ...
  2394 dihedrals
  reading impropers ...
  396 impropers
Finding 1-2 1-3 1-4 neighbors ...
  special bond factors lj:    0        0        0       
  special bond factors coul:  0        0        0       
     3 = max # of 1-2 neighbors
     6 = max # of 1-3 neighbors
    18 = max # of 1-4 neighbors
    18 = max # of special neighbors
  special bonds CPU = 0.002 seconds
  read_data CPU = 0.052 seconds
include         PARM.lammps

#////////////////////////////////////////////////////////////////////////////////////////////////////////////////////////////////
#//     Filename: PARM.lammps
#//     File Type: LAMMPS input script
#//     Description: This script defines the parameters for the simulation of hydrogen absorption in graphite platelets.
#//     Author: Edoardo Cabiati
#//     Date: 2024-07-27
#////////////////////////////////////////////////////////////////////////////////////////////////////////////////////////////////

mass 2 2.016 # For now at least, in accordance with the paper by Wang and Johnson,
             # 1998, the hydrogen atoms are regarded as simple spherical atoms

# //////////////////////////////////////    C-C potentials    //////////////////////////////////////
pair_coeff 1 1 lj/cut 0.066 3.4
bond_coeff 1 469 1.4
angle_coeff 1 63 120
dihedral_coeff 1 0 7.25 0 0
improper_coeff 1 5 180
special_bonds lj 0.0 0.0 0.5
Finding 1-2 1-3 1-4 neighbors ...
  special bond factors lj:    0        0        0.5     
  special bond factors coul:  0        0        0       
     3 = max # of 1-2 neighbors
     6 = max # of 1-3 neighbors
    18 = max # of 1-4 neighbors
    18 = max # of special neighbors
  special bonds CPU = 0.001 seconds
# //////////////////////////////////////    C-C potentials    //////////////////////////////////////
# -------------------------------------------------------------------------------------------------
# //////////////////////////////////////    H-H potentials    //////////////////////////////////////
variable alpha equal 1.713          #|
variable sigma equal 1.567          #|
variable gamma equal 0.00993        #|
variable c6 equal 12.14             #|      The parameters are all in atomic units, the conversion to kcal/mol
variable c8 equal 215.2             #|      is performed in the pair_sg.cpp file
variable c9 equal 143.1             #|
variable c10 equal 4813.9           #|
variable rc equal 8.321             #|
pair_coeff 2 2 sg ${alpha} ${sigma} ${gamma} ${c6} ${c8} ${c9} ${c10} ${rc} # H-H potentials
pair_coeff 2 2 sg 1.713 ${sigma} ${gamma} ${c6} ${c8} ${c9} ${c10} ${rc} 
pair_coeff 2 2 sg 1.713 1.567 ${gamma} ${c6} ${c8} ${c9} ${c10} ${rc} 
pair_coeff 2 2 sg 1.713 1.567 0.00993 ${c6} ${c8} ${c9} ${c10} ${rc} 
pair_coeff 2 2 sg 1.713 1.567 0.00993 12.14 ${c8} ${c9} ${c10} ${rc} 
pair_coeff 2 2 sg 1.713 1.567 0.00993 12.14 215.2 ${c9} ${c10} ${rc} 
pair_coeff 2 2 sg 1.713 1.567 0.00993 12.14 215.2 143.1 ${c10} ${rc} 
pair_coeff 2 2 sg 1.713 1.567 0.00993 12.14 215.2 143.1 4813.9 ${rc} 
pair_coeff 2 2 sg 1.713 1.567 0.00993 12.14 215.2 143.1 4813.9 8.321 
#pair_coeff 2 2 sg 1.713 1.567 0.00993 12.14 215.2 143.1 4813.9 8.321 # H-H potentials
# //////////////////////////////////////    H-H potentials    //////////////////////////////////////
# -------------------------------------------------------------------------------------------------
# //////////////////////////////////////    C-H potentials    //////////////////////////////////////
variable sigma_CC equal 3.43 # Å
variable sigma_HH equal 3.075 # Å
variable sigma_CH_geo equal sqrt(${sigma_CC}*${sigma_HH}) # Å
variable sigma_CH_geo equal sqrt(3.43*${sigma_HH}) 
variable sigma_CH_geo equal sqrt(3.43*3.075) 
variable sigma_CH_arit equal 0.5*(${sigma_CC}+${sigma_HH}) # Å
variable sigma_CH_arit equal 0.5*(3.43+${sigma_HH}) 
variable sigma_CH_arit equal 0.5*(3.43+3.075) 

variable P_par equal 0.57 # Å^3
variable P_perp equal 1.995 # Å^3
variable P_h equal 0.81 # Å^3
variable E_h equal 2.337e5*(1/503.23) # K * 1/503.23 kcal/mol/K = kcal/mol
variable E_c equal 1.39254e5*(1/503.23) # K * 1/503.23 kcal/mol/K = kcal/mol

variable epsilon equal 4*v_E_h*v_E_c*v_P_h*(v_P_par+v_P_perp/2)/(v_sigma_CH_geo^6*(v_E_h+v_E_c)) # kcal/mol

pair_coeff 1 2 cb ${epsilon} ${sigma_CH_geo} ${P_par} ${P_perp} # C-H potential
pair_coeff 1 2 cb 0.750549668586509 ${sigma_CH_geo} ${P_par} ${P_perp} 
pair_coeff 1 2 cb 0.750549668586509 3.24765299870537 ${P_par} ${P_perp} 
pair_coeff 1 2 cb 0.750549668586509 3.24765299870537 0.57 ${P_perp} 
pair_coeff 1 2 cb 0.750549668586509 3.24765299870537 0.57 1.995 
#pair_coeff 1 2 lj/cut 0.3025 2.065
# //////////////////////////////////////    C-H potentials    //////////////////////////////////////

# 3. Add a single hydrogen molecule to the system, close to the center of the first platelet
create_atoms    2 single 0 0 -2
Created 1 atoms
  using lattice units in orthogonal box = (-30 -30 -30) to (30 30 30)
  create_atoms CPU = 0.000 seconds

group           C type 1
480 atoms in group C
group           H2 type 2
1 atoms in group H2

# 4. Equilibration
timestep        0.05
fix             mytth1 C spring/self ${k2} # Apply a spring force to the carbon atoms
fix             mytth1 C spring/self 3.5 
velocity        all create ${tem} 48 rot yes mom yes dist gaussian # Initialize velocities
velocity        all create 300 48 rot yes mom yes dist gaussian 
fix             mynpt all npt temp ${tem} ${tem} 100 x ${pre} ${pre} 1000 y ${pre} ${pre} 1000 # Apply NPT ensemble to the system
fix             mynpt all npt temp 300 ${tem} 100 x ${pre} ${pre} 1000 y ${pre} ${pre} 1000 
fix             mynpt all npt temp 300 300 100 x ${pre} ${pre} 1000 y ${pre} ${pre} 1000 
fix             mynpt all npt temp 300 300 100 x 112 ${pre} 1000 y ${pre} ${pre} 1000 
fix             mynpt all npt temp 300 300 100 x 112 112 1000 y ${pre} ${pre} 1000 
fix             mynpt all npt temp 300 300 100 x 112 112 1000 y 112 ${pre} 1000 
fix             mynpt all npt temp 300 300 100 x 112 112 1000 y 112 112 1000 

thermo          10000
dump            dump all atom 1000 simulation_data/absorption_pot.lammpstrj

run             20000

CITE-CITE-CITE-CITE-CITE-CITE-CITE-CITE-CITE-CITE-CITE-CITE-CITE

Your simulation uses code contributions which should be cited:

- Type Label Framework: https://doi.org/10.1021/acs.jpcb.3c08419

@Article{Gissinger24,
 author = {Jacob R. Gissinger, Ilia Nikiforov, Yaser Afshar, Brendon Waters, Moon-ki Choi, Daniel S. Karls, Alexander Stukowski, Wonpil Im, Hendrik Heinz, Axel Kohlmeyer, and Ellad B. Tadmor},
 title = {Type Label Framework for Bonded Force Fields in LAMMPS},
 journal = {J. Phys. Chem. B},
 year =    2024,
 volume =  128,
 number =  13,
 pages =   {3282–-3297}
}

CITE-CITE-CITE-CITE-CITE-CITE-CITE-CITE-CITE-CITE-CITE-CITE-CITE

Generated 0 of 1 mixed pair_coeff terms from geometric mixing rule
Neighbor list info ...
  update: every = 1 steps, delay = 3 steps, check = yes
  max neighbors/atom: 6000, page size: 100000
  master list distance cutoff = 31
  ghost atom cutoff = 31
  binsize = 15.5, bins = 4 4 4
  4 neighbor lists, perpetual/occasional/extra = 4 0 0
  (1) pair lj/cut, perpetual, skip trim from (4)
      attributes: half, newton on, cut 15
      pair build: skip/trim
      stencil: none
      bin: none
  (2) pair sg, perpetual, skip trim from (4)
      attributes: half, newton on, cut 16
      pair build: skip/trim
      stencil: none
      bin: none
  (3) pair cb, perpetual, skip from (4)
      attributes: half, newton on
      pair build: skip
      stencil: none
      bin: none
  (4) neighbor class addition, perpetual
      attributes: half, newton on
      pair build: half/bin/newton
      stencil: half/bin/3d
      bin: standard
Per MPI rank memory allocation (min/avg/max) = 13.28 | 13.37 | 13.93 Mbytes
   Step          Temp          E_pair         E_mol          TotEng         Press          Volume    
         0   300            308.43814      19603.922      20341.597     -432.48369      216000       
     10000   308.72719      373.58236      18568.419      19383.724     -313.9945       172136.64    
     20000   322.02648      371.05675      18538.378      19370.187     -418.66256      126544.33    
Loop time of 9.37579 on 48 procs for 20000 steps with 481 atoms

Performance: 9.215 ns/day, 2.604 hours/ns, 2133.153 timesteps/s, 1.026 Matom-step/s
99.8% CPU use with 48 MPI tasks x 1 OpenMP threads

MPI task timing breakdown:
Section |  min time  |  avg time  |  max time  |%varavg| %total
---------------------------------------------------------------
Pair    | 0.13422    | 0.57489    | 2.9699     |  83.8 |  6.13
Bond    | 0.0050038  | 0.49516    | 3.0035     | 121.9 |  5.28
Neigh   | 0.026449   | 0.029333   | 0.032615   |   0.9 |  0.31
Comm    | 2.3743     | 5.2733     | 7.698      |  80.4 | 56.24
Output  | 0.0049381  | 0.011764   | 0.019595   |   4.6 |  0.13
Modify  | 0.79417    | 2.6479     | 5.9776     | 122.5 | 28.24
Other   |            | 0.3435     |            |       |  3.66

Nlocal:        10.0208 ave          42 max           0 min
Histogram: 21 4 10 5 0 1 0 3 3 1
Nghost:        1907.85 ave        2370 max        1332 min
Histogram: 8 0 0 0 24 0 0 0 0 16
Neighs:              0 ave           0 max           0 min
Histogram: 48 0 0 0 0 0 0 0 0 0

Total # of neighbors = 0
Ave neighs/atom = 0
Ave special neighs/atom = 15.567568
Neighbor list builds = 55
Dangerous builds = 0
unfix           mynpt
unfix           mytth1

# 5. Umbrella sampling
fix             mynvt all nvt temp ${tem} ${tem} 100
fix             mynvt all nvt temp 300 ${tem} 100
fix             mynvt all nvt temp 300 300 100
fix             mytth1 C spring/self ${k2}
fix             mytth1 C spring/self 3.5

variable        cpt loop 51
label           loop
variable        zdes equal  -15+0.60*(${cpt}-1)
variable        zdes equal  -15+0.60*(1-1)
variable        zave equal xcm(H2,z)
fix             mytth2 H2 spring tether ${k1} 2.5 2.5 ${zdes} 0
fix             mytth2 H2 spring tether 4.9 2.5 2.5 ${zdes} 0
fix             mytth2 H2 spring tether 4.9 2.5 2.5 -15 0
run             10000
Generated 0 of 1 mixed pair_coeff terms from geometric mixing rule
Per MPI rank memory allocation (min/avg/max) = 13.32 | 13.74 | 14.98 Mbytes
   Step          Temp          E_pair         E_mol          TotEng         Press     
     20000   322.02648      371.05675      18538.378      19370.187     -418.66256    
     30000   265.4203       343.84281      18571.599      19295.202     -1094.3009    
Loop time of 3.83797 on 48 procs for 10000 steps with 481 atoms

Performance: 11.256 ns/day, 2.132 hours/ns, 2605.546 timesteps/s, 1.253 Matom-step/s
100.0% CPU use with 48 MPI tasks x 1 OpenMP threads

MPI task timing breakdown:
Section |  min time  |  avg time  |  max time  |%varavg| %total
---------------------------------------------------------------
Pair    | 0.0037911  | 0.18459    | 1.2879     |  63.1 |  4.81
Bond    | 0.0011199  | 0.21543    | 1.0783     |  62.0 |  5.61
Neigh   | 0.06233    | 0.069313   | 0.075468   |   1.2 |  1.81
Comm    | 1.2556     | 2.7738     | 3.4215     |  39.6 | 72.27
Output  | 0.0017446  | 0.00398    | 0.0065083  |   2.4 |  0.10
Modify  | 0.12825    | 0.45679    | 1.8969     |  89.5 | 11.90
Other   |            | 0.1341     |            |       |  3.49

Nlocal:        10.0208 ave          39 max           0 min
Histogram: 21 4 8 5 2 0 2 0 2 4
Nghost:        1912.62 ave        2380 max        1334 min
Histogram: 8 0 0 0 24 0 0 0 0 16
Neighs:              0 ave           0 max           0 min
Histogram: 48 0 0 0 0 0 0 0 0 0

Total # of neighbors = 0
Ave neighs/atom = 0
Ave special neighs/atom = 15.567568
Neighbor list builds = 133
Dangerous builds = 0
fix             myat1 all ave/time 1000 10 10000 v_zave v_zdes file simulation_data/abpot/${cpt}.dat
fix             myat1 all ave/time 1000 10 10000 v_zave v_zdes file simulation_data/abpot/1.dat
run             50000
Generated 0 of 1 mixed pair_coeff terms from geometric mixing rule
Per MPI rank memory allocation (min/avg/max) = 13.32 | 13.79 | 14.98 Mbytes
   Step          Temp          E_pair         E_mol          TotEng         Press     
     30000   265.4203       343.84281      18571.599      19295.202     -1094.3009    
     40000   291.29417      399.27787      18527.763      19343.822      556.25895    
     50000   287.30961      389.28021      18536.371      19336.731      354.65944    
     60000   293.01719      368.35818      18551.082      19338.686     -209.18532    
     70000   304.16536      355.46631      18574.51       19365.173     -580.60628    
     80000   297.92945      391.11911      18538.809      19356.203      371.90862    
Loop time of 18.5728 on 48 procs for 50000 steps with 481 atoms

Performance: 11.630 ns/day, 2.064 hours/ns, 2692.107 timesteps/s, 1.295 Matom-step/s
100.0% CPU use with 48 MPI tasks x 1 OpenMP threads

MPI task timing breakdown:
Section |  min time  |  avg time  |  max time  |%varavg| %total
---------------------------------------------------------------
Pair    | 0.018334   | 0.91611    | 6.5306     | 137.7 |  4.93
Bond    | 0.0058057  | 1.0721     | 5.1151     | 136.3 |  5.77
Neigh   | 0.071161   | 0.078835   | 0.08512    |   1.3 |  0.42
Comm    | 5.9635     | 13.612     | 16.799     |  84.6 | 73.29
Output  | 0.0080872  | 0.01735    | 0.026912   |   4.6 |  0.09
Modify  | 0.6283     | 2.1949     | 9.0877     | 192.9 | 11.82
Other   |            | 0.6818     |            |       |  3.67

Nlocal:        10.0208 ave          48 max           0 min
Histogram: 21 5 14 1 0 1 3 1 1 1
Nghost:        1933.48 ave        2424 max        1332 min
Histogram: 8 0 0 0 24 0 0 0 0 16
Neighs:              0 ave           0 max           0 min
Histogram: 48 0 0 0 0 0 0 0 0 0

Total # of neighbors = 0
Ave neighs/atom = 0
Ave special neighs/atom = 15.567568
Neighbor list builds = 152
Dangerous builds = 0
unfix           myat1
next            cpt
jump            SELF loop
variable        zdes equal  -15+0.60*(${cpt}-1)
variable        zdes equal  -15+0.60*(2-1)
variable        zave equal xcm(H2,z)
fix             mytth2 H2 spring tether ${k1} 2.5 2.5 ${zdes} 0
fix             mytth2 H2 spring tether 4.9 2.5 2.5 ${zdes} 0
fix             mytth2 H2 spring tether 4.9 2.5 2.5 -14.4 0
run             10000
Generated 0 of 1 mixed pair_coeff terms from geometric mixing rule
Per MPI rank memory allocation (min/avg/max) = 13.32 | 13.82 | 14.98 Mbytes
   Step          Temp          E_pair         E_mol          TotEng         Press     
     80000   297.92945      391.11911      18538.809      19356.203      371.90862    
     90000   305.5516       376.94457      18531.939      19346.063      52.629571    
Loop time of 3.64274 on 48 procs for 10000 steps with 481 atoms

Performance: 11.859 ns/day, 2.024 hours/ns, 2745.190 timesteps/s, 1.320 Matom-step/s
100.0% CPU use with 48 MPI tasks x 1 OpenMP threads

MPI task timing breakdown:
Section |  min time  |  avg time  |  max time  |%varavg| %total
---------------------------------------------------------------
Pair    | 0.0035637  | 0.18405    | 1.2315     |  61.2 |  5.05
Bond    | 0.0011595  | 0.21655    | 1.138      |  62.3 |  5.94
Neigh   | 0.010029   | 0.010793   | 0.011682   |   0.4 |  0.30
Comm    | 1.2528     | 2.661      | 3.2948     |  37.5 | 73.05
Output  | 0.0015919  | 0.0030498  | 0.0046692  |   1.8 |  0.08
Modify  | 0.12991    | 0.4321     | 1.7819     |  82.8 | 11.86
Other   |            | 0.1352     |            |       |  3.71

Nlocal:        10.0208 ave          39 max           0 min
Histogram: 21 4 7 7 1 0 1 1 4 2
Nghost:        1927.23 ave        2408 max        1334 min
Histogram: 8 0 0 0 24 0 0 0 0 16
Neighs:              0 ave           0 max           0 min
Histogram: 48 0 0 0 0 0 0 0 0 0

Total # of neighbors = 0
Ave neighs/atom = 0
Ave special neighs/atom = 15.567568
Neighbor list builds = 21
Dangerous builds = 0
fix             myat1 all ave/time 1000 10 10000 v_zave v_zdes file simulation_data/abpot/${cpt}.dat
fix             myat1 all ave/time 1000 10 10000 v_zave v_zdes file simulation_data/abpot/2.dat
run             50000
Generated 0 of 1 mixed pair_coeff terms from geometric mixing rule
Per MPI rank memory allocation (min/avg/max) = 13.32 | 13.82 | 14.98 Mbytes
   Step          Temp          E_pair         E_mol          TotEng         Press     
     90000   305.5516       376.94457      18531.939      19346.063      52.629571    
    100000   305.97795      351.84537      18582.032      19371.668     -660.48454    
    110000   301.52307      378.71869      18567.747      19377.882      129.58794    
    120000   298.60482      374.22333      18544.61       19346.074     -17.595404    
    130000   299.93245      363.91558      18562.413      19355.468     -303.07995    
    140000   322.7794       364.54646      18555.703      19382.079     -121.51632    
Loop time of 17.8099 on 48 procs for 50000 steps with 481 atoms

Performance: 12.128 ns/day, 1.979 hours/ns, 2807.424 timesteps/s, 1.350 Matom-step/s
100.0% CPU use with 48 MPI tasks x 1 OpenMP threads

MPI task timing breakdown:
Section |  min time  |  avg time  |  max time  |%varavg| %total
---------------------------------------------------------------
Pair    | 0.017881   | 0.90127    | 6.0736     | 133.8 |  5.06
Bond    | 0.0057362  | 1.0632     | 4.9055     | 134.1 |  5.97
Neigh   | 0.038985   | 0.042065   | 0.045691   |   0.8 |  0.24
Comm    | 5.9539     | 13.082     | 16.065     |  80.6 | 73.45
Output  | 0.0077614  | 0.014668   | 0.021652   |   3.7 |  0.08
Modify  | 0.64697    | 2.0419     | 8.5042     | 180.8 | 11.46
Other   |            | 0.665      |            |       |  3.73

Nlocal:        10.0208 ave          39 max           0 min
Histogram: 20 5 8 5 2 0 1 1 3 3
Nghost:         1931.6 ave        2416 max        1337 min
Histogram: 8 0 0 0 24 0 0 0 0 16
Neighs:              0 ave           0 max           0 min
Histogram: 48 0 0 0 0 0 0 0 0 0

Total # of neighbors = 0
Ave neighs/atom = 0
Ave special neighs/atom = 15.567568
Neighbor list builds = 86
Dangerous builds = 0
unfix           myat1
next            cpt
jump            SELF loop
variable        zdes equal  -15+0.60*(${cpt}-1)
variable        zdes equal  -15+0.60*(3-1)
variable        zave equal xcm(H2,z)
fix             mytth2 H2 spring tether ${k1} 2.5 2.5 ${zdes} 0
fix             mytth2 H2 spring tether 4.9 2.5 2.5 ${zdes} 0
fix             mytth2 H2 spring tether 4.9 2.5 2.5 -13.8 0
run             10000
Generated 0 of 1 mixed pair_coeff terms from geometric mixing rule
Per MPI rank memory allocation (min/avg/max) = 13.32 | 13.83 | 14.98 Mbytes
   Step          Temp          E_pair         E_mol          TotEng         Press     
    140000   322.7794       364.54646      18555.703      19382.079     -121.51632    
    150000   306.64965      378.28796      18535.661      19352.699      101.76624    
Loop time of 3.53968 on 48 procs for 10000 steps with 481 atoms

Performance: 12.204 ns/day, 1.966 hours/ns, 2825.111 timesteps/s, 1.359 Matom-step/s
100.0% CPU use with 48 MPI tasks x 1 OpenMP threads

MPI task timing breakdown:
Section |  min time  |  avg time  |  max time  |%varavg| %total
---------------------------------------------------------------
Pair    | 0.003568   | 0.17869    | 1.2218     |  59.9 |  5.05
Bond    | 0.0011174  | 0.21016    | 0.927      |  58.3 |  5.94
Neigh   | 0.0053368  | 0.0057974  | 0.0062731  |   0.3 |  0.16
Comm    | 1.1492     | 2.6186     | 3.2208     |  35.2 | 73.98
Output  | 0.0014589  | 0.0028294  | 0.0042033  |   1.7 |  0.08
Modify  | 0.12752    | 0.39151    | 1.6598     |  80.5 | 11.06
Other   |            | 0.1321     |            |       |  3.73

Nlocal:        10.0208 ave          40 max           0 min
Histogram: 19 7 9 4 1 0 1 2 3 2
Nghost:        1927.98 ave        2406 max        1333 min
Histogram: 8 0 0 0 24 0 0 0 0 16
Neighs:              0 ave           0 max           0 min
Histogram: 48 0 0 0 0 0 0 0 0 0

Total # of neighbors = 0
Ave neighs/atom = 0
Ave special neighs/atom = 15.567568
Neighbor list builds = 12
Dangerous builds = 0
fix             myat1 all ave/time 1000 10 10000 v_zave v_zdes file simulation_data/abpot/${cpt}.dat
fix             myat1 all ave/time 1000 10 10000 v_zave v_zdes file simulation_data/abpot/3.dat
run             50000
Generated 0 of 1 mixed pair_coeff terms from geometric mixing rule
Per MPI rank memory allocation (min/avg/max) = 13.32 | 13.84 | 14.98 Mbytes
   Step          Temp          E_pair         E_mol          TotEng         Press     
    150000   306.64965      378.28796      18535.661      19352.699      101.76624    
    160000   307.98604      362.88448      18527.938      19331.486     -218.41286    
    170000   284.85904      356.09972      18538.618      19302.291     -471.19574    
    180000   317.49908      378.30786      18542.541      19375.123      141.95887    
    190000   305.39276      375.87478      18562.593      19375.421     -34.384378    
    200000   276.91009      372.0623       18545.114      19313.377     -80.871258    
Loop time of 18.5613 on 48 procs for 50000 steps with 481 atoms

Performance: 11.637 ns/day, 2.062 hours/ns, 2693.779 timesteps/s, 1.296 Matom-step/s
100.0% CPU use with 48 MPI tasks x 1 OpenMP threads

MPI task timing breakdown:
Section |  min time  |  avg time  |  max time  |%varavg| %total
---------------------------------------------------------------
Pair    | 0.017996   | 0.90864    | 6.4161     | 135.4 |  4.90
Bond    | 0.0056256  | 1.0666     | 4.8019     | 131.9 |  5.75
Neigh   | 0.034788   | 0.037232   | 0.040122   |   0.7 |  0.20
Comm    | 6.0096     | 13.768     | 16.958     |  82.8 | 74.18
Output  | 0.0074592  | 0.013489   | 0.0195     |   3.4 |  0.07
Modify  | 0.65232    | 2.1297     | 9.2454     | 194.9 | 11.47
Other   |            | 0.6374     |            |       |  3.43

Nlocal:        10.0208 ave          43 max           0 min
Histogram: 21 4 11 4 0 1 2 1 2 2
Nghost:         1929.6 ave        2409 max        1330 min
Histogram: 8 0 0 0 24 0 0 0 0 16
Neighs:              0 ave           0 max           0 min
Histogram: 48 0 0 0 0 0 0 0 0 0

Total # of neighbors = 0
Ave neighs/atom = 0
Ave special neighs/atom = 15.567568
Neighbor list builds = 73
Dangerous builds = 0
unfix           myat1
next            cpt
jump            SELF loop
variable        zdes equal  -15+0.60*(${cpt}-1)
variable        zdes equal  -15+0.60*(4-1)
variable        zave equal xcm(H2,z)
fix             mytth2 H2 spring tether ${k1} 2.5 2.5 ${zdes} 0
fix             mytth2 H2 spring tether 4.9 2.5 2.5 ${zdes} 0
fix             mytth2 H2 spring tether 4.9 2.5 2.5 -13.2 0
run             10000
Generated 0 of 1 mixed pair_coeff terms from geometric mixing rule
Per MPI rank memory allocation (min/avg/max) = 13.32 | 13.84 | 14.98 Mbytes
   Step          Temp          E_pair         E_mol          TotEng         Press     
    200000   276.91009      372.0623       18545.114      19313.377     -80.871258    
    210000   288.71555      382.00952      18524.131      19319.231      215.7634     
Loop time of 3.87583 on 48 procs for 10000 steps with 481 atoms

Performance: 11.146 ns/day, 2.153 hours/ns, 2580.093 timesteps/s, 1.241 Matom-step/s
100.0% CPU use with 48 MPI tasks x 1 OpenMP threads

MPI task timing breakdown:
Section |  min time  |  avg time  |  max time  |%varavg| %total
---------------------------------------------------------------
Pair    | 0.0036985  | 0.18789    | 1.2429     |  62.5 |  4.85
Bond    | 0.0011357  | 0.21981    | 1.0813     |  61.5 |  5.67
Neigh   | 0.011061   | 0.011835   | 0.012753   |   0.4 |  0.31
Comm    | 1.4406     | 2.8701     | 3.5441     |  39.9 | 74.05
Output  | 0.0015626  | 0.0026689  | 0.0038037  |   1.4 |  0.07
Modify  | 0.12729    | 0.45744    | 2.0142     |  93.8 | 11.80
Other   |            | 0.1261     |            |       |  3.25

Nlocal:        10.0208 ave          37 max           0 min
Histogram: 19 5 12 4 0 0 0 1 3 4
Nghost:        1934.35 ave        2419 max        1337 min
Histogram: 8 0 0 0 24 0 0 0 0 16
Neighs:              0 ave           0 max           0 min
Histogram: 48 0 0 0 0 0 0 0 0 0

Total # of neighbors = 0
Ave neighs/atom = 0
Ave special neighs/atom = 15.567568
Neighbor list builds = 21
Dangerous builds = 0
fix             myat1 all ave/time 1000 10 10000 v_zave v_zdes file simulation_data/abpot/${cpt}.dat
fix             myat1 all ave/time 1000 10 10000 v_zave v_zdes file simulation_data/abpot/4.dat
run             50000
Generated 0 of 1 mixed pair_coeff terms from geometric mixing rule
Per MPI rank memory allocation (min/avg/max) = 13.32 | 13.84 | 14.98 Mbytes
   Step          Temp          E_pair         E_mol          TotEng         Press     
    210000   288.71555      382.00952      18524.131      19319.231      215.7634     
    220000   310.10197      369.24691      18562.355      19375.292     -188.62038    
    230000   298.34994      367.64628      18572.952      19367.475     -361.07807    
    240000   291.18386      365.43837      18545.355      19327.416     -372.15206    
    250000   290.28692      381.76937      18524.594      19321.702      108.34875    
    260000   281.88048      377.6819       18572.052      19353.045     -62.965613    
Loop time of 19.2626 on 48 procs for 50000 steps with 481 atoms

Performance: 11.213 ns/day, 2.140 hours/ns, 2595.704 timesteps/s, 1.249 Matom-step/s
100.0% CPU use with 48 MPI tasks x 1 OpenMP threads

MPI task timing breakdown:
Section |  min time  |  avg time  |  max time  |%varavg| %total
---------------------------------------------------------------
Pair    | 0.01816    | 0.94138    | 5.3311     | 139.0 |  4.89
Bond    | 0.0056848  | 1.1044     | 5.0165     | 138.3 |  5.73
Neigh   | 0.039003   | 0.041842   | 0.045096   |   0.7 |  0.22
Comm    | 8.0396     | 14.225     | 17.51      |  86.5 | 73.85
Output  | 0.0076063  | 0.013203   | 0.018784   |   3.2 |  0.07
Modify  | 0.73333    | 2.3066     | 9.656      | 197.2 | 11.97
Other   |            | 0.6303     |            |       |  3.27

Nlocal:        10.0208 ave          42 max           0 min
Histogram: 21 7 6 5 1 1 1 2 3 1
Nghost:        1930.85 ave        2416 max        1331 min
Histogram: 8 0 0 0 24 0 0 0 0 16
Neighs:              0 ave           0 max           0 min
Histogram: 48 0 0 0 0 0 0 0 0 0

Total # of neighbors = 0
Ave neighs/atom = 0
Ave special neighs/atom = 15.567568
Neighbor list builds = 78
Dangerous builds = 0
unfix           myat1
next            cpt
jump            SELF loop
variable        zdes equal  -15+0.60*(${cpt}-1)
variable        zdes equal  -15+0.60*(5-1)
variable        zave equal xcm(H2,z)
fix             mytth2 H2 spring tether ${k1} 2.5 2.5 ${zdes} 0
fix             mytth2 H2 spring tether 4.9 2.5 2.5 ${zdes} 0
fix             mytth2 H2 spring tether 4.9 2.5 2.5 -12.6 0
run             10000
Generated 0 of 1 mixed pair_coeff terms from geometric mixing rule
Per MPI rank memory allocation (min/avg/max) = 13.32 | 13.84 | 14.98 Mbytes
   Step          Temp          E_pair         E_mol          TotEng         Press     
    260000   281.88048      377.6819       18572.052      19353.045     -62.965613    
    270000   303.40717      366.15588      18560.553      19360.82      -225.2396     
Loop time of 3.96411 on 48 procs for 10000 steps with 481 atoms

Performance: 10.898 ns/day, 2.202 hours/ns, 2522.635 timesteps/s, 1.213 Matom-step/s
100.0% CPU use with 48 MPI tasks x 1 OpenMP threads

MPI task timing breakdown:
Section |  min time  |  avg time  |  max time  |%varavg| %total
---------------------------------------------------------------
Pair    | 0.0034943  | 0.18665    | 1.2239     |  61.6 |  4.71
Bond    | 0.0010831  | 0.22048    | 1.1318     |  62.1 |  5.56
Neigh   | 0.0046169  | 0.0049898  | 0.005369   |   0.3 |  0.13
Comm    | 1.3357     | 2.9292     | 3.6161     |  39.1 | 73.89
Output  | 0.0015394  | 0.0026397  | 0.0037777  |   1.4 |  0.07
Modify  | 0.13931    | 0.49177    | 1.9722     |  88.8 | 12.41
Other   |            | 0.1284     |            |       |  3.24

Nlocal:        10.0208 ave          44 max           0 min
Histogram: 21 7 8 4 0 1 3 2 0 2
Nghost:         1937.6 ave        2422 max        1329 min
Histogram: 8 0 0 0 24 0 0 0 0 16
Neighs:              0 ave           0 max           0 min
Histogram: 48 0 0 0 0 0 0 0 0 0

Total # of neighbors = 0
Ave neighs/atom = 0
Ave special neighs/atom = 15.567568
Neighbor list builds = 9
Dangerous builds = 0
fix             myat1 all ave/time 1000 10 10000 v_zave v_zdes file simulation_data/abpot/${cpt}.dat
fix             myat1 all ave/time 1000 10 10000 v_zave v_zdes file simulation_data/abpot/5.dat
run             50000
Generated 0 of 1 mixed pair_coeff terms from geometric mixing rule
Per MPI rank memory allocation (min/avg/max) = 13.32 | 13.84 | 14.98 Mbytes
   Step          Temp          E_pair         E_mol          TotEng         Press     
    270000   303.40717      366.15588      18560.553      19360.82      -225.2396     
    280000   288.14402      367.4201       18561.237      19340.93      -294.44983    
    290000   286.36935      373.90557      18542.422      19326.062     -82.149848    
    300000   289.86559      378.46629      18537.631      19330.834      213.54746    
    310000   301.66246      368.52296      18543.941      19344.079     -211.31656    
    320000   292.88475      378.24345      18549.601      19346.901      57.888287    
Loop time of 21.1435 on 48 procs for 50000 steps with 481 atoms

Performance: 10.216 ns/day, 2.349 hours/ns, 2364.796 timesteps/s, 1.137 Matom-step/s
100.0% CPU use with 48 MPI tasks x 1 OpenMP threads

MPI task timing breakdown:
Section |  min time  |  avg time  |  max time  |%varavg| %total
---------------------------------------------------------------
Pair    | 0.018012   | 0.95836    | 6.2998     | 142.4 |  4.53
Bond    | 0.0057087  | 1.1165     | 6.003      | 141.5 |  5.28
Neigh   | 0.040985   | 0.043729   | 0.046286   |   0.6 |  0.21
Comm    | 7.369      | 15.575     | 19.202     |  93.9 | 73.66
Output  | 0.0081084  | 0.013665   | 0.019202   |   3.1 |  0.06
Modify  | 0.67371    | 2.788      | 11.276     | 216.0 | 13.19
Other   |            | 0.6479     |            |       |  3.06

Nlocal:        10.0208 ave          46 max           0 min
Histogram: 23 6 8 3 1 1 1 2 1 2
Nghost:        1930.35 ave        2415 max        1336 min
Histogram: 8 0 0 0 24 0 0 0 0 16
Neighs:              0 ave           0 max           0 min
Histogram: 48 0 0 0 0 0 0 0 0 0

Total # of neighbors = 0
Ave neighs/atom = 0
Ave special neighs/atom = 15.567568
Neighbor list builds = 72
Dangerous builds = 0
unfix           myat1
next            cpt
jump            SELF loop
variable        zdes equal  -15+0.60*(${cpt}-1)
variable        zdes equal  -15+0.60*(6-1)
variable        zave equal xcm(H2,z)
fix             mytth2 H2 spring tether ${k1} 2.5 2.5 ${zdes} 0
fix             mytth2 H2 spring tether 4.9 2.5 2.5 ${zdes} 0
fix             mytth2 H2 spring tether 4.9 2.5 2.5 -12 0
run             10000
Generated 0 of 1 mixed pair_coeff terms from geometric mixing rule
Per MPI rank memory allocation (min/avg/max) = 13.32 | 13.85 | 14.98 Mbytes
   Step          Temp          E_pair         E_mol          TotEng         Press     
    320000   292.88475      378.24345      18549.601      19346.901      57.888287    
    330000   320.47485      382.74937      18539.014      19380.296      128.42436    
Loop time of 4.47981 on 48 procs for 10000 steps with 481 atoms

Performance: 9.643 ns/day, 2.489 hours/ns, 2232.237 timesteps/s, 1.074 Matom-step/s
100.0% CPU use with 48 MPI tasks x 1 OpenMP threads

MPI task timing breakdown:
Section |  min time  |  avg time  |  max time  |%varavg| %total
---------------------------------------------------------------
Pair    | 0.0035575  | 0.19921    | 1.4343     |  68.2 |  4.45
Bond    | 0.0010575  | 0.22862    | 1.252      |  65.6 |  5.10
Neigh   | 0.0086105  | 0.0091908  | 0.009679   |   0.3 |  0.21
Comm    | 1.6612     | 3.2838     | 4.0778     |  45.5 | 73.30
Output  | 0.0016283  | 0.0027222  | 0.0038411  |   1.4 |  0.06
Modify  | 0.13217    | 0.62444    | 2.5373     | 102.8 | 13.94
Other   |            | 0.1318     |            |       |  2.94

Nlocal:        10.0208 ave          45 max           0 min
Histogram: 22 8 3 6 3 0 0 3 1 2
Nghost:        1931.85 ave        2417 max        1336 min
Histogram: 8 0 0 0 24 0 0 0 0 16
Neighs:              0 ave           0 max           0 min
Histogram: 48 0 0 0 0 0 0 0 0 0

Total # of neighbors = 0
Ave neighs/atom = 0
Ave special neighs/atom = 15.567568
Neighbor list builds = 14
Dangerous builds = 0
fix             myat1 all ave/time 1000 10 10000 v_zave v_zdes file simulation_data/abpot/${cpt}.dat
fix             myat1 all ave/time 1000 10 10000 v_zave v_zdes file simulation_data/abpot/6.dat
run             50000
Generated 0 of 1 mixed pair_coeff terms from geometric mixing rule
Per MPI rank memory allocation (min/avg/max) = 13.32 | 13.85 | 14.98 Mbytes
   Step          Temp          E_pair         E_mol          TotEng         Press     
    330000   320.47485      382.74937      18539.014      19380.296      128.42436    
    340000   292.51669      370.74153      18586.207      19375.479     -203.62026    
    350000   277.20968      370.09826      18540.635      19307.362     -64.537665    
    360000   283.77595      373.87776      18535.124      19315.025      4.6809274    
    370000   315.5899       374.95824      18524.515      19351.016      53.517124    
    380000   291.62328      372.49792      18574.276      19364.025      4.6201298    
Loop time of 21.6799 on 48 procs for 50000 steps with 481 atoms

Performance: 9.963 ns/day, 2.409 hours/ns, 2306.282 timesteps/s, 1.109 Matom-step/s
100.0% CPU use with 48 MPI tasks x 1 OpenMP threads

MPI task timing breakdown:
Section |  min time  |  avg time  |  max time  |%varavg| %total
---------------------------------------------------------------
Pair    | 0.018938   | 0.95476    | 6.4794     | 149.6 |  4.40
Bond    | 0.0052946  | 1.1139     | 6.2915     | 145.2 |  5.14
Neigh   | 0.034507   | 0.03669    | 0.039076   |   0.6 |  0.17
Comm    | 7.2008     | 15.935     | 19.68      |  96.7 | 73.50
Output  | 0.0081208  | 0.013735   | 0.019384   |   3.1 |  0.06
Modify  | 0.65185    | 2.9596     | 11.744     | 215.0 | 13.65
Other   |            | 0.666      |            |       |  3.07

Nlocal:        10.0208 ave          40 max           0 min
Histogram: 20 5 9 5 1 0 1 2 2 3
Nghost:        1931.73 ave        2409 max        1333 min
Histogram: 8 0 0 0 24 0 0 0 0 16
Neighs:              0 ave           0 max           0 min
Histogram: 48 0 0 0 0 0 0 0 0 0

Total # of neighbors = 0
Ave neighs/atom = 0
Ave special neighs/atom = 15.567568
Neighbor list builds = 60
Dangerous builds = 0
unfix           myat1
next            cpt
jump            SELF loop
variable        zdes equal  -15+0.60*(${cpt}-1)
variable        zdes equal  -15+0.60*(7-1)
variable        zave equal xcm(H2,z)
fix             mytth2 H2 spring tether ${k1} 2.5 2.5 ${zdes} 0
fix             mytth2 H2 spring tether 4.9 2.5 2.5 ${zdes} 0
fix             mytth2 H2 spring tether 4.9 2.5 2.5 -11.4 0
run             10000
Generated 0 of 1 mixed pair_coeff terms from geometric mixing rule
Per MPI rank memory allocation (min/avg/max) = 13.32 | 13.85 | 14.98 Mbytes
   Step          Temp          E_pair         E_mol          TotEng         Press     
    380000   291.62328      372.49792      18574.276      19364.025      4.6201298    
    390000   308.97434      372.47838      18541.085      19355.64       7.5431244    
Loop time of 4.34333 on 48 procs for 10000 steps with 481 atoms

Performance: 9.946 ns/day, 2.413 hours/ns, 2302.380 timesteps/s, 1.107 Matom-step/s
100.0% CPU use with 48 MPI tasks x 1 OpenMP threads

MPI task timing breakdown:
Section |  min time  |  avg time  |  max time  |%varavg| %total
---------------------------------------------------------------
Pair    | 0.003617   | 0.18005    | 1.3857     |  63.0 |  4.15
Bond    | 0.0010596  | 0.21561    | 1.3199     |  64.4 |  4.96
Neigh   | 0.0067757  | 0.0072174  | 0.0076905  |   0.3 |  0.17
Comm    | 1.3296     | 3.2293     | 3.9758     |  42.3 | 74.35
Output  | 0.0015474  | 0.0026371  | 0.0037695  |   1.4 |  0.06
Modify  | 0.12063    | 0.58055    | 2.3533     |  98.1 | 13.37
Other   |            | 0.128      |            |       |  2.95

Nlocal:        10.0208 ave          40 max           0 min
Histogram: 20 5 8 6 1 0 0 2 5 1
Nghost:        1931.73 ave        2416 max        1333 min
Histogram: 8 0 0 0 24 0 0 0 0 16
Neighs:              0 ave           0 max           0 min
Histogram: 48 0 0 0 0 0 0 0 0 0

Total # of neighbors = 0
Ave neighs/atom = 0
Ave special neighs/atom = 15.567568
Neighbor list builds = 12
Dangerous builds = 0
fix             myat1 all ave/time 1000 10 10000 v_zave v_zdes file simulation_data/abpot/${cpt}.dat
fix             myat1 all ave/time 1000 10 10000 v_zave v_zdes file simulation_data/abpot/7.dat
run             50000
Generated 0 of 1 mixed pair_coeff terms from geometric mixing rule
Per MPI rank memory allocation (min/avg/max) = 13.32 | 13.85 | 14.98 Mbytes
   Step          Temp          E_pair         E_mol          TotEng         Press     
    390000   308.97434      372.47838      18541.085      19355.64       7.5431244    
    400000   298.19124      354.49802      18542.548      19323.695     -614.75713    
    410000   298.31669      370.26989      18530.706      19327.804     -190.8598     
    420000   292.47572      375.10709      18554.7        19348.278      67.769265    
    430000   307.72983      371.94981      18547.969      19360.215     -66.20894     
    440000   294.67206      368.17616      18504.932      19294.722     -214.3557     
Loop time of 20.8012 on 48 procs for 50000 steps with 481 atoms

Performance: 10.384 ns/day, 2.311 hours/ns, 2403.708 timesteps/s, 1.156 Matom-step/s
100.0% CPU use with 48 MPI tasks x 1 OpenMP threads

MPI task timing breakdown:
Section |  min time  |  avg time  |  max time  |%varavg| %total
---------------------------------------------------------------
Pair    | 0.018102   | 0.87541    | 6.3501     | 139.4 |  4.21
Bond    | 0.0052561  | 1.0477     | 6.1382     | 138.0 |  5.04
Neigh   | 0.031191   | 0.033453   | 0.035877   |   0.6 |  0.16
Comm    | 6.7969     | 15.436     | 18.982     |  92.5 | 74.21
Output  | 0.0076576  | 0.013132   | 0.01859    |   3.1 |  0.06
Modify  | 0.61949    | 2.7582     | 10.918     | 214.4 | 13.26
Other   |            | 0.6373     |            |       |  3.06

Nlocal:        10.0208 ave          45 max           0 min
Histogram: 22 4 12 1 1 1 2 3 1 1
Nghost:        1924.35 ave        2397 max        1328 min
Histogram: 8 0 0 0 24 0 0 0 0 16
Neighs:              0 ave           0 max           0 min
Histogram: 48 0 0 0 0 0 0 0 0 0

Total # of neighbors = 0
Ave neighs/atom = 0
Ave special neighs/atom = 15.567568
Neighbor list builds = 58
Dangerous builds = 0
unfix           myat1
next            cpt
jump            SELF loop
variable        zdes equal  -15+0.60*(${cpt}-1)
variable        zdes equal  -15+0.60*(8-1)
variable        zave equal xcm(H2,z)
fix             mytth2 H2 spring tether ${k1} 2.5 2.5 ${zdes} 0
fix             mytth2 H2 spring tether 4.9 2.5 2.5 ${zdes} 0
fix             mytth2 H2 spring tether 4.9 2.5 2.5 -10.8 0
run             10000
Generated 0 of 1 mixed pair_coeff terms from geometric mixing rule
Per MPI rank memory allocation (min/avg/max) = 13.32 | 13.85 | 14.98 Mbytes
   Step          Temp          E_pair         E_mol          TotEng         Press     
    440000   294.67206      368.17616      18504.932      19294.722     -214.3557     
    450000   299.17311      371.45733      18543.637      19343.148      3.7875251    
Loop time of 3.6793 on 48 procs for 10000 steps with 481 atoms

Performance: 11.741 ns/day, 2.044 hours/ns, 2717.910 timesteps/s, 1.307 Matom-step/s
100.0% CPU use with 48 MPI tasks x 1 OpenMP threads

MPI task timing breakdown:
Section |  min time  |  avg time  |  max time  |%varavg| %total
---------------------------------------------------------------
Pair    | 0.0034638  | 0.16549    | 1.1243     |  60.9 |  4.50
Bond    | 0.0010463  | 0.20012    | 1.0845     |  59.3 |  5.44
Neigh   | 0.0063577  | 0.0068651  | 0.0074697  |   0.3 |  0.19
Comm    | 1.2204     | 2.7419     | 3.3712     |  38.0 | 74.52
Output  | 0.0014675  | 0.0025481  | 0.0036561  |   1.4 |  0.07
Modify  | 0.10239    | 0.44666    | 1.8453     |  88.6 | 12.14
Other   |            | 0.1157     |            |       |  3.15

Nlocal:        10.0208 ave          48 max           0 min
Histogram: 21 10 6 2 2 1 2 3 0 1
Nghost:         1929.6 ave        2408 max        1325 min
Histogram: 8 0 0 0 24 0 0 0 0 16
Neighs:              0 ave           0 max           0 min
Histogram: 48 0 0 0 0 0 0 0 0 0

Total # of neighbors = 0
Ave neighs/atom = 0
Ave special neighs/atom = 15.567568
Neighbor list builds = 13
Dangerous builds = 0
fix             myat1 all ave/time 1000 10 10000 v_zave v_zdes file simulation_data/abpot/${cpt}.dat
fix             myat1 all ave/time 1000 10 10000 v_zave v_zdes file simulation_data/abpot/8.dat
run             50000
Generated 0 of 1 mixed pair_coeff terms from geometric mixing rule
Per MPI rank memory allocation (min/avg/max) = 13.32 | 13.85 | 14.98 Mbytes
   Step          Temp          E_pair         E_mol          TotEng         Press     
    450000   299.17311      371.45733      18543.637      19343.148      3.7875251    
    460000   310.18241      380.74781      18537.928      19362.482      117.76343    
    470000   327.57154      369.01103      18544.577      19382.274     -143.44227    
    480000   313.60172      382.70436      18554.992      19386.394      13.076458    
    490000   288.90122      369.89453      18554.087      19337.338     -370.96646    
    500000   302.8264       381.75831      18513.464      19328.503      152.57555    
Loop time of 19.1059 on 48 procs for 50000 steps with 481 atoms

Performance: 11.305 ns/day, 2.123 hours/ns, 2616.996 timesteps/s, 1.259 Matom-step/s
100.0% CPU use with 48 MPI tasks x 1 OpenMP threads

MPI task timing breakdown:
Section |  min time  |  avg time  |  max time  |%varavg| %total
---------------------------------------------------------------
Pair    | 0.017211   | 0.82702    | 5.8887     | 136.9 |  4.33
Bond    | 0.0052958  | 0.99765    | 5.8693     | 134.5 |  5.22
Neigh   | 0.046797   | 0.05045    | 0.054812   |   0.9 |  0.26
Comm    | 6.1085     | 14.332     | 17.586     |  86.9 | 75.01
Output  | 0.0077715  | 0.013315   | 0.018823   |   3.1 |  0.07
Modify  | 0.49694    | 2.3167     | 9.7304     | 206.9 | 12.13
Other   |            | 0.569      |            |       |  2.98

Nlocal:        10.0208 ave          40 max           0 min
Histogram: 20 7 5 7 1 1 0 3 0 4
Nghost:        1928.23 ave        2411 max        1333 min
Histogram: 8 0 0 0 24 0 0 0 0 16
Neighs:              0 ave           0 max           0 min
Histogram: 48 0 0 0 0 0 0 0 0 0

Total # of neighbors = 0
Ave neighs/atom = 0
Ave special neighs/atom = 15.567568
Neighbor list builds = 93
Dangerous builds = 0
unfix           myat1
next            cpt
jump            SELF loop
variable        zdes equal  -15+0.60*(${cpt}-1)
variable        zdes equal  -15+0.60*(9-1)
variable        zave equal xcm(H2,z)
fix             mytth2 H2 spring tether ${k1} 2.5 2.5 ${zdes} 0
fix             mytth2 H2 spring tether 4.9 2.5 2.5 ${zdes} 0
fix             mytth2 H2 spring tether 4.9 2.5 2.5 -10.2 0
run             10000
Generated 0 of 1 mixed pair_coeff terms from geometric mixing rule
Per MPI rank memory allocation (min/avg/max) = 13.32 | 13.85 | 14.98 Mbytes
   Step          Temp          E_pair         E_mol          TotEng         Press     
    500000   302.8264       381.75831      18513.464      19328.503      152.57555    
    510000   286.61465      370.45472      18546.007      19326.547     -34.305119    
Loop time of 3.85746 on 48 procs for 10000 steps with 481 atoms

Performance: 11.199 ns/day, 2.143 hours/ns, 2592.379 timesteps/s, 1.247 Matom-step/s
100.0% CPU use with 48 MPI tasks x 1 OpenMP threads

MPI task timing breakdown:
Section |  min time  |  avg time  |  max time  |%varavg| %total
---------------------------------------------------------------
Pair    | 0.0034351  | 0.16295    | 1.2163     |  62.2 |  4.22
Bond    | 0.0010651  | 0.19737    | 1.2068     |  61.1 |  5.12
Neigh   | 0.0081303  | 0.0088104  | 0.009576   |   0.4 |  0.23
Comm    | 1.1964     | 2.9116     | 3.561      |  40.8 | 75.48
Output  | 0.0015278  | 0.0026084  | 0.0037197  |   1.4 |  0.07
Modify  | 0.093131   | 0.46404    | 2.0995     |  97.9 | 12.03
Other   |            | 0.1101     |            |       |  2.85

Nlocal:        10.0208 ave          48 max           0 min
Histogram: 22 7 8 4 0 0 3 3 0 1
Nghost:        1930.23 ave        2411 max        1325 min
Histogram: 8 0 0 0 24 0 0 0 0 16
Neighs:              0 ave           0 max           0 min
Histogram: 48 0 0 0 0 0 0 0 0 0

Total # of neighbors = 0
Ave neighs/atom = 0
Ave special neighs/atom = 15.567568
Neighbor list builds = 16
Dangerous builds = 0
fix             myat1 all ave/time 1000 10 10000 v_zave v_zdes file simulation_data/abpot/${cpt}.dat
fix             myat1 all ave/time 1000 10 10000 v_zave v_zdes file simulation_data/abpot/9.dat
run             50000
Generated 0 of 1 mixed pair_coeff terms from geometric mixing rule
Per MPI rank memory allocation (min/avg/max) = 13.32 | 13.85 | 14.98 Mbytes
   Step          Temp          E_pair         E_mol          TotEng         Press     
    510000   286.61465      370.45472      18546.007      19326.547     -34.305119    
    520000   296.21267      372.75735      18532.654      19329.229     -63.413104    
    530000   309.31756      366.39939      18544.046      19353.014     -213.98922    
    540000   298.36851      373.45367      18529.236      19329.592      47.316922    
    550000   296.86494      374.27854      18516.507      19315.537      21.585668    
    560000   303.81721      378.83691      18534.088      19347.623     -8.5102778    
Loop time of 18.9564 on 48 procs for 50000 steps with 481 atoms

Performance: 11.395 ns/day, 2.106 hours/ns, 2637.634 timesteps/s, 1.269 Matom-step/s
100.0% CPU use with 48 MPI tasks x 1 OpenMP threads

MPI task timing breakdown:
Section |  min time  |  avg time  |  max time  |%varavg| %total
---------------------------------------------------------------
Pair    | 0.017318   | 0.81175    | 5.9321     | 139.1 |  4.28
Bond    | 0.0052817  | 0.97976    | 5.7744     | 135.8 |  5.17
Neigh   | 0.041901   | 0.04504    | 0.048463   |   0.8 |  0.24
Comm    | 6.0495     | 14.199     | 17.494     |  91.5 | 74.90
Output  | 0.0076196  | 0.012933   | 0.018298   |   3.1 |  0.07
Modify  | 0.47767    | 2.3494     | 10.457     | 215.9 | 12.39
Other   |            | 0.5588     |            |       |  2.95

Nlocal:        10.0208 ave          40 max           0 min
Histogram: 21 4 9 4 2 0 2 1 2 3
Nghost:        1926.98 ave        2406 max        1338 min
Histogram: 8 0 0 0 24 0 0 0 0 16
Neighs:              0 ave           0 max           0 min
Histogram: 48 0 0 0 0 0 0 0 0 0

Total # of neighbors = 0
Ave neighs/atom = 0
Ave special neighs/atom = 15.567568
Neighbor list builds = 82
Dangerous builds = 0
unfix           myat1
next            cpt
jump            SELF loop
variable        zdes equal  -15+0.60*(${cpt}-1)
variable        zdes equal  -15+0.60*(10-1)
variable        zave equal xcm(H2,z)
fix             mytth2 H2 spring tether ${k1} 2.5 2.5 ${zdes} 0
fix             mytth2 H2 spring tether 4.9 2.5 2.5 ${zdes} 0
fix             mytth2 H2 spring tether 4.9 2.5 2.5 -9.6 0
run             10000
Generated 0 of 1 mixed pair_coeff terms from geometric mixing rule
Per MPI rank memory allocation (min/avg/max) = 13.32 | 13.85 | 14.98 Mbytes
   Step          Temp          E_pair         E_mol          TotEng         Press     
    560000   303.81721      378.83691      18534.088      19347.623     -8.5102778    
    570000   292.49592      371.0069       18513.419      19302.926     -77.922331    
Loop time of 4.02106 on 48 procs for 10000 steps with 481 atoms

Performance: 10.743 ns/day, 2.234 hours/ns, 2486.908 timesteps/s, 1.196 Matom-step/s
100.0% CPU use with 48 MPI tasks x 1 OpenMP threads

MPI task timing breakdown:
Section |  min time  |  avg time  |  max time  |%varavg| %total
---------------------------------------------------------------
Pair    | 0.0034999  | 0.16396    | 1.243      |  64.7 |  4.08
Bond    | 0.0010595  | 0.198      | 1.2626     |  63.4 |  4.92
Neigh   | 0.0083971  | 0.008882   | 0.0094943  |   0.3 |  0.22
Comm    | 1.2619     | 2.9938     | 3.7145     |  44.8 | 74.45
Output  | 0.0016138  | 0.0026771  | 0.0037774  |   1.4 |  0.07
Modify  | 0.10419    | 0.54114    | 2.3462     | 103.8 | 13.46
Other   |            | 0.1126     |            |       |  2.80

Nlocal:        10.0208 ave          43 max           0 min
Histogram: 21 6 9 4 0 1 1 2 3 1
Nghost:        1926.73 ave        2402 max        1336 min
Histogram: 8 0 0 0 24 0 0 0 0 16
Neighs:              0 ave           0 max           0 min
Histogram: 48 0 0 0 0 0 0 0 0 0

Total # of neighbors = 0
Ave neighs/atom = 0
Ave special neighs/atom = 15.567568
Neighbor list builds = 15
Dangerous builds = 0
fix             myat1 all ave/time 1000 10 10000 v_zave v_zdes file simulation_data/abpot/${cpt}.dat
fix             myat1 all ave/time 1000 10 10000 v_zave v_zdes file simulation_data/abpot/10.dat
run             50000
Generated 0 of 1 mixed pair_coeff terms from geometric mixing rule
Per MPI rank memory allocation (min/avg/max) = 13.32 | 13.86 | 14.98 Mbytes
   Step          Temp          E_pair         E_mol          TotEng         Press     
    570000   292.49592      371.0069       18513.419      19302.926     -77.922331    
    580000   298.78151      375.77237      18524.279      19327.545     -183.15383    
    590000   303.66499      390.71262      18529.99       19355.183      282.71473    
    600000   309.06823      366.18556      18558.85       19367.247     -136.17447    
    610000   297.76385      375.47677      18545.128      19346.642     -148.306      
    620000   310.17516      373.38747      18520.59       19337.773     -83.573849    
Loop time of 19.215 on 48 procs for 50000 steps with 481 atoms

Performance: 11.241 ns/day, 2.135 hours/ns, 2602.136 timesteps/s, 1.252 Matom-step/s
100.0% CPU use with 48 MPI tasks x 1 OpenMP threads

MPI task timing breakdown:
Section |  min time  |  avg time  |  max time  |%varavg| %total
---------------------------------------------------------------
Pair    | 0.01749    | 0.79309    | 5.978      | 140.1 |  4.13
Bond    | 0.0052997  | 0.96512    | 5.9237     | 137.2 |  5.02
Neigh   | 0.035835   | 0.037962   | 0.040585   |   0.7 |  0.20
Comm    | 6.0931     | 14.306     | 17.74      |  98.1 | 74.45
Output  | 0.0075054  | 0.01285    | 0.018185   |   3.1 |  0.07
Modify  | 0.4846     | 2.5453     | 10.907     | 229.2 | 13.25
Other   |            | 0.5543     |            |       |  2.88

Nlocal:        10.0208 ave          41 max           0 min
Histogram: 20 9 5 4 2 0 1 3 2 2
Nghost:         1928.6 ave        2406 max        1332 min
Histogram: 8 0 0 0 24 0 0 0 0 16
Neighs:              0 ave           0 max           0 min
Histogram: 48 0 0 0 0 0 0 0 0 0

Total # of neighbors = 0
Ave neighs/atom = 0
Ave special neighs/atom = 15.567568
Neighbor list builds = 69
Dangerous builds = 0
unfix           myat1
next            cpt
jump            SELF loop
variable        zdes equal  -15+0.60*(${cpt}-1)
variable        zdes equal  -15+0.60*(11-1)
variable        zave equal xcm(H2,z)
fix             mytth2 H2 spring tether ${k1} 2.5 2.5 ${zdes} 0
fix             mytth2 H2 spring tether 4.9 2.5 2.5 ${zdes} 0
fix             mytth2 H2 spring tether 4.9 2.5 2.5 -9 0
run             10000
Generated 0 of 1 mixed pair_coeff terms from geometric mixing rule
Per MPI rank memory allocation (min/avg/max) = 13.32 | 13.86 | 14.98 Mbytes
   Step          Temp          E_pair         E_mol          TotEng         Press     
    620000   310.17516      373.38747      18520.59       19337.773     -83.573849    
    630000   294.45461      394.10259      18513.564      19328.969      71.887374    
Loop time of 2.99188 on 48 procs for 10000 steps with 481 atoms

Performance: 14.439 ns/day, 1.662 hours/ns, 3342.385 timesteps/s, 1.608 Matom-step/s
100.0% CPU use with 48 MPI tasks x 1 OpenMP threads

MPI task timing breakdown:
Section |  min time  |  avg time  |  max time  |%varavg| %total
---------------------------------------------------------------
Pair    | 0.003593   | 0.15144    | 0.82372    |  57.0 |  5.06
Bond    | 0.001077   | 0.18653    | 0.81849    |  57.1 |  6.23
Neigh   | 0.0062614  | 0.0070063  | 0.0076274  |   0.5 |  0.23
Comm    | 1.0954     | 2.1908     | 2.6882     |  33.9 | 73.22
Output  | 0.0011473  | 0.0021785  | 0.0032369  |   1.4 |  0.07
Modify  | 0.11586    | 0.34893    | 1.3585     |  71.5 | 11.66
Other   |            | 0.105      |            |       |  3.51

Nlocal:        10.0208 ave          41 max           0 min
Histogram: 22 7 4 6 1 0 1 2 4 1
Nghost:        1929.98 ave        2407 max        1333 min
Histogram: 8 0 0 0 24 0 0 0 0 16
Neighs:              0 ave           0 max           0 min
Histogram: 48 0 0 0 0 0 0 0 0 0

Total # of neighbors = 0
Ave neighs/atom = 0
Ave special neighs/atom = 15.567568
Neighbor list builds = 19
Dangerous builds = 0
fix             myat1 all ave/time 1000 10 10000 v_zave v_zdes file simulation_data/abpot/${cpt}.dat
fix             myat1 all ave/time 1000 10 10000 v_zave v_zdes file simulation_data/abpot/11.dat
run             50000
Generated 0 of 1 mixed pair_coeff terms from geometric mixing rule
Per MPI rank memory allocation (min/avg/max) = 13.32 | 13.86 | 14.98 Mbytes
   Step          Temp          E_pair         E_mol          TotEng         Press     
    630000   294.45461      394.10259      18513.564      19328.969      71.887374    
    640000   290.63574      386.9596       18518.027      19320.825     -88.438252    
    650000   313.06632      388.87824      18511.188      19347.998      148.70708    
    660000   306.1068       388.65515      18519.148      19345.777      15.961274    
    670000   303.61083      387.96592      18504.219      19326.587      65.531985    
    680000   306.67495      387.44723      18519.779      19346.013     -77.594702    
Loop time of 15.3308 on 48 procs for 50000 steps with 481 atoms

Performance: 14.089 ns/day, 1.703 hours/ns, 3261.414 timesteps/s, 1.569 Matom-step/s
100.0% CPU use with 48 MPI tasks x 1 OpenMP threads

MPI task timing breakdown:
Section |  min time  |  avg time  |  max time  |%varavg| %total
---------------------------------------------------------------
Pair    | 0.018077   | 0.75402    | 4.1437     | 127.5 |  4.92
Bond    | 0.0054807  | 0.93022    | 4.0706     | 127.2 |  6.07
Neigh   | 0.026767   | 0.029731   | 0.032877   |   1.0 |  0.19
Comm    | 6.083      | 11.267     | 13.86      |  77.3 | 73.49
Output  | 0.0059706  | 0.011137   | 0.016345   |   3.2 |  0.07
Modify  | 0.51729    | 1.815      | 7.2156     | 169.0 | 11.84
Other   |            | 0.5237     |            |       |  3.42

Nlocal:        10.0208 ave          56 max           0 min
Histogram: 22 11 8 1 0 3 1 1 0 1
Nghost:         1927.1 ave        2408 max        1317 min
Histogram: 8 0 0 0 24 0 0 0 0 16
Neighs:              0 ave           0 max           0 min
Histogram: 48 0 0 0 0 0 0 0 0 0

Total # of neighbors = 0
Ave neighs/atom = 0
Ave special neighs/atom = 15.567568
Neighbor list builds = 76
Dangerous builds = 0
unfix           myat1
next            cpt
jump            SELF loop
variable        zdes equal  -15+0.60*(${cpt}-1)
variable        zdes equal  -15+0.60*(12-1)
variable        zave equal xcm(H2,z)
fix             mytth2 H2 spring tether ${k1} 2.5 2.5 ${zdes} 0
fix             mytth2 H2 spring tether 4.9 2.5 2.5 ${zdes} 0
fix             mytth2 H2 spring tether 4.9 2.5 2.5 -8.4 0
run             10000
Generated 0 of 1 mixed pair_coeff terms from geometric mixing rule
Per MPI rank memory allocation (min/avg/max) = 13.32 | 13.86 | 14.98 Mbytes
   Step          Temp          E_pair         E_mol          TotEng         Press     
    680000   306.67495      387.44723      18519.779      19346.013     -77.594702    
    690000   321.56897      384.85103      18545.35       19390.299     -281.79927    
Loop time of 3.04868 on 48 procs for 10000 steps with 481 atoms

Performance: 14.170 ns/day, 1.694 hours/ns, 3280.108 timesteps/s, 1.578 Matom-step/s
100.0% CPU use with 48 MPI tasks x 1 OpenMP threads

MPI task timing breakdown:
Section |  min time  |  avg time  |  max time  |%varavg| %total
---------------------------------------------------------------
Pair    | 0.0033399  | 0.15219    | 0.82057    |  56.8 |  4.99
Bond    | 0.0010433  | 0.18714    | 0.7836     |  56.7 |  6.14
Neigh   | 0.0050372  | 0.0055875  | 0.006144   |   0.4 |  0.18
Comm    | 1.2293     | 2.2355     | 2.7521     |  34.9 | 73.33
Output  | 0.0012964  | 0.0023081  | 0.0033754  |   1.4 |  0.08
Modify  | 0.11474    | 0.3614     | 1.4297     |  76.4 | 11.85
Other   |            | 0.1045     |            |       |  3.43

Nlocal:        10.0208 ave          58 max           0 min
Histogram: 22 12 7 1 1 2 1 1 0 1
Nghost:        1927.73 ave        2411 max        1315 min
Histogram: 8 0 0 0 24 0 0 0 0 16
Neighs:              0 ave           0 max           0 min
Histogram: 48 0 0 0 0 0 0 0 0 0

Total # of neighbors = 0
Ave neighs/atom = 0
Ave special neighs/atom = 15.567568
Neighbor list builds = 15
Dangerous builds = 0
fix             myat1 all ave/time 1000 10 10000 v_zave v_zdes file simulation_data/abpot/${cpt}.dat
fix             myat1 all ave/time 1000 10 10000 v_zave v_zdes file simulation_data/abpot/12.dat
run             50000
Generated 0 of 1 mixed pair_coeff terms from geometric mixing rule
Per MPI rank memory allocation (min/avg/max) = 13.32 | 13.86 | 14.98 Mbytes
   Step          Temp          E_pair         E_mol          TotEng         Press     
    690000   321.56897      384.85103      18545.35       19390.299     -281.79927    
    700000   309.56404      392.58506      18550.306      19385.811      43.882568    
    710000   295.62109      387.80912      18554.096      19364.877     -183.75926    
    720000   294.71373      388.82821      18523.416      19333.918      2.2519902    
    730000   296.58212      383.54779      18529.328      19337.222     -153.99262    
    740000   293.92327      392.69512      18554.268      19367.506      54.807322    
Loop time of 15.6086 on 48 procs for 50000 steps with 481 atoms

Performance: 13.839 ns/day, 1.734 hours/ns, 3203.368 timesteps/s, 1.541 Matom-step/s
100.0% CPU use with 48 MPI tasks x 1 OpenMP threads

MPI task timing breakdown:
Section |  min time  |  avg time  |  max time  |%varavg| %total
---------------------------------------------------------------
Pair    | 0.017155   | 0.75436    | 4.2332     | 127.3 |  4.83
Bond    | 0.0052104  | 0.93028    | 3.9681     | 126.8 |  5.96
Neigh   | 0.024287   | 0.027122   | 0.029949   |   0.9 |  0.17
Comm    | 6.2762     | 11.442     | 14.12      |  78.2 | 73.31
Output  | 0.0060831  | 0.011324   | 0.016598   |   3.2 |  0.07
Modify  | 0.52808    | 1.9168     | 7.526      | 174.4 | 12.28
Other   |            | 0.5263     |            |       |  3.37

Nlocal:        10.0208 ave          39 max           0 min
Histogram: 19 6 8 6 1 0 1 2 3 2
Nghost:        1930.48 ave        2407 max        1335 min
Histogram: 8 0 0 0 24 0 0 0 0 16
Neighs:              0 ave           0 max           0 min
Histogram: 48 0 0 0 0 0 0 0 0 0

Total # of neighbors = 0
Ave neighs/atom = 0
Ave special neighs/atom = 15.567568
Neighbor list builds = 70
Dangerous builds = 0
unfix           myat1
next            cpt
jump            SELF loop
variable        zdes equal  -15+0.60*(${cpt}-1)
variable        zdes equal  -15+0.60*(13-1)
variable        zave equal xcm(H2,z)
fix             mytth2 H2 spring tether ${k1} 2.5 2.5 ${zdes} 0
fix             mytth2 H2 spring tether 4.9 2.5 2.5 ${zdes} 0
fix             mytth2 H2 spring tether 4.9 2.5 2.5 -7.8 0
run             10000
Generated 0 of 1 mixed pair_coeff terms from geometric mixing rule
Per MPI rank memory allocation (min/avg/max) = 13.32 | 13.86 | 14.98 Mbytes
   Step          Temp          E_pair         E_mol          TotEng         Press     
    740000   293.92327      392.69512      18554.268      19367.506      54.807322    
    750000   323.99864      395.76707      18496.298      19355.638      162.72525    
Loop time of 3.12933 on 48 procs for 10000 steps with 481 atoms

Performance: 13.805 ns/day, 1.739 hours/ns, 3195.575 timesteps/s, 1.537 Matom-step/s
100.0% CPU use with 48 MPI tasks x 1 OpenMP threads

MPI task timing breakdown:
Section |  min time  |  avg time  |  max time  |%varavg| %total
---------------------------------------------------------------
Pair    | 0.0033812  | 0.15127    | 0.83592    |  57.2 |  4.83
Bond    | 0.001052   | 0.18727    | 0.76335    |  57.1 |  5.98
Neigh   | 0.0061838  | 0.0067425  | 0.007325   |   0.3 |  0.22
Comm    | 1.2945     | 2.3024     | 2.8397     |  35.6 | 73.58
Output  | 0.001201   | 0.0022157  | 0.0032779  |   1.4 |  0.07
Modify  | 0.099294   | 0.37444    | 1.4935     |  79.4 | 11.97
Other   |            | 0.1049     |            |       |  3.35

Nlocal:        10.0208 ave          41 max           0 min
Histogram: 21 5 10 4 0 0 1 3 2 2
Nghost:        1932.35 ave        2424 max        1335 min
Histogram: 8 0 0 0 24 0 0 0 0 16
Neighs:              0 ave           0 max           0 min
Histogram: 48 0 0 0 0 0 0 0 0 0

Total # of neighbors = 0
Ave neighs/atom = 0
Ave special neighs/atom = 15.567568
Neighbor list builds = 16
Dangerous builds = 0
fix             myat1 all ave/time 1000 10 10000 v_zave v_zdes file simulation_data/abpot/${cpt}.dat
fix             myat1 all ave/time 1000 10 10000 v_zave v_zdes file simulation_data/abpot/13.dat
run             50000
Generated 0 of 1 mixed pair_coeff terms from geometric mixing rule
Per MPI rank memory allocation (min/avg/max) = 13.32 | 13.86 | 14.98 Mbytes
   Step          Temp          E_pair         E_mol          TotEng         Press     
    750000   323.99864      395.76707      18496.298      19355.638      162.72525    
    760000   283.04152      384.82947      18544.038      19333.84      -266.03147    
    770000   289.76037      391.71292      18520.667      19326.966      42.816349    
    780000   281.65825      396.37559      18505.217      19304.586      54.994571    
    790000   285.06867      387.52781      18558.99       19354.391     -190.79322    
    800000   302.41109      390.49715      18543.756      19366.939     -53.736961    
Loop time of 14.8611 on 48 procs for 50000 steps with 481 atoms

Performance: 14.535 ns/day, 1.651 hours/ns, 3364.479 timesteps/s, 1.618 Matom-step/s
100.0% CPU use with 48 MPI tasks x 1 OpenMP threads

MPI task timing breakdown:
Section |  min time  |  avg time  |  max time  |%varavg| %total
---------------------------------------------------------------
Pair    | 0.017055   | 0.75377    | 4.1994     | 127.4 |  5.07
Bond    | 0.0052169  | 0.93226    | 3.9421     | 127.2 |  6.27
Neigh   | 0.026142   | 0.029305   | 0.032218   |   0.9 |  0.20
Comm    | 5.611      | 10.874     | 13.412     |  75.3 | 73.17
Output  | 0.0059117  | 0.011159   | 0.016403   |   3.3 |  0.08
Modify  | 0.50514    | 1.7315     | 6.7483     | 160.0 | 11.65
Other   |            | 0.529      |            |       |  3.56

Nlocal:        10.0208 ave          36 max           0 min
Histogram: 21 5 5 6 2 1 0 0 3 5
Nghost:        1929.35 ave        2407 max        1337 min
Histogram: 8 0 0 0 24 0 0 0 0 16
Neighs:              0 ave           0 max           0 min
Histogram: 48 0 0 0 0 0 0 0 0 0

Total # of neighbors = 0
Ave neighs/atom = 0
Ave special neighs/atom = 15.567568
Neighbor list builds = 77
Dangerous builds = 0
unfix           myat1
next            cpt
jump            SELF loop
variable        zdes equal  -15+0.60*(${cpt}-1)
variable        zdes equal  -15+0.60*(14-1)
variable        zave equal xcm(H2,z)
fix             mytth2 H2 spring tether ${k1} 2.5 2.5 ${zdes} 0
fix             mytth2 H2 spring tether 4.9 2.5 2.5 ${zdes} 0
fix             mytth2 H2 spring tether 4.9 2.5 2.5 -7.2 0
run             10000
Generated 0 of 1 mixed pair_coeff terms from geometric mixing rule
Per MPI rank memory allocation (min/avg/max) = 13.32 | 13.86 | 14.98 Mbytes
   Step          Temp          E_pair         E_mol          TotEng         Press     
    800000   302.41109      390.49715      18543.756      19366.939     -53.736961    
    810000   292.42858      394.07848      18524.405      19336.887     -18.270441    
Loop time of 2.96379 on 48 procs for 10000 steps with 481 atoms

Performance: 14.576 ns/day, 1.647 hours/ns, 3374.058 timesteps/s, 1.623 Matom-step/s
100.0% CPU use with 48 MPI tasks x 1 OpenMP threads

MPI task timing breakdown:
Section |  min time  |  avg time  |  max time  |%varavg| %total
---------------------------------------------------------------
Pair    | 0.0033803  | 0.15059    | 0.84367    |  56.9 |  5.08
Bond    | 0.0010452  | 0.18543    | 0.78567    |  56.6 |  6.26
Neigh   | 0.0062162  | 0.0068208  | 0.0074693  |   0.4 |  0.23
Comm    | 1.0856     | 2.1683     | 2.6684     |  33.6 | 73.16
Output  | 0.0011597  | 0.0022937  | 0.0034469  |   1.6 |  0.08
Modify  | 0.10427    | 0.34419    | 1.3295     |  71.3 | 11.61
Other   |            | 0.1062     |            |       |  3.58

Nlocal:        10.0208 ave          42 max           0 min
Histogram: 21 8 5 3 3 0 2 2 3 1
Nghost:        1930.98 ave        2411 max        1331 min
Histogram: 8 0 0 0 24 0 0 0 0 16
Neighs:              0 ave           0 max           0 min
Histogram: 48 0 0 0 0 0 0 0 0 0

Total # of neighbors = 0
Ave neighs/atom = 0
Ave special neighs/atom = 15.567568
Neighbor list builds = 18
Dangerous builds = 0
fix             myat1 all ave/time 1000 10 10000 v_zave v_zdes file simulation_data/abpot/${cpt}.dat
fix             myat1 all ave/time 1000 10 10000 v_zave v_zdes file simulation_data/abpot/14.dat
run             50000
Generated 0 of 1 mixed pair_coeff terms from geometric mixing rule
Per MPI rank memory allocation (min/avg/max) = 13.32 | 13.86 | 14.98 Mbytes
   Step          Temp          E_pair         E_mol          TotEng         Press     
    810000   292.42858      394.07848      18524.405      19336.887     -18.270441    
    820000   277.63858      386.15743      18534.006      19317.406     -233.1089     
    830000   283.17149      391.00185      18532.266      19328.427     -57.331737    
    840000   287.7104       389.33801      18536.96       19337.951     -174.66625    
    850000   316.00194      384.28097      18543.195      19379.608     -167.19504    
    860000   306.25301      383.56375      18540.495      19362.242     -185.94576    
Loop time of 14.5828 on 48 procs for 50000 steps with 481 atoms

Performance: 14.812 ns/day, 1.620 hours/ns, 3428.688 timesteps/s, 1.649 Matom-step/s
100.0% CPU use with 48 MPI tasks x 1 OpenMP threads

MPI task timing breakdown:
Section |  min time  |  avg time  |  max time  |%varavg| %total
---------------------------------------------------------------
Pair    | 0.017243   | 0.75281    | 4.1811     | 126.5 |  5.16
Bond    | 0.0052198  | 0.92901    | 3.9471     | 126.5 |  6.37
Neigh   | 0.029127   | 0.032219   | 0.035325   |   0.9 |  0.22
Comm    | 5.4067     | 10.62      | 13.113     |  74.3 | 72.83
Output  | 0.0058617  | 0.011081   | 0.016284   |   3.2 |  0.08
Modify  | 0.52551    | 1.7109     | 6.4948     | 155.4 | 11.73
Other   |            | 0.5265     |            |       |  3.61

Nlocal:        10.0208 ave          42 max           0 min
Histogram: 22 5 7 6 0 1 1 2 2 2
Nghost:        1931.73 ave        2417 max        1331 min
Histogram: 8 0 0 0 24 0 0 0 0 16
Neighs:              0 ave           0 max           0 min
Histogram: 48 0 0 0 0 0 0 0 0 0

Total # of neighbors = 0
Ave neighs/atom = 0
Ave special neighs/atom = 15.567568
Neighbor list builds = 87
Dangerous builds = 0
unfix           myat1
next            cpt
jump            SELF loop
variable        zdes equal  -15+0.60*(${cpt}-1)
variable        zdes equal  -15+0.60*(15-1)
variable        zave equal xcm(H2,z)
fix             mytth2 H2 spring tether ${k1} 2.5 2.5 ${zdes} 0
fix             mytth2 H2 spring tether 4.9 2.5 2.5 ${zdes} 0
fix             mytth2 H2 spring tether 4.9 2.5 2.5 -6.6 0
run             10000
Generated 0 of 1 mixed pair_coeff terms from geometric mixing rule
Per MPI rank memory allocation (min/avg/max) = 13.32 | 13.86 | 14.98 Mbytes
   Step          Temp          E_pair         E_mol          TotEng         Press     
    860000   306.25301      383.56375      18540.495      19362.242     -185.94576    
    870000   289.23398      387.68157      18536.122      19337.637     -133.60913    
Loop time of 3.01282 on 48 procs for 10000 steps with 481 atoms

Performance: 14.339 ns/day, 1.674 hours/ns, 3319.155 timesteps/s, 1.597 Matom-step/s
100.0% CPU use with 48 MPI tasks x 1 OpenMP threads

MPI task timing breakdown:
Section |  min time  |  avg time  |  max time  |%varavg| %total
---------------------------------------------------------------
Pair    | 0.0033644  | 0.15243    | 0.8396     |  57.4 |  5.06
Bond    | 0.0010536  | 0.18712    | 0.75394    |  56.6 |  6.21
Neigh   | 0.0094996  | 0.010481   | 0.011515   |   0.5 |  0.35
Comm    | 1.1708     | 2.2062     | 2.7148     |  34.3 | 73.23
Output  | 0.001185   | 0.0022325  | 0.0033089  |   1.5 |  0.07
Modify  | 0.11545    | 0.34701    | 1.3822     |  74.0 | 11.52
Other   |            | 0.1073     |            |       |  3.56

Nlocal:        10.0208 ave          39 max           0 min
Histogram: 20 3 10 6 1 0 0 2 4 2
Nghost:        1928.48 ave        2404 max        1334 min
Histogram: 8 0 0 0 24 0 0 0 0 16
Neighs:              0 ave           0 max           0 min
Histogram: 48 0 0 0 0 0 0 0 0 0

Total # of neighbors = 0
Ave neighs/atom = 0
Ave special neighs/atom = 15.567568
Neighbor list builds = 28
Dangerous builds = 0
fix             myat1 all ave/time 1000 10 10000 v_zave v_zdes file simulation_data/abpot/${cpt}.dat
fix             myat1 all ave/time 1000 10 10000 v_zave v_zdes file simulation_data/abpot/15.dat
run             50000
Generated 0 of 1 mixed pair_coeff terms from geometric mixing rule
Per MPI rank memory allocation (min/avg/max) = 13.32 | 13.86 | 14.98 Mbytes
   Step          Temp          E_pair         E_mol          TotEng         Press     
    870000   289.23398      387.68157      18536.122      19337.637     -133.60913    
    880000   289.4107       396.78474      18538.16       19349.031      1.4724151    
    890000   310.02878      385.70277      18547.115      19376.403     -174.32299    
    900000   289.37538      391.75068      18552.809      19358.595     -29.389966    
    910000   285.88001      386.80535      18525.164      19321.003     -69.601261    
    920000   297.2988       391.41271      18515.877      19332.661      86.836049    
Loop time of 14.4385 on 48 procs for 50000 steps with 481 atoms

Performance: 14.960 ns/day, 1.604 hours/ns, 3462.960 timesteps/s, 1.666 Matom-step/s
100.0% CPU use with 48 MPI tasks x 1 OpenMP threads

MPI task timing breakdown:
Section |  min time  |  avg time  |  max time  |%varavg| %total
---------------------------------------------------------------
Pair    | 0.017205   | 0.75226    | 4.1457     | 126.1 |  5.21
Bond    | 0.0052357  | 0.92815    | 3.8896     | 125.5 |  6.43
Neigh   | 0.044665   | 0.049518   | 0.054417   |   1.2 |  0.34
Comm    | 5.4904     | 10.527     | 12.951     |  74.2 | 72.91
Output  | 0.0057046  | 0.010979   | 0.016242   |   3.3 |  0.08
Modify  | 0.51339    | 1.6462     | 6.2247     | 154.2 | 11.40
Other   |            | 0.5241     |            |       |  3.63

Nlocal:        10.0208 ave          42 max           0 min
Histogram: 21 5 8 6 0 1 1 2 2 2
Nghost:        1928.35 ave        2411 max        1331 min
Histogram: 8 0 0 0 24 0 0 0 0 16
Neighs:              0 ave           0 max           0 min
Histogram: 48 0 0 0 0 0 0 0 0 0

Total # of neighbors = 0
Ave neighs/atom = 0
Ave special neighs/atom = 15.567568
Neighbor list builds = 136
Dangerous builds = 0
unfix           myat1
next            cpt
jump            SELF loop
variable        zdes equal  -15+0.60*(${cpt}-1)
variable        zdes equal  -15+0.60*(16-1)
variable        zave equal xcm(H2,z)
fix             mytth2 H2 spring tether ${k1} 2.5 2.5 ${zdes} 0
fix             mytth2 H2 spring tether 4.9 2.5 2.5 ${zdes} 0
fix             mytth2 H2 spring tether 4.9 2.5 2.5 -6 0
run             10000
Generated 0 of 1 mixed pair_coeff terms from geometric mixing rule
Per MPI rank memory allocation (min/avg/max) = 13.32 | 13.86 | 14.98 Mbytes
   Step          Temp          E_pair         E_mol          TotEng         Press     
    920000   297.2988       391.41271      18515.877      19332.661      86.836049    
    930000   287.10782      391.11517      18548.655      19350.561     -47.117667    
Loop time of 2.89576 on 48 procs for 10000 steps with 481 atoms

Performance: 14.918 ns/day, 1.609 hours/ns, 3453.330 timesteps/s, 1.661 Matom-step/s
100.0% CPU use with 48 MPI tasks x 1 OpenMP threads

MPI task timing breakdown:
Section |  min time  |  avg time  |  max time  |%varavg| %total
---------------------------------------------------------------
Pair    | 0.0034961  | 0.15026    | 0.7967     |  56.2 |  5.19
Bond    | 0.0010686  | 0.18512    | 0.82979    |  56.4 |  6.39
Neigh   | 0.010613   | 0.011946   | 0.013211   |   0.6 |  0.41
Comm    | 1.0773     | 2.116      | 2.6047     |  33.0 | 73.07
Output  | 0.0010976  | 0.0020995  | 0.0031654  |   1.4 |  0.07
Modify  | 0.09504    | 0.32679    | 1.2517     |  68.7 | 11.29
Other   |            | 0.1035     |            |       |  3.57

Nlocal:        10.0208 ave          45 max           0 min
Histogram: 22 3 13 1 1 1 2 4 0 1
Nghost:        1926.85 ave        2408 max        1328 min
Histogram: 8 0 0 0 24 0 0 0 0 16
Neighs:              0 ave           0 max           0 min
Histogram: 48 0 0 0 0 0 0 0 0 0

Total # of neighbors = 0
Ave neighs/atom = 0
Ave special neighs/atom = 15.567568
Neighbor list builds = 34
Dangerous builds = 0
fix             myat1 all ave/time 1000 10 10000 v_zave v_zdes file simulation_data/abpot/${cpt}.dat
fix             myat1 all ave/time 1000 10 10000 v_zave v_zdes file simulation_data/abpot/16.dat
run             50000
Generated 0 of 1 mixed pair_coeff terms from geometric mixing rule
Per MPI rank memory allocation (min/avg/max) = 13.32 | 13.86 | 14.98 Mbytes
   Step          Temp          E_pair         E_mol          TotEng         Press     
    930000   287.10782      391.11517      18548.655      19350.561     -47.117667    
    940000   304.89034      386.73226      18546.88       19369.846     -278.97197    
    950000   304.55387      394.65872      18556.726      19387.137     -62.910355    
    960000   296.11447      396.20476      18541.128      19361.01       83.491011    
    970000   301.02344      381.56979      18523.118      19335.389     -332.549      
    980000   283.4063       386.84432      18533.649      19325.988     -206.96017    
Loop time of 14.6945 on 48 procs for 50000 steps with 481 atoms

Performance: 14.699 ns/day, 1.633 hours/ns, 3402.623 timesteps/s, 1.637 Matom-step/s
100.0% CPU use with 48 MPI tasks x 1 OpenMP threads

MPI task timing breakdown:
Section |  min time  |  avg time  |  max time  |%varavg| %total
---------------------------------------------------------------
Pair    | 0.017565   | 0.75195    | 4.1885     | 126.4 |  5.12
Bond    | 0.0053764  | 0.92645    | 4.0396     | 125.7 |  6.30
Neigh   | 0.054779   | 0.060756   | 0.066947   |   1.3 |  0.41
Comm    | 5.6986     | 10.732     | 13.198     |  73.9 | 73.03
Output  | 0.005816   | 0.010912   | 0.016098   |   3.2 |  0.07
Modify  | 0.49919    | 1.6927     | 6.416      | 156.1 | 11.52
Other   |            | 0.5201     |            |       |  3.54

Nlocal:        10.0208 ave          38 max           0 min
Histogram: 19 9 6 1 5 0 0 3 1 4
Nghost:         1922.1 ave        2397 max        1335 min
Histogram: 8 0 0 0 24 0 0 0 0 16
Neighs:              0 ave           0 max           0 min
Histogram: 48 0 0 0 0 0 0 0 0 0

Total # of neighbors = 0
Ave neighs/atom = 0
Ave special neighs/atom = 15.567568
Neighbor list builds = 166
Dangerous builds = 0
unfix           myat1
next            cpt
jump            SELF loop
variable        zdes equal  -15+0.60*(${cpt}-1)
variable        zdes equal  -15+0.60*(17-1)
variable        zave equal xcm(H2,z)
fix             mytth2 H2 spring tether ${k1} 2.5 2.5 ${zdes} 0
fix             mytth2 H2 spring tether 4.9 2.5 2.5 ${zdes} 0
fix             mytth2 H2 spring tether 4.9 2.5 2.5 -5.4 0
run             10000
Generated 0 of 1 mixed pair_coeff terms from geometric mixing rule
Per MPI rank memory allocation (min/avg/max) = 13.32 | 13.87 | 14.98 Mbytes
   Step          Temp          E_pair         E_mol          TotEng         Press     
    980000   283.4063       386.84432      18533.649      19325.988     -206.96017    
    990000   286.98785      395.84326      18492.951      19299.413     -29.326857    
Loop time of 2.94342 on 48 procs for 10000 steps with 481 atoms

Performance: 14.677 ns/day, 1.635 hours/ns, 3397.411 timesteps/s, 1.634 Matom-step/s
100.0% CPU use with 48 MPI tasks x 1 OpenMP threads

MPI task timing breakdown:
Section |  min time  |  avg time  |  max time  |%varavg| %total
---------------------------------------------------------------
Pair    | 0.0034135  | 0.15059    | 0.83286    |  57.2 |  5.12
Bond    | 0.0010666  | 0.18527    | 0.75729    |  56.2 |  6.29
Neigh   | 0.01439    | 0.016005   | 0.017608   |   0.7 |  0.54
Comm    | 1.1442     | 2.152      | 2.6466     |  33.4 | 73.11
Output  | 0.0012149  | 0.0022288  | 0.0032822  |   1.4 |  0.08
Modify  | 0.098659   | 0.33232    | 1.2891     |  70.7 | 11.29
Other   |            | 0.105      |            |       |  3.57

Nlocal:        10.0208 ave          39 max           0 min
Histogram: 20 7 6 5 2 0 0 3 3 2
Nghost:        1933.23 ave        2417 max        1334 min
Histogram: 8 0 0 0 24 0 0 0 0 16
Neighs:              0 ave           0 max           0 min
Histogram: 48 0 0 0 0 0 0 0 0 0

Total # of neighbors = 0
Ave neighs/atom = 0
Ave special neighs/atom = 15.567568
Neighbor list builds = 44
[...]
Section |  min time  |  avg time  |  max time  |%varavg| %total
---------------------------------------------------------------
Pair    | 0.0034737  | 0.14814    | 0.88119    |  55.2 |  5.05
Bond    | 0.001059   | 0.1854     | 0.84219    |  56.5 |  6.32
Neigh   | 0.0031247  | 0.0034405  | 0.0037314  |   0.3 |  0.12
Comm    | 1.0645     | 2.1507     | 2.6391     |  32.9 | 73.33
Output  | 0.0011485  | 0.0021765  | 0.0032362  |   1.4 |  0.07
Modify  | 0.095264   | 0.33852    | 1.2919     |  70.1 | 11.54
Other   |            | 0.1045     |            |       |  3.56

Nlocal:        10.0208 ave          39 max           0 min
Histogram: 19 6 8 6 1 0 1 2 3 2
Nghost:        1930.35 ave        2414 max        1336 min
Histogram: 8 0 0 0 24 0 0 0 0 16
Neighs:              0 ave           0 max           0 min
Histogram: 48 0 0 0 0 0 0 0 0 0

Total # of neighbors = 0
Ave neighs/atom = 0
Ave special neighs/atom = 15.567568
Neighbor list builds = 9
Dangerous builds = 0
fix             myat1 all ave/time 1000 10 10000 v_zave v_zdes file simulation_data/abpot/${cpt}.dat
fix             myat1 all ave/time 1000 10 10000 v_zave v_zdes file simulation_data/abpot/47.dat
run             50000
Generated 0 of 1 mixed pair_coeff terms from geometric mixing rule
Per MPI rank memory allocation (min/avg/max) = 13.32 | 13.88 | 14.98 Mbytes
   Step          Temp          E_pair         E_mol          TotEng         Press     
   2790000   301.35073      370.07292      18555.455      19356.697     -226.55957    
   2800000   316.84004      369.97722      18544.347      19367.656      15.247938    
   2810000   299.23982      372.01199      18537.439      19337.6        13.343573    
   2820000   303.75193      363.66306      18521.208      19319.476     -200.13275    
   2830000   312.64892      368.67784      18534.2        19350.212     -76.408312    
   2840000   303.18375      380.2089       18531.139      19345.14       232.32754    
Loop time of 15.1889 on 48 procs for 50000 steps with 481 atoms

Performance: 14.221 ns/day, 1.688 hours/ns, 3291.875 timesteps/s, 1.583 Matom-step/s
100.0% CPU use with 48 MPI tasks x 1 OpenMP threads

MPI task timing breakdown:
Section |  min time  |  avg time  |  max time  |%varavg| %total
---------------------------------------------------------------
Pair    | 0.016842   | 0.74332    | 4.4457     | 123.1 |  4.89
Bond    | 0.005284   | 0.92944    | 3.9273     | 126.0 |  6.12
Neigh   | 0.027894   | 0.030719   | 0.033716   |   0.9 |  0.20
Comm    | 6.1279     | 11.102     | 13.654     |  72.9 | 73.09
Output  | 0.0059647  | 0.011236   | 0.016527   |   3.3 |  0.07
Modify  | 0.49214    | 1.8406     | 6.8451     | 158.7 | 12.12
Other   |            | 0.5314     |            |       |  3.50

Nlocal:        10.0208 ave          54 max           0 min
Histogram: 24 6 8 3 1 1 3 1 0 1
Nghost:        1930.98 ave        2412 max        1319 min
Histogram: 8 0 0 0 24 0 0 0 0 16
Neighs:              0 ave           0 max           0 min
Histogram: 48 0 0 0 0 0 0 0 0 0

Total # of neighbors = 0
Ave neighs/atom = 0
Ave special neighs/atom = 15.567568
Neighbor list builds = 80
Dangerous builds = 0
unfix           myat1
next            cpt
jump            SELF loop
variable        zdes equal  -15+0.60*(${cpt}-1)
variable        zdes equal  -15+0.60*(48-1)
variable        zave equal xcm(H2,z)
fix             mytth2 H2 spring tether ${k1} 2.5 2.5 ${zdes} 0
fix             mytth2 H2 spring tether 4.9 2.5 2.5 ${zdes} 0
fix             mytth2 H2 spring tether 4.9 2.5 2.5 13.2 0
run             10000
Generated 0 of 1 mixed pair_coeff terms from geometric mixing rule
Per MPI rank memory allocation (min/avg/max) = 13.32 | 13.88 | 14.98 Mbytes
   Step          Temp          E_pair         E_mol          TotEng         Press     
   2840000   303.18375      380.2089       18531.139      19345.14       232.32754    
   2850000   303.68121      374.46972      18537.902      19346.876      102.37801    
Loop time of 3.18931 on 48 procs for 10000 steps with 481 atoms

Performance: 13.545 ns/day, 1.772 hours/ns, 3135.478 timesteps/s, 1.508 Matom-step/s
100.0% CPU use with 48 MPI tasks x 1 OpenMP threads

MPI task timing breakdown:
Section |  min time  |  avg time  |  max time  |%varavg| %total
---------------------------------------------------------------
Pair    | 0.0034481  | 0.14904    | 0.81318    |  54.7 |  4.67
Bond    | 0.0010614  | 0.18704    | 0.86497    |  56.9 |  5.86
Neigh   | 0.0040867  | 0.0044771  | 0.0048645  |   0.3 |  0.14
Comm    | 1.2768     | 2.3672     | 2.8862     |  34.5 | 74.22
Output  | 0.0011909  | 0.0022415  | 0.0033279  |   1.5 |  0.07
Modify  | 0.098169   | 0.37365    | 1.5042     |  79.8 | 11.72
Other   |            | 0.1057     |            |       |  3.31

Nlocal:        10.0208 ave          39 max           0 min
Histogram: 19 7 7 6 1 0 1 2 3 2
Nghost:         1937.6 ave        2426 max        1334 min
Histogram: 8 0 0 0 24 0 0 0 0 16
Neighs:              0 ave           0 max           0 min
Histogram: 48 0 0 0 0 0 0 0 0 0

Total # of neighbors = 0
Ave neighs/atom = 0
Ave special neighs/atom = 15.567568
Neighbor list builds = 11
Dangerous builds = 0
fix             myat1 all ave/time 1000 10 10000 v_zave v_zdes file simulation_data/abpot/${cpt}.dat
fix             myat1 all ave/time 1000 10 10000 v_zave v_zdes file simulation_data/abpot/48.dat
run             50000
Generated 0 of 1 mixed pair_coeff terms from geometric mixing rule
Per MPI rank memory allocation (min/avg/max) = 13.32 | 13.88 | 14.98 Mbytes
   Step          Temp          E_pair         E_mol          TotEng         Press     
   2850000   303.68121      374.46972      18537.902      19346.876      102.37801    
   2860000   295.53134      370.41062      18533.761      19327.015     -37.709948    
   2870000   288.83562      364.51242      18532.485      19310.26      -250.4471     
   2880000   299.02881      374.51423      18525.498      19327.86       131.63457    
   2890000   303.58934      371.40402      18557.656      19363.433     -48.367708    
   2900000   305.10197      366.4885       18541.962      19344.986     -154.66057    
Loop time of 15.6905 on 48 procs for 50000 steps with 481 atoms

Performance: 13.766 ns/day, 1.743 hours/ns, 3186.637 timesteps/s, 1.533 Matom-step/s
100.0% CPU use with 48 MPI tasks x 1 OpenMP threads

MPI task timing breakdown:
Section |  min time  |  avg time  |  max time  |%varavg| %total
---------------------------------------------------------------
Pair    | 0.017654   | 0.74709    | 4.033      | 123.3 |  4.76
Bond    | 0.0052946  | 0.93559    | 3.8535     | 127.1 |  5.96
Neigh   | 0.020081   | 0.022138   | 0.024052   |   0.7 |  0.14
Comm    | 6.9207     | 11.591     | 14.136     |  75.6 | 73.87
Output  | 0.0060871  | 0.011251   | 0.016462   |   3.2 |  0.07
Modify  | 0.52503    | 1.8505     | 7.3467     | 169.4 | 11.79
Other   |            | 0.533      |            |       |  3.40

Nlocal:        10.0208 ave          41 max           0 min
Histogram: 21 5 9 4 1 0 2 2 2 2
Nghost:        1933.48 ave        2416 max        1332 min
Histogram: 8 0 0 0 24 0 0 0 0 16
Neighs:              0 ave           0 max           0 min
Histogram: 48 0 0 0 0 0 0 0 0 0

Total # of neighbors = 0
Ave neighs/atom = 0
Ave special neighs/atom = 15.567568
Neighbor list builds = 55
Dangerous builds = 0
unfix           myat1
next            cpt
jump            SELF loop
variable        zdes equal  -15+0.60*(${cpt}-1)
variable        zdes equal  -15+0.60*(49-1)
variable        zave equal xcm(H2,z)
fix             mytth2 H2 spring tether ${k1} 2.5 2.5 ${zdes} 0
fix             mytth2 H2 spring tether 4.9 2.5 2.5 ${zdes} 0
fix             mytth2 H2 spring tether 4.9 2.5 2.5 13.8 0
run             10000
Generated 0 of 1 mixed pair_coeff terms from geometric mixing rule
Per MPI rank memory allocation (min/avg/max) = 13.32 | 13.88 | 14.99 Mbytes
   Step          Temp          E_pair         E_mol          TotEng         Press     
   2900000   305.10197      366.4885       18541.962      19344.986     -154.66057    
   2910000   301.4295       369.86955      18523.37       19324.522     -27.236796    
Loop time of 3.13432 on 48 procs for 10000 steps with 481 atoms

Performance: 13.783 ns/day, 1.741 hours/ns, 3190.487 timesteps/s, 1.535 Matom-step/s
100.0% CPU use with 48 MPI tasks x 1 OpenMP threads

MPI task timing breakdown:
Section |  min time  |  avg time  |  max time  |%varavg| %total
---------------------------------------------------------------
Pair    | 0.0032995  | 0.14917    | 0.79574    |  55.1 |  4.76
Bond    | 0.0010542  | 0.18826    | 0.93104    |  57.7 |  6.01
Neigh   | 0.0048251  | 0.0053261  | 0.0057669  |   0.3 |  0.17
Comm    | 1.3292     | 2.3174     | 2.8405     |  34.5 | 73.94
Output  | 0.0011933  | 0.0022225  | 0.0032949  |   1.4 |  0.07
Modify  | 0.098313   | 0.36718    | 1.4801     |  78.2 | 11.71
Other   |            | 0.1047     |            |       |  3.34

Nlocal:        10.0208 ave          44 max           0 min
Histogram: 21 8 7 2 2 1 1 4 1 1
Nghost:        1934.98 ave        2420 max        1329 min
Histogram: 8 0 0 0 24 0 0 0 0 16
Neighs:              0 ave           0 max           0 min
Histogram: 48 0 0 0 0 0 0 0 0 0

Total # of neighbors = 0
Ave neighs/atom = 0
Ave special neighs/atom = 15.567568
Neighbor list builds = 13
Dangerous builds = 0
fix             myat1 all ave/time 1000 10 10000 v_zave v_zdes file simulation_data/abpot/${cpt}.dat
fix             myat1 all ave/time 1000 10 10000 v_zave v_zdes file simulation_data/abpot/49.dat
run             50000
Generated 0 of 1 mixed pair_coeff terms from geometric mixing rule
Per MPI rank memory allocation (min/avg/max) = 13.32 | 13.88 | 14.99 Mbytes
   Step          Temp          E_pair         E_mol          TotEng         Press     
   2910000   301.4295       369.86955      18523.37       19324.522     -27.236796    
   2920000   302.51949      372.44722      18544.018      19349.307     -84.663165    
   2930000   312.58853      367.60546      18537.708      19352.562     -143.18841    
   2940000   294.78101      368.74366      18555.981      19346.494     -189.04305    
   2950000   280.72886      377.13072      18499.572      19278.367      158.42987    
   2960000   303.67954      364.78082      18548.908      19348.19      -232.85698    
Loop time of 15.0302 on 48 procs for 50000 steps with 481 atoms

Performance: 14.371 ns/day, 1.670 hours/ns, 3326.645 timesteps/s, 1.600 Matom-step/s
100.0% CPU use with 48 MPI tasks x 1 OpenMP threads

MPI task timing breakdown:
Section |  min time  |  avg time  |  max time  |%varavg| %total
---------------------------------------------------------------
Pair    | 0.017452   | 0.74144    | 3.9489     | 121.8 |  4.93
Bond    | 0.0053536  | 0.93082    | 3.9938     | 127.0 |  6.19
Neigh   | 0.018173   | 0.020113   | 0.02197    |   0.7 |  0.13
Comm    | 6.331      | 11.049     | 13.563     |  74.2 | 73.51
Output  | 0.0059445  | 0.011072   | 0.01627    |   3.2 |  0.07
Modify  | 0.48645    | 1.7494     | 6.8477     | 162.7 | 11.64
Other   |            | 0.5282     |            |       |  3.51

Nlocal:        10.0208 ave          38 max           0 min
Histogram: 19 8 5 6 1 1 0 2 3 3
Nghost:        1930.73 ave        2418 max        1337 min
Histogram: 8 0 0 0 24 0 0 0 0 16
Neighs:              0 ave           0 max           0 min
Histogram: 48 0 0 0 0 0 0 0 0 0

Total # of neighbors = 0
Ave neighs/atom = 0
Ave special neighs/atom = 15.567568
Neighbor list builds = 53
Dangerous builds = 0
unfix           myat1
next            cpt
jump            SELF loop
variable        zdes equal  -15+0.60*(${cpt}-1)
variable        zdes equal  -15+0.60*(50-1)
variable        zave equal xcm(H2,z)
fix             mytth2 H2 spring tether ${k1} 2.5 2.5 ${zdes} 0
fix             mytth2 H2 spring tether 4.9 2.5 2.5 ${zdes} 0
fix             mytth2 H2 spring tether 4.9 2.5 2.5 14.4 0
run             10000
Generated 0 of 1 mixed pair_coeff terms from geometric mixing rule
Per MPI rank memory allocation (min/avg/max) = 13.32 | 13.88 | 14.99 Mbytes
   Step          Temp          E_pair         E_mol          TotEng         Press     
   2960000   303.67954      364.78082      18548.908      19348.19      -232.85698    
   2970000   295.82298      368.01914      18564.196      19355.475     -156.23105    
Loop time of 2.94421 on 48 procs for 10000 steps with 481 atoms

Performance: 14.673 ns/day, 1.636 hours/ns, 3396.494 timesteps/s, 1.634 Matom-step/s
100.0% CPU use with 48 MPI tasks x 1 OpenMP threads

MPI task timing breakdown:
Section |  min time  |  avg time  |  max time  |%varavg| %total
---------------------------------------------------------------
Pair    | 0.0034364  | 0.14792    | 0.77507    |  54.3 |  5.02
Bond    | 0.0010619  | 0.18591    | 0.7989     |  56.8 |  6.31
Neigh   | 0.0030677  | 0.0033464  | 0.003601   |   0.3 |  0.11
Comm    | 1.1817     | 2.1621     | 2.659      |  32.3 | 73.44
Output  | 0.0012479  | 0.0022557  | 0.0033138  |   1.4 |  0.08
Modify  | 0.10332    | 0.33523    | 1.2533     |  68.6 | 11.39
Other   |            | 0.1075     |            |       |  3.65

Nlocal:        10.0208 ave          44 max           0 min
Histogram: 20 6 12 2 0 2 1 1 2 2
Nghost:        1924.73 ave        2401 max        1329 min
Histogram: 8 0 0 0 24 0 0 0 0 16
Neighs:              0 ave           0 max           0 min
Histogram: 48 0 0 0 0 0 0 0 0 0

Total # of neighbors = 0
Ave neighs/atom = 0
Ave special neighs/atom = 15.567568
Neighbor list builds = 9
Dangerous builds = 0
fix             myat1 all ave/time 1000 10 10000 v_zave v_zdes file simulation_data/abpot/${cpt}.dat
fix             myat1 all ave/time 1000 10 10000 v_zave v_zdes file simulation_data/abpot/50.dat
run             50000
Generated 0 of 1 mixed pair_coeff terms from geometric mixing rule
Per MPI rank memory allocation (min/avg/max) = 13.32 | 13.88 | 14.99 Mbytes
   Step          Temp          E_pair         E_mol          TotEng         Press     
   2970000   295.82298      368.01914      18564.196      19355.475     -156.23105    
   2980000   302.33464      378.1335       18529.789      19340.499      25.19786     
   2990000   305.64866      374.37151      18508.58       19320.27       27.559888    
   3000000   306.6365       373.5237       18517.882      19330.137      42.860187    
   3010000   303.85951      373.27761      18547.163      19355.199     -101.60372    
   3020000   317.60963      366.91846      18527.945      19349.295     -250.43585    
Loop time of 15.4746 on 48 procs for 50000 steps with 481 atoms

Performance: 13.958 ns/day, 1.719 hours/ns, 3231.099 timesteps/s, 1.554 Matom-step/s
100.0% CPU use with 48 MPI tasks x 1 OpenMP threads

MPI task timing breakdown:
Section |  min time  |  avg time  |  max time  |%varavg| %total
---------------------------------------------------------------
Pair    | 0.017282   | 0.73947    | 4.2835     | 122.6 |  4.78
Bond    | 0.0053326  | 0.9289     | 4.1207     | 126.7 |  6.00
Neigh   | 0.016797   | 0.018452   | 0.020027   |   0.6 |  0.12
Comm    | 6.7468     | 11.447     | 14.148     |  74.7 | 73.97
Output  | 0.0059057  | 0.011113   | 0.016367   |   3.2 |  0.07
Modify  | 0.50747    | 1.8015     | 6.9965     | 168.1 | 11.64
Other   |            | 0.5284     |            |       |  3.41

Nlocal:        10.0208 ave          42 max           0 min
Histogram: 22 8 4 4 2 1 2 1 2 2
Nghost:         1931.6 ave        2416 max        1331 min
Histogram: 8 0 0 0 24 0 0 0 0 16
Neighs:              0 ave           0 max           0 min
Histogram: 48 0 0 0 0 0 0 0 0 0

Total # of neighbors = 0
Ave neighs/atom = 0
Ave special neighs/atom = 15.567568
Neighbor list builds = 47
Dangerous builds = 0
unfix           myat1
next            cpt
jump            SELF loop
variable        zdes equal  -15+0.60*(${cpt}-1)
variable        zdes equal  -15+0.60*(51-1)
variable        zave equal xcm(H2,z)
fix             mytth2 H2 spring tether ${k1} 2.5 2.5 ${zdes} 0
fix             mytth2 H2 spring tether 4.9 2.5 2.5 ${zdes} 0
fix             mytth2 H2 spring tether 4.9 2.5 2.5 15 0
run             10000
Generated 0 of 1 mixed pair_coeff terms from geometric mixing rule
Per MPI rank memory allocation (min/avg/max) = 13.32 | 13.88 | 14.99 Mbytes
   Step          Temp          E_pair         E_mol          TotEng         Press     
   3020000   317.60963      366.91846      18527.945      19349.295     -250.43585    
   3030000   291.99448      367.27673      18509.135      19294.194     -114.42692    
Loop time of 2.98421 on 48 procs for 10000 steps with 481 atoms

Performance: 14.476 ns/day, 1.658 hours/ns, 3350.975 timesteps/s, 1.612 Matom-step/s
100.0% CPU use with 48 MPI tasks x 1 OpenMP threads

MPI task timing breakdown:
Section |  min time  |  avg time  |  max time  |%varavg| %total
---------------------------------------------------------------
Pair    | 0.0034222  | 0.14758    | 0.87541    |  55.2 |  4.95
Bond    | 0.0010558  | 0.18537    | 0.83072    |  56.6 |  6.21
Neigh   | 0.0034661  | 0.0038581  | 0.0041948  |   0.3 |  0.13
Comm    | 1.2115     | 2.1999     | 2.7274     |  33.0 | 73.72
Output  | 0.0011356  | 0.0021279  | 0.0031708  |   1.4 |  0.07
Modify  | 0.099325   | 0.34027    | 1.3698     |  71.4 | 11.40
Other   |            | 0.1051     |            |       |  3.52

Nlocal:        10.0208 ave          45 max           0 min
Histogram: 21 9 5 3 3 1 0 4 0 2
Nghost:        1932.48 ave        2415 max        1328 min
Histogram: 8 0 0 0 24 0 0 0 0 16
Neighs:              0 ave           0 max           0 min
Histogram: 48 0 0 0 0 0 0 0 0 0

Total # of neighbors = 0
Ave neighs/atom = 0
Ave special neighs/atom = 15.567568
Neighbor list builds = 10
Dangerous builds = 0
fix             myat1 all ave/time 1000 10 10000 v_zave v_zdes file simulation_data/abpot/${cpt}.dat
fix             myat1 all ave/time 1000 10 10000 v_zave v_zdes file simulation_data/abpot/51.dat
run             50000
Generated 0 of 1 mixed pair_coeff terms from geometric mixing rule
Per MPI rank memory allocation (min/avg/max) = 13.32 | 13.88 | 14.99 Mbytes
   Step          Temp          E_pair         E_mol          TotEng         Press     
   3030000   291.99448      367.27673      18509.135      19294.194     -114.42692    
   3040000   283.06276      365.73913      18571.293      19342.035     -202.00626    
   3050000   303.90233      380.01817      18527.745      19342.583      150.17491    
   3060000   297.21949      370.43211      18544.664      19340.354      7.4904273    
   3070000   314.75447      365.98772      18541.035      19357.37      -168.21074    
   3080000   294.67758      379.48998      18536.029      19337.14       34.962898    
Loop time of 14.834 on 48 procs for 50000 steps with 481 atoms

Performance: 14.561 ns/day, 1.648 hours/ns, 3370.629 timesteps/s, 1.621 Matom-step/s
100.0% CPU use with 48 MPI tasks x 1 OpenMP threads

MPI task timing breakdown:
Section |  min time  |  avg time  |  max time  |%varavg| %total
---------------------------------------------------------------
Pair    | 0.017429   | 0.73843    | 4.3938     | 122.3 |  4.98
Bond    | 0.0053506  | 0.92747    | 4.3611     | 127.2 |  6.25
Neigh   | 0.019329   | 0.021431   | 0.02345    |   0.7 |  0.14
Comm    | 5.901      | 10.887     | 13.523     |  72.7 | 73.39
Output  | 0.0057956  | 0.010994   | 0.016263   |   3.3 |  0.07
Modify  | 0.50581    | 1.7197     | 6.5712     | 155.0 | 11.59
Other   |            | 0.5295     |            |       |  3.57

Nlocal:        10.0208 ave          42 max           0 min
Histogram: 21 7 7 4 1 1 2 1 1 3
Nghost:         1932.6 ave        2413 max        1331 min
Histogram: 8 0 0 0 24 0 0 0 0 16
Neighs:              0 ave           0 max           0 min
Histogram: 48 0 0 0 0 0 0 0 0 0

Total # of neighbors = 0
Ave neighs/atom = 0
Ave special neighs/atom = 15.567568
Neighbor list builds = 57
Dangerous builds = 0
unfix           myat1
next            cpt
jump            SELF loop

Total wall time: 0:18:13
