# --- log file ---

variable pre equal 112 # desired pressure (Atm)
variable tem equal 300 # desired temperature (K)

variable k1 equal 2. # spring constant
variable k2 equal 3.5 # spring constant

units real
atom_style molecular
boundary p p p
neighbor 1.0 bin
neigh_modify delay 3 one 6000
bond_style harmonic
angle_style harmonic
dihedral_style opls
improper_style harmonic
pair_style hybrid lj/cut 14 sg 15 cb 30 # Fluid-fluid interactions have a cutoff of 15 Å, fluid-solid interactions have a cutoff of 30 Å
# *--* C-C parameters *--*
bond_style harmonic
angle_style harmonic
dihedral_style opls
improper_style harmonic
# *--* C-C parameters *--*


# 2. Read the graphite platelet data file and define potentials parameters
read_data       ../geometry/carbonPlatelets/simulation_data/abpot_sys.data  extra/atom/types 1
Reading data file ...
  orthogonal box = (-30 -30 -30) to (30 30 30)
  2 by 2 by 4 MPI processor grid
  reading atoms ...
  480 atoms
  reading velocities ...
  480 velocities
  scanning bonds ...
  2 = max bonds/atom
  scanning angles ...
  3 = max angles/atom
  scanning dihedrals ...
  8 = max dihedrals/atom
  scanning impropers ...
  2 = max impropers/atom
  orthogonal box = (-30 -30 -30) to (30 30 30)
  2 by 2 by 4 MPI processor grid
  reading bonds ...
  676 bonds
  reading angles ...
  1268 angles
  reading dihedrals ...
  2394 dihedrals
  reading impropers ...
  396 impropers
Finding 1-2 1-3 1-4 neighbors ...
  special bond factors lj:    0        0        0       
  special bond factors coul:  0        0        0       
     3 = max # of 1-2 neighbors
     6 = max # of 1-3 neighbors
    18 = max # of 1-4 neighbors
    18 = max # of special neighbors
  special bonds CPU = 0.001 seconds
  read_data CPU = 0.043 seconds
include         PARM.lammps

#////////////////////////////////////////////////////////////////////////////////////////////////////////////////////////////////
#//     Filename: PARM.lammps
#//     File Type: LAMMPS input script
#//     Description: This script defines the parameters for the simulation of hydrogen absorption in graphite platelets.
#//     Author: Edoardo Cabiati
#//     Date: 2024-07-27
#////////////////////////////////////////////////////////////////////////////////////////////////////////////////////////////////

mass 2 2.016 # For now at least, in accordance with the paper by Wang and Johnson,
             # 1998, the hydrogen atoms are regarded as simple spherical atoms

# //////////////////////////////////////    C-C potentials    //////////////////////////////////////
pair_coeff 1 1 lj/cut 0.066 3.4
bond_coeff 1 469 1.4
angle_coeff 1 63 120
dihedral_coeff 1 0 7.25 0 0
improper_coeff 1 5 180
special_bonds lj 0.0 0.0 0.5
Finding 1-2 1-3 1-4 neighbors ...
  special bond factors lj:    0        0        0.5     
  special bond factors coul:  0        0        0       
     3 = max # of 1-2 neighbors
     6 = max # of 1-3 neighbors
    18 = max # of 1-4 neighbors
    18 = max # of special neighbors
  special bonds CPU = 0.001 seconds
# //////////////////////////////////////    C-C potentials    //////////////////////////////////////
# -------------------------------------------------------------------------------------------------
# //////////////////////////////////////    H-H potentials    //////////////////////////////////////
variable alpha equal 1.713          #|
variable sigma equal 1.567          #|
variable gamma equal 0.00993        #|
variable c6 equal 12.14             #|      The parameters are all in atomic units, the conversion to kcal/mol
variable c8 equal 215.2             #|      is performed in the pair_sg.cpp file
variable c9 equal 143.1             #|
variable c10 equal 4813.9           #|
variable rc equal 8.321             #|
pair_coeff 2 2 sg ${alpha} ${sigma} ${gamma} ${c6} ${c8} ${c9} ${c10} ${rc} # H-H potentials
pair_coeff 2 2 sg 1.713 ${sigma} ${gamma} ${c6} ${c8} ${c9} ${c10} ${rc} 
pair_coeff 2 2 sg 1.713 1.567 ${gamma} ${c6} ${c8} ${c9} ${c10} ${rc} 
pair_coeff 2 2 sg 1.713 1.567 0.00993 ${c6} ${c8} ${c9} ${c10} ${rc} 
pair_coeff 2 2 sg 1.713 1.567 0.00993 12.14 ${c8} ${c9} ${c10} ${rc} 
pair_coeff 2 2 sg 1.713 1.567 0.00993 12.14 215.2 ${c9} ${c10} ${rc} 
pair_coeff 2 2 sg 1.713 1.567 0.00993 12.14 215.2 143.1 ${c10} ${rc} 
pair_coeff 2 2 sg 1.713 1.567 0.00993 12.14 215.2 143.1 4813.9 ${rc} 
pair_coeff 2 2 sg 1.713 1.567 0.00993 12.14 215.2 143.1 4813.9 8.321 
#pair_coeff 2 2 sg 1.713 1.567 0.00993 12.14 215.2 143.1 4813.9 8.321 # H-H potentials
# //////////////////////////////////////    H-H potentials    //////////////////////////////////////
# -------------------------------------------------------------------------------------------------
# //////////////////////////////////////    C-H potentials    //////////////////////////////////////
# Parameters taken from the paper by Wang and Johnson, 1998
variable sigma_CC equal 3.43 # Å
variable sigma_HH equal 3.075 # Å
variable sigma_CH_geo equal sqrt(${sigma_CC}*${sigma_HH}) # Å
variable sigma_CH_geo equal sqrt(3.43*${sigma_HH}) 
variable sigma_CH_geo equal sqrt(3.43*3.075) 
variable sigma_CH_arit equal 0.5*(${sigma_CC}+${sigma_HH}) # Å
variable sigma_CH_arit equal 0.5*(3.43+${sigma_HH}) 
variable sigma_CH_arit equal 0.5*(3.43+3.075) 

variable P_par equal 0.57 # Å^3
variable P_perp equal 1.995 # Å^3
variable P_h equal 0.81 # Å^3
variable E_h equal 2.337e5*(1/503.23) # K * 1/503.23 kcal/mol/K = kcal/mol
variable E_c equal 1.39254e5*(1/503.23) # K * 1/503.23 kcal/mol/K = kcal/mol

variable epsilon_CB equal 4*v_E_h*v_E_c*v_P_h*(v_P_par+v_P_perp/2)/(v_sigma_CH_geo^6*(v_E_h+v_E_c)) # kcal/mol
# The following is a set of parameters taken from the paper "Theoretical investigation of the effect of graphite interlayer
# spacing on hydrogen absorption" by Rachel S. Aga, C. L. Fu, Maja Krčmar, and James R. Morris, where the CB potential is
# simplified into a 12-6 LJ potential 4*epsilon*⌊(sigma/r)^12 − (sigma/r)^6⌋ .
# variable epsilon equal 4*0.085094 # kcal/mol
# variable sigma equal 2.97 # Å

pair_coeff 1 2 cb ${epsilon_CB} ${sigma_CH_geo} ${P_par} ${P_perp} # C-H potential
pair_coeff 1 2 cb 0.750549668586509 ${sigma_CH_geo} ${P_par} ${P_perp} 
pair_coeff 1 2 cb 0.750549668586509 3.24765299870537 ${P_par} ${P_perp} 
pair_coeff 1 2 cb 0.750549668586509 3.24765299870537 0.57 ${P_perp} 
pair_coeff 1 2 cb 0.750549668586509 3.24765299870537 0.57 1.995 
# //////////////////////////////////////    C-H potentials    //////////////////////////////////////

# 3. Add a single hydrogen molecule to the system, close to the center of the first platelet
create_atoms    2 single 0 0 -2
Created 1 atoms
  using lattice units in orthogonal box = (-30 -30 -30) to (30 30 30)
  create_atoms CPU = 0.000 seconds

group           C type 1
480 atoms in group C
group           H2 type 2
1 atoms in group H2

# 4. Equilibration
timestep        0.05
fix             mytth1 C spring/self ${k2} # Apply a spring force to the carbon atoms
fix             mytth1 C spring/self 3.5 
velocity        all create ${tem} 48 rot yes mom yes dist gaussian # Initialize velocities
velocity        all create 300 48 rot yes mom yes dist gaussian 
fix             mynpt all npt temp ${tem} ${tem} 100 x ${pre} ${pre} 1000 y ${pre} ${pre} 1000 # Apply NPT ensemble to the system
fix             mynpt all npt temp 300 ${tem} 100 x ${pre} ${pre} 1000 y ${pre} ${pre} 1000 
fix             mynpt all npt temp 300 300 100 x ${pre} ${pre} 1000 y ${pre} ${pre} 1000 
fix             mynpt all npt temp 300 300 100 x 112 ${pre} 1000 y ${pre} ${pre} 1000 
fix             mynpt all npt temp 300 300 100 x 112 112 1000 y ${pre} ${pre} 1000 
fix             mynpt all npt temp 300 300 100 x 112 112 1000 y 112 ${pre} 1000 
fix             mynpt all npt temp 300 300 100 x 112 112 1000 y 112 112 1000 

thermo          10000
dump            dump all atom 1000 simulation_data/dumps/absorption_pot.lammpstrj

run             20000

CITE-CITE-CITE-CITE-CITE-CITE-CITE-CITE-CITE-CITE-CITE-CITE-CITE

Your simulation uses code contributions which should be cited:

- Type Label Framework: https://doi.org/10.1021/acs.jpcb.3c08419

@Article{Gissinger24,
 author = {Jacob R. Gissinger, Ilia Nikiforov, Yaser Afshar, Brendon Waters, Moon-ki Choi, Daniel S. Karls, Alexander Stukowski, Wonpil Im, Hendrik Heinz, Axel Kohlmeyer, and Ellad B. Tadmor},
 title = {Type Label Framework for Bonded Force Fields in LAMMPS},
 journal = {J. Phys. Chem. B},
 year =    2024,
 volume =  128,
 number =  13,
 pages =   {3282–-3297}
}

CITE-CITE-CITE-CITE-CITE-CITE-CITE-CITE-CITE-CITE-CITE-CITE-CITE

Generated 0 of 1 mixed pair_coeff terms from geometric mixing rule
Neighbor list info ...
  update: every = 1 steps, delay = 3 steps, check = yes
  max neighbors/atom: 6000, page size: 100000
  master list distance cutoff = 31
  ghost atom cutoff = 31
  binsize = 15.5, bins = 4 4 4
  4 neighbor lists, perpetual/occasional/extra = 4 0 0
  (1) pair lj/cut, perpetual, skip trim from (4)
      attributes: half, newton on, cut 15
      pair build: skip/trim
      stencil: none
      bin: none
  (2) pair sg, perpetual, skip trim from (4)
      attributes: half, newton on, cut 16
      pair build: skip/trim
      stencil: none
      bin: none
  (3) pair cb, perpetual, skip from (4)
      attributes: half, newton on
      pair build: skip
      stencil: none
      bin: none
  (4) neighbor class addition, perpetual
      attributes: half, newton on
      pair build: half/bin/newton
      stencil: half/bin/3d
      bin: standard
Per MPI rank memory allocation (min/avg/max) = 13.34 | 13.66 | 13.99 Mbytes
   Step          Temp          E_pair         E_mol          TotEng         Press          Volume    
         0   300            308.43814      19603.922      20341.597     -432.48369      216000       
     10000   308.72719      373.58236      18568.419      19383.724     -313.9945       172136.64    
     20000   322.02648      371.05675      18538.378      19370.187     -418.66256      126544.33    
Loop time of 5.96122 on 16 procs for 20000 steps with 481 atoms

Performance: 14.494 ns/day, 1.656 hours/ns, 3355.018 timesteps/s, 1.614 Matom-step/s
99.8% CPU use with 16 MPI tasks x 1 OpenMP threads

MPI task timing breakdown:
Section |  min time  |  avg time  |  max time  |%varavg| %total
---------------------------------------------------------------
Pair    | 0.61805    | 0.95825    | 1.7297     |  26.7 | 16.07
Bond    | 0.87845    | 1.0764     | 1.3068     |  13.0 | 18.06
Neigh   | 0.024095   | 0.025548   | 0.026777   |   0.5 |  0.43
Comm    | 2.4738     | 3.2181     | 3.7535     |  18.7 | 53.98
Output  | 0.0031197  | 0.0051608  | 0.0071363  |   1.9 |  0.09
Modify  | 0.43998    | 0.50225    | 0.57869    |   6.9 |  8.43
Other   |            | 0.1755     |            |       |  2.94

Nlocal:        30.0625 ave          37 max          19 min
Histogram: 1 0 0 1 0 4 3 6 0 1
Nghost:        2326.06 ave        2341 max        2307 min
Histogram: 1 0 1 3 1 2 2 2 3 1
Neighs:              0 ave           0 max           0 min
Histogram: 16 0 0 0 0 0 0 0 0 0

Total # of neighbors = 0
Ave neighs/atom = 0
Ave special neighs/atom = 15.567568
Neighbor list builds = 55
Dangerous builds = 0
unfix           mynpt
unfix           mytth1

# 5. Umbrella sampling
fix             mynvt all nvt temp ${tem} ${tem} 100
fix             mynvt all nvt temp 300 ${tem} 100
fix             mynvt all nvt temp 300 300 100
fix             mytth1 C spring/self ${k2}
fix             mytth1 C spring/self 3.5

variable        cpt loop 51
label           loop
variable        zdes equal  -15+0.60*(${cpt}-1)
variable        zdes equal  -15+0.60*(1-1)
variable        zave equal xcm(H2,z)
fix             mytth2 H2 spring tether ${k1} 0.5 0.5 ${zdes} 0
fix             mytth2 H2 spring tether 2 0.5 0.5 ${zdes} 0
fix             mytth2 H2 spring tether 2 0.5 0.5 -15 0
run             10000
Generated 0 of 1 mixed pair_coeff terms from geometric mixing rule
Per MPI rank memory allocation (min/avg/max) = 13.35 | 14.19 | 15 Mbytes
   Step          Temp          E_pair         E_mol          TotEng         Press     
     20000   322.02648      371.05675      18538.378      19370.187     -418.66256    
     30000   280.25737      337.00097      18582.168      19320.158     -1060.9561    
Loop time of 2.57247 on 16 procs for 10000 steps with 481 atoms

Performance: 16.793 ns/day, 1.429 hours/ns, 3887.321 timesteps/s, 1.870 Matom-step/s
99.9% CPU use with 16 MPI tasks x 1 OpenMP threads

MPI task timing breakdown:
Section |  min time  |  avg time  |  max time  |%varavg| %total
---------------------------------------------------------------
Pair    | 0.06701    | 0.32805    | 0.56875    |  26.2 | 12.75
Bond    | 0.2636     | 0.42488    | 0.59103    |  12.4 | 16.52
Neigh   | 0.040731   | 0.042557   | 0.045028   |   0.7 |  1.65
Comm    | 1.1931     | 1.5952     | 1.9141     |  15.7 | 62.01
Output  | 0.00095331 | 0.0016493  | 0.0023281  |   1.1 |  0.06
Modify  | 0.079411   | 0.10627    | 0.1285     |   5.0 |  4.13
Other   |            | 0.07383    |            |       |  2.87

Nlocal:        30.0625 ave          38 max          21 min
Histogram: 1 0 4 0 3 2 0 3 2 1
Nghost:        2334.81 ave        2353 max        2320 min
Histogram: 3 3 0 2 0 2 1 4 0 1
Neighs:              0 ave           0 max           0 min
Histogram: 16 0 0 0 0 0 0 0 0 0

Total # of neighbors = 0
Ave neighs/atom = 0
Ave special neighs/atom = 15.567568
Neighbor list builds = 110
Dangerous builds = 0
fix             myat1 all ave/time 100 10 1000 v_zave v_zdes file simulation_data/abpot/${cpt}.dat
fix             myat1 all ave/time 100 10 1000 v_zave v_zdes file simulation_data/abpot/1.dat
run             50000
Generated 0 of 1 mixed pair_coeff terms from geometric mixing rule
Per MPI rank memory allocation (min/avg/max) = 13.35 | 14.23 | 15 Mbytes
   Step          Temp          E_pair         E_mol          TotEng         Press     
     30000   280.25737      337.00097      18582.168      19320.158     -1060.9561    
     40000   293.15479      408.6716       18525.229      19353.343      659.68562    
     50000   291.14942      380.74669      18522.743      19320.063      85.674383    
     60000   297.44491      369.91596      18542.878      19338.375     -193.98572    
     70000   305.45763      370.85087      18552.733      19360.629     -122.3609     
     80000   288.9169       386.62017      18562.968      19362.967      158.89023    
Loop time of 13.8737 on 16 procs for 50000 steps with 481 atoms

Performance: 15.569 ns/day, 1.542 hours/ns, 3603.943 timesteps/s, 1.733 Matom-step/s
100.0% CPU use with 16 MPI tasks x 1 OpenMP threads

MPI task timing breakdown:
Section |  min time  |  avg time  |  max time  |%varavg| %total
---------------------------------------------------------------
Pair    | 0.37233    | 1.7869     | 3.1942     |  57.4 | 12.88
Bond    | 1.4715     | 2.2947     | 2.8573     |  24.4 | 16.54
Neigh   | 0.087087   | 0.091024   | 0.096647   |   1.0 |  0.66
Comm    | 6.9257     | 8.6717     | 10.3       |  34.4 | 62.50
Output  | 0.0060143  | 0.0091539  | 0.011773   |   1.9 |  0.07
Modify  | 0.42898    | 0.62496    | 0.76805    |  13.7 |  4.50
Other   |            | 0.3953     |            |       |  2.85

Nlocal:        30.0625 ave          40 max          24 min
Histogram: 3 2 1 2 4 1 1 1 0 1
Nghost:        2362.19 ave        2381 max        2351 min
Histogram: 4 1 3 1 1 3 0 0 1 2
Neighs:              0 ave           0 max           0 min
Histogram: 16 0 0 0 0 0 0 0 0 0

Total # of neighbors = 0
Ave neighs/atom = 0
Ave special neighs/atom = 15.567568
Neighbor list builds = 230
Dangerous builds = 0
unfix           myat1
next            cpt
jump            SELF loop
variable        zdes equal  -15+0.60*(${cpt}-1)
variable        zdes equal  -15+0.60*(2-1)
variable        zave equal xcm(H2,z)
fix             mytth2 H2 spring tether ${k1} 0.5 0.5 ${zdes} 0
fix             mytth2 H2 spring tether 2 0.5 0.5 ${zdes} 0
fix             mytth2 H2 spring tether 2 0.5 0.5 -14.4 0
run             10000
Generated 0 of 1 mixed pair_coeff terms from geometric mixing rule
Per MPI rank memory allocation (min/avg/max) = 13.35 | 14.23 | 15 Mbytes
   Step          Temp          E_pair         E_mol          TotEng         Press     
     80000   288.9169       386.62017      18562.968      19362.967      158.89023    
     90000   288.62842      375.96673      18570.967      19359.9       -78.660619    
Loop time of 2.94041 on 16 procs for 10000 steps with 481 atoms

Performance: 14.692 ns/day, 1.634 hours/ns, 3400.882 timesteps/s, 1.636 Matom-step/s
100.0% CPU use with 16 MPI tasks x 1 OpenMP threads

MPI task timing breakdown:
Section |  min time  |  avg time  |  max time  |%varavg| %total
---------------------------------------------------------------
Pair    | 0.076609   | 0.39409    | 0.67359    |  26.2 | 13.40
Bond    | 0.29509    | 0.50538    | 0.63275    |  10.4 | 17.19
Neigh   | 0.0072756  | 0.0077111  | 0.0083281  |   0.4 |  0.26
Comm    | 1.4677     | 1.8226     | 2.1908     |  15.8 | 61.99
Output  | 0.0010955  | 0.0018417  | 0.0024711  |   1.0 |  0.06
Modify  | 0.085292   | 0.12218    | 0.15994    |   6.5 |  4.16
Other   |            | 0.08658    |            |       |  2.94

Nlocal:        30.0625 ave          35 max          24 min
Histogram: 1 1 1 3 1 1 3 2 0 3
Nghost:        2356.56 ave        2382 max        2337 min
Histogram: 3 0 3 1 2 2 2 1 1 1
Neighs:              0 ave           0 max           0 min
Histogram: 16 0 0 0 0 0 0 0 0 0

Total # of neighbors = 0
Ave neighs/atom = 0
Ave special neighs/atom = 15.567568
Neighbor list builds = 18
Dangerous builds = 0
fix             myat1 all ave/time 100 10 1000 v_zave v_zdes file simulation_data/abpot/${cpt}.dat
fix             myat1 all ave/time 100 10 1000 v_zave v_zdes file simulation_data/abpot/2.dat
run             50000
Generated 0 of 1 mixed pair_coeff terms from geometric mixing rule
Per MPI rank memory allocation (min/avg/max) = 13.35 | 14.23 | 15 Mbytes
   Step          Temp          E_pair         E_mol          TotEng         Press     
     90000   288.62842      375.96673      18570.967      19359.9       -78.660619    
    100000   307.22018      374.14533      18508.525      19322.238     -90.850515    
    110000   293.17275      382.78582      18536.959      19339.213      138.02307    
    120000   302.6562       367.48689      18553.339      19353.863     -142.18457    
    130000   297.73827      370.49899      18520.925      19317.425     -191.47688    
    140000   304.98085      379.53288      18528.472      19344.368     -4.3825627    
Loop time of 14.6382 on 16 procs for 50000 steps with 481 atoms

Performance: 14.756 ns/day, 1.626 hours/ns, 3415.723 timesteps/s, 1.643 Matom-step/s
100.0% CPU use with 16 MPI tasks x 1 OpenMP threads

MPI task timing breakdown:
Section |  min time  |  avg time  |  max time  |%varavg| %total
---------------------------------------------------------------
Pair    | 0.42691    | 1.9703     | 3.2666     |  59.5 | 13.46
Bond    | 1.6242     | 2.5268     | 3.3073     |  23.1 | 17.26
Neigh   | 0.027601   | 0.02921    | 0.031506   |   0.7 |  0.20
Comm    | 7.0114     | 9.0523     | 10.668     |  36.0 | 61.84
Output  | 0.006344   | 0.0092822  | 0.011657   |   1.7 |  0.06
Modify  | 0.39735    | 0.62057    | 0.79761    |  14.8 |  4.24
Other   |            | 0.4297     |            |       |  2.94

Nlocal:        30.0625 ave          43 max          17 min
Histogram: 1 0 0 4 5 1 3 0 1 1
Nghost:        2373.44 ave        2391 max        2347 min
Histogram: 1 0 0 1 2 4 2 4 0 2
Neighs:              0 ave           0 max           0 min
Histogram: 16 0 0 0 0 0 0 0 0 0

Total # of neighbors = 0
Ave neighs/atom = 0
Ave special neighs/atom = 15.567568
Neighbor list builds = 67
Dangerous builds = 0
unfix           myat1
next            cpt
jump            SELF loop
variable        zdes equal  -15+0.60*(${cpt}-1)
variable        zdes equal  -15+0.60*(3-1)
variable        zave equal xcm(H2,z)
fix             mytth2 H2 spring tether ${k1} 0.5 0.5 ${zdes} 0
fix             mytth2 H2 spring tether 2 0.5 0.5 ${zdes} 0
fix             mytth2 H2 spring tether 2 0.5 0.5 -13.8 0
run             10000
Generated 0 of 1 mixed pair_coeff terms from geometric mixing rule
Per MPI rank memory allocation (min/avg/max) = 13.35 | 14.29 | 15 Mbytes
   Step          Temp          E_pair         E_mol          TotEng         Press     
    140000   304.98085      379.53288      18528.472      19344.368     -4.3825627    
    150000   307.11864      370.54485      18552.089      19362.056     -208.69325    
Loop time of 3.0839 on 16 procs for 10000 steps with 481 atoms

Performance: 14.008 ns/day, 1.713 hours/ns, 3242.643 timesteps/s, 1.560 Matom-step/s
100.0% CPU use with 16 MPI tasks x 1 OpenMP threads

MPI task timing breakdown:
Section |  min time  |  avg time  |  max time  |%varavg| %total
---------------------------------------------------------------
Pair    | 0.092129   | 0.39697    | 0.69852    |  27.0 | 12.87
Bond    | 0.33022    | 0.50904    | 0.62069    |  10.0 | 16.51
Neigh   | 0.005716   | 0.0060366  | 0.0065189  |   0.3 |  0.20
Comm    | 1.5842     | 1.9539     | 2.2868     |  15.5 | 63.36
Output  | 0.0010197  | 0.0017815  | 0.0023493  |   1.0 |  0.06
Modify  | 0.080873   | 0.12746    | 0.16779    |   7.1 |  4.13
Other   |            | 0.08874    |            |       |  2.88

Nlocal:        30.0625 ave          38 max          25 min
Histogram: 2 3 3 4 0 0 0 0 1 3
Nghost:        2364.44 ave        2380 max        2349 min
Histogram: 3 0 2 0 2 3 2 2 1 1
Neighs:              0 ave           0 max           0 min
Histogram: 16 0 0 0 0 0 0 0 0 0

Total # of neighbors = 0
Ave neighs/atom = 0
Ave special neighs/atom = 15.567568
Neighbor list builds = 14
Dangerous builds = 0
fix             myat1 all ave/time 100 10 1000 v_zave v_zdes file simulation_data/abpot/${cpt}.dat
fix             myat1 all ave/time 100 10 1000 v_zave v_zdes file simulation_data/abpot/3.dat
run             50000
Generated 0 of 1 mixed pair_coeff terms from geometric mixing rule
Per MPI rank memory allocation (min/avg/max) = 13.35 | 14.29 | 15 Mbytes
   Step          Temp          E_pair         E_mol          TotEng         Press     
    150000   307.11864      370.54485      18552.089      19362.056     -208.69325    
    160000   293.78416      367.03404      18527.828      19315.205     -263.52669    
    170000   295.89138      381.11698      18508.994      19313.469      93.853833    
    180000   299.02168      383.38211      18521.75       19332.969      221.4755     
    190000   302.67463      369.57338      18558.514      19361.151     -205.311      
    200000   303.66072      369.57903      18532.746      19336.8       -280.35787    
Loop time of 14.6134 on 16 procs for 50000 steps with 481 atoms

Performance: 14.781 ns/day, 1.624 hours/ns, 3421.525 timesteps/s, 1.646 Matom-step/s
100.0% CPU use with 16 MPI tasks x 1 OpenMP threads

MPI task timing breakdown:
Section |  min time  |  avg time  |  max time  |%varavg| %total
---------------------------------------------------------------
Pair    | 0.42905    | 1.969      | 3.3382     |  57.6 | 13.47
Bond    | 1.767      | 2.5208     | 3.1427     |  19.2 | 17.25
Neigh   | 0.033313   | 0.035045   | 0.037652   |   0.7 |  0.24
Comm    | 7.2704     | 9.0341     | 10.554     |  33.2 | 61.82
Output  | 0.006215   | 0.0089095  | 0.011091   |   1.6 |  0.06
Modify  | 0.40563    | 0.61566    | 0.7971     |  14.4 |  4.21
Other   |            | 0.4299     |            |       |  2.94

Nlocal:        30.0625 ave          39 max          21 min
Histogram: 1 1 1 3 1 3 3 2 0 1
Nghost:        2370.81 ave        2392 max        2358 min
Histogram: 4 2 1 1 1 3 2 1 0 1
Neighs:              0 ave           0 max           0 min
Histogram: 16 0 0 0 0 0 0 0 0 0

Total # of neighbors = 0
Ave neighs/atom = 0
Ave special neighs/atom = 15.567568
Neighbor list builds = 83
Dangerous builds = 0
unfix           myat1
next            cpt
jump            SELF loop
variable        zdes equal  -15+0.60*(${cpt}-1)
variable        zdes equal  -15+0.60*(4-1)
variable        zave equal xcm(H2,z)
fix             mytth2 H2 spring tether ${k1} 0.5 0.5 ${zdes} 0
fix             mytth2 H2 spring tether 2 0.5 0.5 ${zdes} 0
fix             mytth2 H2 spring tether 2 0.5 0.5 -13.2 0
run             10000
Generated 0 of 1 mixed pair_coeff terms from geometric mixing rule
Per MPI rank memory allocation (min/avg/max) = 13.35 | 14.29 | 15 Mbytes
   Step          Temp          E_pair         E_mol          TotEng         Press     
    200000   303.66072      369.57903      18532.746      19336.8       -280.35787    
    210000   305.53747      364.44713      18543.458      19345.065     -188.79461    
Loop time of 2.94615 on 16 procs for 10000 steps with 481 atoms

Performance: 14.663 ns/day, 1.637 hours/ns, 3394.265 timesteps/s, 1.633 Matom-step/s
100.0% CPU use with 16 MPI tasks x 1 OpenMP threads

MPI task timing breakdown:
Section |  min time  |  avg time  |  max time  |%varavg| %total
---------------------------------------------------------------
Pair    | 0.08216    | 0.39399    | 0.69045    |  28.2 | 13.37
Bond    | 0.35589    | 0.5046     | 0.6102     |   8.7 | 17.13
Neigh   | 0.0072419  | 0.0076189  | 0.0081583  |   0.3 |  0.26
Comm    | 1.46       | 1.8355     | 2.1653     |  16.1 | 62.30
Output  | 0.00097706 | 0.0016499  | 0.0021616  |   0.9 |  0.06
Modify  | 0.083745   | 0.11652    | 0.15227    |   6.1 |  3.96
Other   |            | 0.08623    |            |       |  2.93

Nlocal:        30.0625 ave          40 max          24 min
Histogram: 4 1 1 2 2 3 1 1 0 1
Nghost:        2373.81 ave        2395 max        2354 min
Histogram: 2 0 1 3 3 2 0 4 0 1
Neighs:              0 ave           0 max           0 min
Histogram: 16 0 0 0 0 0 0 0 0 0

Total # of neighbors = 0
Ave neighs/atom = 0
Ave special neighs/atom = 15.567568
Neighbor list builds = 18
Dangerous builds = 0
fix             myat1 all ave/time 100 10 1000 v_zave v_zdes file simulation_data/abpot/${cpt}.dat
fix             myat1 all ave/time 100 10 1000 v_zave v_zdes file simulation_data/abpot/4.dat
run             50000
Generated 0 of 1 mixed pair_coeff terms from geometric mixing rule
Per MPI rank memory allocation (min/avg/max) = 13.35 | 14.29 | 15 Mbytes
   Step          Temp          E_pair         E_mol          TotEng         Press     
    210000   305.53747      364.44713      18543.458      19345.065     -188.79461    
    220000   300.79832      376.8027       18523.17       19330.351      63.597798    
    230000   324.94566      374.31799      18549.409      19388.656     -31.642474    
    240000   302.01842      363.86765      18577.501      19373.493     -448.67313    
    250000   306.27104      366.70985      18558.807      19363.726     -286.8795     
    260000   317.95266      387.35313      18504.105      19346.381      299.36883    
Loop time of 14.5715 on 16 procs for 50000 steps with 481 atoms

Performance: 14.823 ns/day, 1.619 hours/ns, 3431.354 timesteps/s, 1.650 Matom-step/s
100.0% CPU use with 16 MPI tasks x 1 OpenMP threads

MPI task timing breakdown:
Section |  min time  |  avg time  |  max time  |%varavg| %total
---------------------------------------------------------------
Pair    | 0.47237    | 1.971      | 3.3541     |  60.2 | 13.53
Bond    | 1.6228     | 2.5207     | 3.0326     |  22.4 | 17.30
Neigh   | 0.030474   | 0.032086   | 0.034547   |   0.7 |  0.22
Comm    | 7.2744     | 9.0044     | 10.715     |  36.2 | 61.79
Output  | 0.0062788  | 0.0089273  | 0.011059   |   1.6 |  0.06
Modify  | 0.41636    | 0.60428    | 0.78833    |  14.1 |  4.15
Other   |            | 0.4301     |            |       |  2.95

Nlocal:        30.0625 ave          39 max          17 min
Histogram: 1 0 0 1 3 3 3 3 0 2
Nghost:        2376.44 ave        2393 max        2357 min
Histogram: 1 2 0 3 2 1 1 3 1 2
Neighs:              0 ave           0 max           0 min
Histogram: 16 0 0 0 0 0 0 0 0 0

Total # of neighbors = 0
Ave neighs/atom = 0
Ave special neighs/atom = 15.567568
Neighbor list builds = 77
Dangerous builds = 0
unfix           myat1
next            cpt
jump            SELF loop
variable        zdes equal  -15+0.60*(${cpt}-1)
variable        zdes equal  -15+0.60*(5-1)
variable        zave equal xcm(H2,z)
fix             mytth2 H2 spring tether ${k1} 0.5 0.5 ${zdes} 0
fix             mytth2 H2 spring tether 2 0.5 0.5 ${zdes} 0
fix             mytth2 H2 spring tether 2 0.5 0.5 -12.6 0
run             10000
Generated 0 of 1 mixed pair_coeff terms from geometric mixing rule
Per MPI rank memory allocation (min/avg/max) = 13.35 | 14.29 | 15 Mbytes
   Step          Temp          E_pair         E_mol          TotEng         Press     
    260000   317.95266      387.35313      18504.105      19346.381      299.36883    
    270000   303.29444      378.84429      18513.636      19326.431      56.993361    
Loop time of 2.9299 on 16 procs for 10000 steps with 481 atoms

Performance: 14.745 ns/day, 1.628 hours/ns, 3413.091 timesteps/s, 1.642 Matom-step/s
100.0% CPU use with 16 MPI tasks x 1 OpenMP threads

MPI task timing breakdown:
Section |  min time  |  avg time  |  max time  |%varavg| %total
---------------------------------------------------------------
Pair    | 0.093543   | 0.39401    | 0.66861    |  27.4 | 13.45
Bond    | 0.33296    | 0.50364    | 0.63005    |  10.3 | 17.19
Neigh   | 0.008025   | 0.0084329  | 0.0090718  |   0.4 |  0.29
Comm    | 1.4576     | 1.8185     | 2.1571     |  16.2 | 62.07
Output  | 0.0010163  | 0.0016906  | 0.0021943  |   0.9 |  0.06
Modify  | 0.080756   | 0.11727    | 0.15367    |   6.3 |  4.00
Other   |            | 0.08634    |            |       |  2.95

Nlocal:        30.0625 ave          38 max          21 min
Histogram: 1 1 2 0 4 2 1 2 1 2
Nghost:        2379.06 ave        2401 max        2362 min
Histogram: 2 1 3 2 0 2 4 1 0 1
Neighs:              0 ave           0 max           0 min
Histogram: 16 0 0 0 0 0 0 0 0 0

Total # of neighbors = 0
Ave neighs/atom = 0
Ave special neighs/atom = 15.567568
Neighbor list builds = 20
Dangerous builds = 0
fix             myat1 all ave/time 100 10 1000 v_zave v_zdes file simulation_data/abpot/${cpt}.dat
fix             myat1 all ave/time 100 10 1000 v_zave v_zdes file simulation_data/abpot/5.dat
run             50000
Generated 0 of 1 mixed pair_coeff terms from geometric mixing rule
Per MPI rank memory allocation (min/avg/max) = 13.35 | 14.29 | 15 Mbytes
   Step          Temp          E_pair         E_mol          TotEng         Press     
    270000   303.29444      378.84429      18513.636      19326.431      56.993361    
    280000   273.98324      367.10835      18546.339      19305.46      -331.32965    
    290000   314.30378      386.52473      18497.261      19333.489      287.76097    
    300000   315.91261      361.40764      18527.508      19340.92      -405.12891    
    310000   294.58692      362.8364       18530.798      19315.126     -434.6679     
    320000   286.86428      380.70484      18517.517      19308.664      189.55449    
Loop time of 14.6344 on 16 procs for 50000 steps with 481 atoms

Performance: 14.760 ns/day, 1.626 hours/ns, 3416.599 timesteps/s, 1.643 Matom-step/s
100.0% CPU use with 16 MPI tasks x 1 OpenMP threads

MPI task timing breakdown:
Section |  min time  |  avg time  |  max time  |%varavg| %total
---------------------------------------------------------------
Pair    | 0.42648    | 1.9711     | 3.2632     |  59.6 | 13.47
Bond    | 1.6284     | 2.5185     | 3.154      |  21.4 | 17.21
Neigh   | 0.035913   | 0.037808   | 0.04071    |   0.8 |  0.26
Comm    | 7.1862     | 9.061      | 10.79      |  35.5 | 61.92
Output  | 0.0063049  | 0.009019   | 0.011174   |   1.6 |  0.06
Modify  | 0.41446    | 0.60821    | 0.79478    |  14.7 |  4.16
Other   |            | 0.4289     |            |       |  2.93

Nlocal:        30.0625 ave          33 max          25 min
Histogram: 1 0 1 3 0 3 0 2 2 4
Nghost:        2369.69 ave        2385 max        2353 min
Histogram: 3 1 1 1 2 1 2 1 1 3
Neighs:              0 ave           0 max           0 min
Histogram: 16 0 0 0 0 0 0 0 0 0

Total # of neighbors = 0
Ave neighs/atom = 0
Ave special neighs/atom = 15.567568
Neighbor list builds = 90
Dangerous builds = 0
unfix           myat1
next            cpt
jump            SELF loop
variable        zdes equal  -15+0.60*(${cpt}-1)
variable        zdes equal  -15+0.60*(6-1)
variable        zave equal xcm(H2,z)
fix             mytth2 H2 spring tether ${k1} 0.5 0.5 ${zdes} 0
fix             mytth2 H2 spring tether 2 0.5 0.5 ${zdes} 0
fix             mytth2 H2 spring tether 2 0.5 0.5 -12 0
run             10000
Generated 0 of 1 mixed pair_coeff terms from geometric mixing rule
Per MPI rank memory allocation (min/avg/max) = 13.35 | 14.29 | 15 Mbytes
   Step          Temp          E_pair         E_mol          TotEng         Press     
    320000   286.86428      380.70484      18517.517      19308.664      189.55449    
    330000   297.35448      369.20361      18531.803      19326.458     -359.30765    
Loop time of 3.0039 on 16 procs for 10000 steps with 481 atoms

Performance: 14.381 ns/day, 1.669 hours/ns, 3329.002 timesteps/s, 1.601 Matom-step/s
100.0% CPU use with 16 MPI tasks x 1 OpenMP threads

MPI task timing breakdown:
Section |  min time  |  avg time  |  max time  |%varavg| %total
---------------------------------------------------------------
Pair    | 0.08806    | 0.39596    | 0.6769     |  27.3 | 13.18
Bond    | 0.36125    | 0.50543    | 0.65984    |   9.6 | 16.83
Neigh   | 0.0073166  | 0.0077341  | 0.0083138  |   0.4 |  0.26
Comm    | 1.4524     | 1.8846     | 2.1884     |  15.9 | 62.74
Output  | 0.00097836 | 0.0016666  | 0.0021838  |   0.9 |  0.06
Modify  | 0.082413   | 0.12136    | 0.16004    |   6.7 |  4.04
Other   |            | 0.08715    |            |       |  2.90

Nlocal:        30.0625 ave          36 max          23 min
Histogram: 1 0 0 4 3 2 1 2 1 2
Nghost:        2356.19 ave        2373 max        2343 min
Histogram: 4 1 1 0 3 0 1 4 1 1
Neighs:              0 ave           0 max           0 min
Histogram: 16 0 0 0 0 0 0 0 0 0

Total # of neighbors = 0
Ave neighs/atom = 0
Ave special neighs/atom = 15.567568
Neighbor list builds = 18
Dangerous builds = 0
fix             myat1 all ave/time 100 10 1000 v_zave v_zdes file simulation_data/abpot/${cpt}.dat
fix             myat1 all ave/time 100 10 1000 v_zave v_zdes file simulation_data/abpot/6.dat
run             50000
Generated 0 of 1 mixed pair_coeff terms from geometric mixing rule
Per MPI rank memory allocation (min/avg/max) = 13.35 | 14.29 | 15 Mbytes
   Step          Temp          E_pair         E_mol          TotEng         Press     
    330000   297.35448      369.20361      18531.803      19326.458     -359.30765    
    340000   300.32186      376.91236      18532.454      19339.063     -58.23195     
    350000   320.25177      372.32046      18539.013      19369.546     -160.10564    
    360000   326.16681      371.35816      18550.377      19388.411     -159.79752    
    370000   306.09782      364.33805      18552.54       19354.839     -208.47056    
    380000   293.94339      373.08299      18552.028      19345.682     -46.511939    
Loop time of 14.6434 on 16 procs for 50000 steps with 481 atoms

Performance: 14.751 ns/day, 1.627 hours/ns, 3414.513 timesteps/s, 1.642 Matom-step/s
100.0% CPU use with 16 MPI tasks x 1 OpenMP threads

MPI task timing breakdown:
Section |  min time  |  avg time  |  max time  |%varavg| %total
---------------------------------------------------------------
Pair    | 0.42307    | 1.9764     | 3.305      |  59.3 | 13.50
Bond    | 1.6985     | 2.5202     | 3.2392     |  23.7 | 17.21
Neigh   | 0.028989   | 0.030599   | 0.032986   |   0.7 |  0.21
Comm    | 7.0319     | 9.062      | 10.685     |  36.3 | 61.88
Output  | 0.0062512  | 0.0089819  | 0.011155   |   1.6 |  0.06
Modify  | 0.41692    | 0.61469    | 0.79965    |  14.6 |  4.20
Other   |            | 0.4305     |            |       |  2.94

Nlocal:        30.0625 ave          36 max          24 min
Histogram: 1 5 1 0 0 2 1 1 2 3
Nghost:        2352.44 ave        2369 max        2336 min
Histogram: 1 1 3 1 2 2 2 1 1 2
Neighs:              0 ave           0 max           0 min
Histogram: 16 0 0 0 0 0 0 0 0 0

Total # of neighbors = 0
Ave neighs/atom = 0
Ave special neighs/atom = 15.567568
Neighbor list builds = 72
Dangerous builds = 0
unfix           myat1
next            cpt
jump            SELF loop
variable        zdes equal  -15+0.60*(${cpt}-1)
variable        zdes equal  -15+0.60*(7-1)
variable        zave equal xcm(H2,z)
fix             mytth2 H2 spring tether ${k1} 0.5 0.5 ${zdes} 0
fix             mytth2 H2 spring tether 2 0.5 0.5 ${zdes} 0
fix             mytth2 H2 spring tether 2 0.5 0.5 -11.4 0
run             10000
Generated 0 of 1 mixed pair_coeff terms from geometric mixing rule
Per MPI rank memory allocation (min/avg/max) = 13.35 | 14.29 | 15 Mbytes
   Step          Temp          E_pair         E_mol          TotEng         Press     
    380000   293.94339      373.08299      18552.028      19345.682     -46.511939    
    390000   278.43543      376.17259      18555.202      19329.757      192.68467    
Loop time of 2.93965 on 16 procs for 10000 steps with 481 atoms

Performance: 14.696 ns/day, 1.633 hours/ns, 3401.770 timesteps/s, 1.636 Matom-step/s
100.0% CPU use with 16 MPI tasks x 1 OpenMP threads

MPI task timing breakdown:
Section |  min time  |  avg time  |  max time  |%varavg| %total
---------------------------------------------------------------
Pair    | 0.093738   | 0.39523    | 0.66003    |  26.3 | 13.44
Bond    | 0.32489    | 0.50336    | 0.65569    |  10.8 | 17.12
Neigh   | 0.0048406  | 0.0050478  | 0.0054165  |   0.3 |  0.17
Comm    | 1.4155     | 1.8251     | 2.16       |  15.9 | 62.09
Output  | 0.00094985 | 0.0016118  | 0.0021079  |   0.9 |  0.05
Modify  | 0.077851   | 0.12335    | 0.16287    |   6.9 |  4.20
Other   |            | 0.0859     |            |       |  2.92

Nlocal:        30.0625 ave          36 max          24 min
Histogram: 1 1 1 3 1 4 2 1 0 2
Nghost:        2366.69 ave        2383 max        2352 min
Histogram: 3 2 1 0 2 1 1 4 1 1
Neighs:              0 ave           0 max           0 min
Histogram: 16 0 0 0 0 0 0 0 0 0

Total # of neighbors = 0
Ave neighs/atom = 0
Ave special neighs/atom = 15.567568
Neighbor list builds = 12
Dangerous builds = 0
fix             myat1 all ave/time 100 10 1000 v_zave v_zdes file simulation_data/abpot/${cpt}.dat
fix             myat1 all ave/time 100 10 1000 v_zave v_zdes file simulation_data/abpot/7.dat
run             50000
Generated 0 of 1 mixed pair_coeff terms from geometric mixing rule
Per MPI rank memory allocation (min/avg/max) = 13.35 | 14.29 | 15 Mbytes
   Step          Temp          E_pair         E_mol          TotEng         Press     
    390000   278.43543      376.17259      18555.202      19329.757      192.68467    
    400000   291.96028      369.13586      18514.268      19301.137     -247.42692    
    410000   306.74056      371.4011       18536.284      19346.566     -86.78462     
    420000   285.93131      376.04611      18570.322      19355.475      36.526045    
    430000   294.02972      375.40934      18499.032      19295.136     -97.010791    
    440000   307.0037       373.38163      18514.013      19326.652     -128.94325    
Loop time of 14.7673 on 16 procs for 50000 steps with 481 atoms

Performance: 14.627 ns/day, 1.641 hours/ns, 3385.848 timesteps/s, 1.629 Matom-step/s
100.0% CPU use with 16 MPI tasks x 1 OpenMP threads

MPI task timing breakdown:
Section |  min time  |  avg time  |  max time  |%varavg| %total
---------------------------------------------------------------
Pair    | 0.44943    | 1.9793     | 3.4833     |  58.7 | 13.40
Bond    | 1.7063     | 2.5229     | 3.3927     |  24.1 | 17.08
Neigh   | 0.01952    | 0.020363   | 0.021849   |   0.5 |  0.14
Comm    | 6.8434     | 9.1733     | 10.722     |  35.5 | 62.12
Output  | 0.0062679  | 0.0092437  | 0.011471   |   1.7 |  0.06
Modify  | 0.39876    | 0.6311     | 0.83132    |  15.9 |  4.27
Other   |            | 0.431      |            |       |  2.92

Nlocal:        30.0625 ave          37 max          21 min
Histogram: 1 0 2 2 1 2 3 1 2 2
Nghost:        2366.31 ave        2390 max        2341 min
Histogram: 1 0 2 2 3 3 1 3 0 1
Neighs:              0 ave           0 max           0 min
Histogram: 16 0 0 0 0 0 0 0 0 0

Total # of neighbors = 0
Ave neighs/atom = 0
Ave special neighs/atom = 15.567568
Neighbor list builds = 47
Dangerous builds = 0
unfix           myat1
next            cpt
jump            SELF loop
variable        zdes equal  -15+0.60*(${cpt}-1)
variable        zdes equal  -15+0.60*(8-1)
variable        zave equal xcm(H2,z)
fix             mytth2 H2 spring tether ${k1} 0.5 0.5 ${zdes} 0
fix             mytth2 H2 spring tether 2 0.5 0.5 ${zdes} 0
fix             mytth2 H2 spring tether 2 0.5 0.5 -10.8 0
run             10000
Generated 0 of 1 mixed pair_coeff terms from geometric mixing rule
Per MPI rank memory allocation (min/avg/max) = 13.35 | 14.29 | 15 Mbytes
   Step          Temp          E_pair         E_mol          TotEng         Press     
    440000   307.0037       373.38163      18514.013      19326.652     -128.94325    
    450000   291.37272      380.00508      18549.273      19346.171      14.315085    
Loop time of 2.92977 on 16 procs for 10000 steps with 481 atoms

Performance: 14.745 ns/day, 1.628 hours/ns, 3413.234 timesteps/s, 1.642 Matom-step/s
100.0% CPU use with 16 MPI tasks x 1 OpenMP threads

MPI task timing breakdown:
Section |  min time  |  avg time  |  max time  |%varavg| %total
---------------------------------------------------------------
Pair    | 0.095975   | 0.39483    | 0.70745    |  26.5 | 13.48
Bond    | 0.34538    | 0.50327    | 0.66982    |  11.9 | 17.18
Neigh   | 0.0033206  | 0.0034811  | 0.003727   |   0.2 |  0.12
Comm    | 1.3464     | 1.8139     | 2.138      |  16.2 | 61.91
Output  | 0.00099175 | 0.0017019  | 0.0022733  |   1.0 |  0.06
Modify  | 0.077233   | 0.1265     | 0.16643    |   7.3 |  4.32
Other   |            | 0.08605    |            |       |  2.94

Nlocal:        30.0625 ave          37 max          23 min
Histogram: 1 1 4 0 2 2 0 3 2 1
Nghost:        2362.56 ave        2376 max        2349 min
Histogram: 3 1 2 1 2 0 0 1 4 2
Neighs:              0 ave           0 max           0 min
Histogram: 16 0 0 0 0 0 0 0 0 0

Total # of neighbors = 0
Ave neighs/atom = 0
Ave special neighs/atom = 15.567568
Neighbor list builds = 8
Dangerous builds = 0
fix             myat1 all ave/time 100 10 1000 v_zave v_zdes file simulation_data/abpot/${cpt}.dat
fix             myat1 all ave/time 100 10 1000 v_zave v_zdes file simulation_data/abpot/8.dat
run             50000
Generated 0 of 1 mixed pair_coeff terms from geometric mixing rule
Per MPI rank memory allocation (min/avg/max) = 13.35 | 14.29 | 15 Mbytes
   Step          Temp          E_pair         E_mol          TotEng         Press     
    450000   291.37272      380.00508      18549.273      19346.171      14.315085    
    460000   305.98548      373.54524      18528.468      19339.814      38.666913    
    470000   304.01011      373.56065      18522.366      19330.901     -65.690724    
    480000   304.29136      368.76583      18518.214      19322.356     -185.25211    
    490000   302.4847       368.1519       18545.423      19346.367     -286.51521    
    500000   308.12765      375.42745      18539.106      19355.399      17.386989    
Loop time of 14.7274 on 16 procs for 50000 steps with 481 atoms

Performance: 14.667 ns/day, 1.636 hours/ns, 3395.025 timesteps/s, 1.633 Matom-step/s
100.0% CPU use with 16 MPI tasks x 1 OpenMP threads

MPI task timing breakdown:
Section |  min time  |  avg time  |  max time  |%varavg| %total
---------------------------------------------------------------
Pair    | 0.47998    | 1.9747     | 3.3826     |  59.5 | 13.41
Bond    | 1.4349     | 2.5174     | 3.2277     |  27.2 | 17.09
Neigh   | 0.020466   | 0.02143    | 0.022927   |   0.5 |  0.15
Comm    | 7.0705     | 9.1366     | 11.022     |  37.0 | 62.04
Output  | 0.0062964  | 0.0090262  | 0.011156   |   1.6 |  0.06
Modify  | 0.39338    | 0.63906    | 0.84097    |  16.0 |  4.34
Other   |            | 0.4292     |            |       |  2.91

Nlocal:        30.0625 ave          48 max          17 min
Histogram: 1 1 3 4 1 2 3 0 0 1
Nghost:        2374.94 ave        2401 max        2361 min
Histogram: 3 3 2 1 3 1 1 1 0 1
Neighs:              0 ave           0 max           0 min
Histogram: 16 0 0 0 0 0 0 0 0 0

Total # of neighbors = 0
Ave neighs/atom = 0
Ave special neighs/atom = 15.567568
Neighbor list builds = 49
Dangerous builds = 0
unfix           myat1
next            cpt
jump            SELF loop
variable        zdes equal  -15+0.60*(${cpt}-1)
variable        zdes equal  -15+0.60*(9-1)
variable        zave equal xcm(H2,z)
fix             mytth2 H2 spring tether ${k1} 0.5 0.5 ${zdes} 0
fix             mytth2 H2 spring tether 2 0.5 0.5 ${zdes} 0
fix             mytth2 H2 spring tether 2 0.5 0.5 -10.2 0
run             10000
Generated 0 of 1 mixed pair_coeff terms from geometric mixing rule
Per MPI rank memory allocation (min/avg/max) = 13.35 | 14.29 | 15 Mbytes
   Step          Temp          E_pair         E_mol          TotEng         Press     
    500000   308.12765      375.42745      18539.106      19355.399      17.386989    
    510000   316.41003      370.95493      18531.319      19354.99      -89.161188    
Loop time of 2.85421 on 16 procs for 10000 steps with 481 atoms

Performance: 15.136 ns/day, 1.586 hours/ns, 3503.596 timesteps/s, 1.685 Matom-step/s
100.0% CPU use with 16 MPI tasks x 1 OpenMP threads

MPI task timing breakdown:
Section |  min time  |  avg time  |  max time  |%varavg| %total
---------------------------------------------------------------
Pair    | 0.095025   | 0.37875    | 0.65531    |  25.7 | 13.27
Bond    | 0.31296    | 0.48284    | 0.64417    |  11.9 | 16.92
Neigh   | 0.0056228  | 0.005871   | 0.0062365  |   0.3 |  0.21
Comm    | 1.3684     | 1.7747     | 2.0906     |  15.7 | 62.18
Output  | 0.00091977 | 0.0015966  | 0.002091   |   0.9 |  0.06
Modify  | 0.076962   | 0.12681    | 0.16482    |   7.3 |  4.44
Other   |            | 0.0836     |            |       |  2.93

Nlocal:        30.0625 ave          43 max          20 min
Histogram: 2 0 3 4 2 0 2 0 2 1
Nghost:        2354.69 ave        2372 max        2338 min
Histogram: 2 1 1 2 3 2 1 1 0 3
Neighs:              0 ave           0 max           0 min
Histogram: 16 0 0 0 0 0 0 0 0 0

Total # of neighbors = 0
Ave neighs/atom = 0
Ave special neighs/atom = 15.567568
Neighbor list builds = 14
Dangerous builds = 0
fix             myat1 all ave/time 100 10 1000 v_zave v_zdes file simulation_data/abpot/${cpt}.dat
fix             myat1 all ave/time 100 10 1000 v_zave v_zdes file simulation_data/abpot/9.dat
run             50000
Generated 0 of 1 mixed pair_coeff terms from geometric mixing rule
Per MPI rank memory allocation (min/avg/max) = 13.35 | 14.29 | 15 Mbytes
   Step          Temp          E_pair         E_mol          TotEng         Press     
    510000   316.41003      370.95493      18531.319      19354.99      -89.161188    
    520000   293.30728      368.38574      18522.258      19310.305     -167.30508    
    530000   293.32057      379.98619      18494.415      19294.081      117.14584    
    540000   288.23954      374.2593       18547.464      19334.133     -8.4384324    
    550000   299.11091      367.50885      18556.039      19351.513     -275.34293    
    560000   290.2463       379.15378      18550.972      19345.407      11.67757     
Loop time of 13.201 on 16 procs for 50000 steps with 481 atoms

Performance: 16.362 ns/day, 1.467 hours/ns, 3787.581 timesteps/s, 1.822 Matom-step/s
100.0% CPU use with 16 MPI tasks x 1 OpenMP threads

MPI task timing breakdown:
Section |  min time  |  avg time  |  max time  |%varavg| %total
---------------------------------------------------------------
Pair    | 0.39545    | 1.6254     | 2.8692     |  54.1 | 12.31
Bond    | 1.255      | 2.074      | 2.6996     |  23.2 | 15.71
Neigh   | 0.019398   | 0.020502   | 0.022061   |   0.6 |  0.16
Comm    | 6.6414     | 8.4709     | 9.9546     |  31.2 | 64.17
Output  | 0.0054362  | 0.0078154  | 0.0096906  |   1.5 |  0.06
Modify  | 0.37732    | 0.62075    | 0.80204    |  15.6 |  4.70
Other   |            | 0.3817     |            |       |  2.89

Nlocal:        30.0625 ave          38 max          24 min
Histogram: 2 0 6 0 1 3 1 1 0 2
Nghost:        2372.31 ave        2386 max        2354 min
Histogram: 2 1 0 1 2 2 2 2 0 4
Neighs:              0 ave           0 max           0 min
Histogram: 16 0 0 0 0 0 0 0 0 0

Total # of neighbors = 0
Ave neighs/atom = 0
Ave special neighs/atom = 15.567568
Neighbor list builds = 56
Dangerous builds = 0
unfix           myat1
next            cpt
jump            SELF loop
variable        zdes equal  -15+0.60*(${cpt}-1)
variable        zdes equal  -15+0.60*(10-1)
variable        zave equal xcm(H2,z)
fix             mytth2 H2 spring tether ${k1} 0.5 0.5 ${zdes} 0
fix             mytth2 H2 spring tether 2 0.5 0.5 ${zdes} 0
fix             mytth2 H2 spring tether 2 0.5 0.5 -9.6 0
run             10000
Generated 0 of 1 mixed pair_coeff terms from geometric mixing rule
Per MPI rank memory allocation (min/avg/max) = 13.35 | 14.29 | 15 Mbytes
   Step          Temp          E_pair         E_mol          TotEng         Press     
    560000   290.2463       379.15378      18550.972      19345.407      11.67757     
    570000   301.26118      377.60668      18521.694      19330.342      133.01196    
Loop time of 2.78943 on 16 procs for 10000 steps with 481 atoms

Performance: 15.487 ns/day, 1.550 hours/ns, 3584.968 timesteps/s, 1.724 Matom-step/s
100.0% CPU use with 16 MPI tasks x 1 OpenMP threads

MPI task timing breakdown:
Section |  min time  |  avg time  |  max time  |%varavg| %total
---------------------------------------------------------------
Pair    | 0.088482   | 0.36248    | 0.64677    |  26.1 | 12.99
Bond    | 0.23876    | 0.4623     | 0.60235    |  12.8 | 16.57
Neigh   | 0.0027558  | 0.0028944  | 0.0030716  |   0.2 |  0.10
Comm    | 1.3386     | 1.7518     | 2.1219     |  16.4 | 62.80
Output  | 0.00094409 | 0.0015333  | 0.001993   |   0.8 |  0.05
Modify  | 0.074662   | 0.12686    | 0.16866    |   7.6 |  4.55
Other   |            | 0.08159    |            |       |  2.92

Nlocal:        30.0625 ave          39 max          24 min
Histogram: 2 3 1 2 3 1 1 1 0 2
Nghost:        2364.81 ave        2381 max        2351 min
Histogram: 2 1 3 0 3 2 0 2 2 1
Neighs:              0 ave           0 max           0 min
Histogram: 16 0 0 0 0 0 0 0 0 0

Total # of neighbors = 0
Ave neighs/atom = 0
Ave special neighs/atom = 15.567568
Neighbor list builds = 7
Dangerous builds = 0
fix             myat1 all ave/time 100 10 1000 v_zave v_zdes file simulation_data/abpot/${cpt}.dat
fix             myat1 all ave/time 100 10 1000 v_zave v_zdes file simulation_data/abpot/10.dat
run             50000
Generated 0 of 1 mixed pair_coeff terms from geometric mixing rule
Per MPI rank memory allocation (min/avg/max) = 13.35 | 14.29 | 15 Mbytes
   Step          Temp          E_pair         E_mol          TotEng         Press     
    570000   301.26118      377.60668      18521.694      19330.342      133.01196    
    580000   285.66259      364.5937       18551.662      19324.979     -394.1717     
    590000   315.8619       377.62172      18557.8        19387.354     -75.875527    
    600000   327.00153      383.23213      18518.564      19369.666      304.75818    
    610000   299.33972      369.03011      18534.702      19332.024     -243.83953    
    620000   289.21823      366.95185      18536.835      19317.597     -279.78258    
Loop time of 14.7187 on 16 procs for 50000 steps with 481 atoms

Performance: 14.675 ns/day, 1.635 hours/ns, 3397.045 timesteps/s, 1.634 Matom-step/s
100.0% CPU use with 16 MPI tasks x 1 OpenMP threads

MPI task timing breakdown:
Section |  min time  |  avg time  |  max time  |%varavg| %total
---------------------------------------------------------------
Pair    | 0.42257    | 1.9748     | 3.4754     |  60.3 | 13.42
Bond    | 1.3138     | 2.5148     | 3.3486     |  28.1 | 17.09
Neigh   | 0.021965   | 0.022812   | 0.02416    |   0.5 |  0.15
Comm    | 6.8457     | 9.1299     | 11.175     |  38.4 | 62.03
Output  | 0.0063318  | 0.0090541  | 0.011178   |   1.6 |  0.06
Modify  | 0.39489    | 0.63934    | 0.83411    |  15.9 |  4.34
Other   |            | 0.4279     |            |       |  2.91

Nlocal:        30.0625 ave          40 max          19 min
Histogram: 1 3 1 2 1 1 0 3 1 3
Nghost:        2354.31 ave        2381 max        2322 min
Histogram: 1 1 0 1 3 5 2 1 0 2
Neighs:              0 ave           0 max           0 min
Histogram: 16 0 0 0 0 0 0 0 0 0

Total # of neighbors = 0
Ave neighs/atom = 0
Ave special neighs/atom = 15.567568
Neighbor list builds = 51
Dangerous builds = 0
unfix           myat1
next            cpt
jump            SELF loop
variable        zdes equal  -15+0.60*(${cpt}-1)
variable        zdes equal  -15+0.60*(11-1)
variable        zave equal xcm(H2,z)
fix             mytth2 H2 spring tether ${k1} 0.5 0.5 ${zdes} 0
fix             mytth2 H2 spring tether 2 0.5 0.5 ${zdes} 0
fix             mytth2 H2 spring tether 2 0.5 0.5 -9 0
run             10000
Generated 0 of 1 mixed pair_coeff terms from geometric mixing rule
Per MPI rank memory allocation (min/avg/max) = 13.35 | 14.3 | 15 Mbytes
   Step          Temp          E_pair         E_mol          TotEng         Press     
    620000   289.21823      366.95185      18536.835      19317.597     -279.78258    
    630000   324.79961      389.25369      18530.835      19384.808      334.00934    
Loop time of 2.97652 on 16 procs for 10000 steps with 481 atoms

Performance: 14.514 ns/day, 1.654 hours/ns, 3359.625 timesteps/s, 1.616 Matom-step/s
100.0% CPU use with 16 MPI tasks x 1 OpenMP threads

MPI task timing breakdown:
Section |  min time  |  avg time  |  max time  |%varavg| %total
---------------------------------------------------------------
Pair    | 0.077508   | 0.39455    | 0.66538    |  26.2 | 13.26
Bond    | 0.2815     | 0.50199    | 0.66367    |  12.2 | 16.87
Neigh   | 0.0049829  | 0.0051997  | 0.0055176  |   0.2 |  0.17
Comm    | 1.4383     | 1.8583     | 2.2421     |  16.2 | 62.43
Output  | 0.00098608 | 0.001667   | 0.0021768  |   0.9 |  0.06
Modify  | 0.077272   | 0.12895    | 0.16974    |   7.4 |  4.33
Other   |            | 0.08585    |            |       |  2.88

Nlocal:        30.0625 ave          39 max          21 min
Histogram: 1 2 1 3 0 3 3 0 2 1
Nghost:        2373.44 ave        2392 max        2347 min
Histogram: 1 0 0 0 6 4 1 0 1 3
Neighs:              0 ave           0 max           0 min
Histogram: 16 0 0 0 0 0 0 0 0 0

Total # of neighbors = 0
Ave neighs/atom = 0
Ave special neighs/atom = 15.567568
Neighbor list builds = 12
Dangerous builds = 0
fix             myat1 all ave/time 100 10 1000 v_zave v_zdes file simulation_data/abpot/${cpt}.dat
fix             myat1 all ave/time 100 10 1000 v_zave v_zdes file simulation_data/abpot/11.dat
run             50000
Generated 0 of 1 mixed pair_coeff terms from geometric mixing rule
Per MPI rank memory allocation (min/avg/max) = 13.35 | 14.3 | 15 Mbytes
   Step          Temp          E_pair         E_mol          TotEng         Press     
    630000   324.79961      389.25369      18530.835      19384.808      334.00934    
    640000   309.31365      382.55486      18558.209      19383.327      121.64944    
    650000   296.9152       364.75323      18556.027      19345.603     -195.18671    
    660000   295.47249      367.1723       18524.543      19314.474     -193.32117    
    670000   293.62402      376.30945      18509.107      19305.531      33.696622    
    680000   296.74782      377.99164      18519.59       19322.165      95.470134    
Loop time of 14.8278 on 16 procs for 50000 steps with 481 atoms

Performance: 14.567 ns/day, 1.648 hours/ns, 3372.038 timesteps/s, 1.622 Matom-step/s
100.0% CPU use with 16 MPI tasks x 1 OpenMP threads

MPI task timing breakdown:
Section |  min time  |  avg time  |  max time  |%varavg| %total
---------------------------------------------------------------
Pair    | 0.36045    | 1.9794     | 3.4509     |  58.0 | 13.35
Bond    | 1.4102     | 2.5183     | 3.3155     |  25.4 | 16.98
Neigh   | 0.021733   | 0.022772   | 0.024415   |   0.6 |  0.15
Comm    | 6.9985     | 9.2192     | 11.166     |  35.7 | 62.18
Output  | 0.0063085  | 0.0090767  | 0.011233   |   1.6 |  0.06
Modify  | 0.40149    | 0.64648    | 0.85469    |  16.1 |  4.36
Other   |            | 0.4325     |            |       |  2.92

Nlocal:        30.0625 ave          36 max          24 min
Histogram: 1 0 4 1 1 4 2 1 0 2
Nghost:        2381.69 ave        2397 max        2365 min
Histogram: 2 2 0 3 1 2 1 0 2 3
Neighs:              0 ave           0 max           0 min
Histogram: 16 0 0 0 0 0 0 0 0 0

Total # of neighbors = 0
Ave neighs/atom = 0
Ave special neighs/atom = 15.567568
Neighbor list builds = 53
Dangerous builds = 0
unfix           myat1
next            cpt
jump            SELF loop
variable        zdes equal  -15+0.60*(${cpt}-1)
variable        zdes equal  -15+0.60*(12-1)
variable        zave equal xcm(H2,z)
fix             mytth2 H2 spring tether ${k1} 0.5 0.5 ${zdes} 0
fix             mytth2 H2 spring tether 2 0.5 0.5 ${zdes} 0
fix             mytth2 H2 spring tether 2 0.5 0.5 -8.4 0
run             10000
Generated 0 of 1 mixed pair_coeff terms from geometric mixing rule
Per MPI rank memory allocation (min/avg/max) = 13.35 | 14.3 | 15 Mbytes
   Step          Temp          E_pair         E_mol          TotEng         Press     
    680000   296.74782      377.99164      18519.59       19322.165      95.470134    
    690000   308.36167      370.26741      18538.86       19350.328     -147.63646    
Loop time of 2.9886 on 16 procs for 10000 steps with 481 atoms

Performance: 14.455 ns/day, 1.660 hours/ns, 3346.046 timesteps/s, 1.609 Matom-step/s
100.0% CPU use with 16 MPI tasks x 1 OpenMP threads

MPI task timing breakdown:
Section |  min time  |  avg time  |  max time  |%varavg| %total
---------------------------------------------------------------
Pair    | 0.071541   | 0.39574    | 0.70616    |  27.8 | 13.24
Bond    | 0.26273    | 0.50369    | 0.66889    |  13.0 | 16.85
Neigh   | 0.0050034  | 0.0052047  | 0.0055594  |   0.3 |  0.17
Comm    | 1.405      | 1.8771     | 2.3147     |  17.2 | 62.81
Output  | 0.00098741 | 0.0016749  | 0.00219    |   0.9 |  0.06
Modify  | 0.080541   | 0.11936    | 0.15942    |   6.9 |  3.99
Other   |            | 0.08586    |            |       |  2.87

Nlocal:        30.0625 ave          41 max          18 min
Histogram: 2 1 0 3 2 1 1 3 1 2
Nghost:        2373.44 ave        2395 max        2356 min
Histogram: 3 0 1 4 1 2 3 0 1 1
Neighs:              0 ave           0 max           0 min
Histogram: 16 0 0 0 0 0 0 0 0 0

Total # of neighbors = 0
Ave neighs/atom = 0
Ave special neighs/atom = 15.567568
Neighbor list builds = 12
Dangerous builds = 0
fix             myat1 all ave/time 100 10 1000 v_zave v_zdes file simulation_data/abpot/${cpt}.dat
fix             myat1 all ave/time 100 10 1000 v_zave v_zdes file simulation_data/abpot/12.dat
run             50000
Generated 0 of 1 mixed pair_coeff terms from geometric mixing rule
Per MPI rank memory allocation (min/avg/max) = 13.35 | 14.3 | 15 Mbytes
   Step          Temp          E_pair         E_mol          TotEng         Press     
    690000   308.36167      370.26741      18538.86       19350.328     -147.63646    
    700000   309.6998       370.8849       18533.577      19347.577     -206.26122    
    710000   296.43531      366.62303      18525.122      19315.881     -253.03064    
    720000   295.56757      378.55597      18526.487      19327.938      39.678321    
    730000   309.77472      370.62338      18548.164      19362.009     -146.43247    
    740000   302.07439      367.87396      18574.647      19374.725     -264.68309    
Loop time of 15.0996 on 16 procs for 50000 steps with 481 atoms

Performance: 14.305 ns/day, 1.678 hours/ns, 3311.344 timesteps/s, 1.593 Matom-step/s
100.0% CPU use with 16 MPI tasks x 1 OpenMP threads

MPI task timing breakdown:
Section |  min time  |  avg time  |  max time  |%varavg| %total
---------------------------------------------------------------
Pair    | 0.40366    | 1.9819     | 3.6016     |  58.7 | 13.13
Bond    | 1.4083     | 2.5195     | 3.495      |  27.4 | 16.69
Neigh   | 0.02603    | 0.027304   | 0.029162   |   0.6 |  0.18
Comm    | 6.9479     | 9.4884     | 11.498     |  36.2 | 62.84
Output  | 0.006251   | 0.0090023  | 0.011139   |   1.6 |  0.06
Modify  | 0.39824    | 0.64349    | 0.84785    |  16.1 |  4.26
Other   |            | 0.4301     |            |       |  2.85

Nlocal:        30.0625 ave          37 max          22 min
Histogram: 2 0 0 1 5 0 3 1 3 1
Nghost:        2361.44 ave        2385 max        2342 min
Histogram: 1 1 3 1 4 2 1 2 0 1
Neighs:              0 ave           0 max           0 min
Histogram: 16 0 0 0 0 0 0 0 0 0

Total # of neighbors = 0
Ave neighs/atom = 0
Ave special neighs/atom = 15.567568
Neighbor list builds = 62
Dangerous builds = 0
unfix           myat1
next            cpt
jump            SELF loop
variable        zdes equal  -15+0.60*(${cpt}-1)
variable        zdes equal  -15+0.60*(13-1)
variable        zave equal xcm(H2,z)
fix             mytth2 H2 spring tether ${k1} 0.5 0.5 ${zdes} 0
fix             mytth2 H2 spring tether 2 0.5 0.5 ${zdes} 0
fix             mytth2 H2 spring tether 2 0.5 0.5 -7.8 0
run             10000
Generated 0 of 1 mixed pair_coeff terms from geometric mixing rule
Per MPI rank memory allocation (min/avg/max) = 13.35 | 14.3 | 15 Mbytes
   Step          Temp          E_pair         E_mol          TotEng         Press     
    740000   302.07439      367.87396      18574.647      19374.725     -264.68309    
    750000   318.93172      378.78671      18536.538      19371.649     -15.461457    
Loop time of 3.08008 on 16 procs for 10000 steps with 481 atoms

Performance: 14.026 ns/day, 1.711 hours/ns, 3246.665 timesteps/s, 1.562 Matom-step/s
100.0% CPU use with 16 MPI tasks x 1 OpenMP threads

MPI task timing breakdown:
Section |  min time  |  avg time  |  max time  |%varavg| %total
---------------------------------------------------------------
Pair    | 0.075532   | 0.39886    | 0.73677    |  26.7 | 12.95
Bond    | 0.29269    | 0.50728    | 0.73353    |  12.5 | 16.47
Neigh   | 0.0047442  | 0.0049168  | 0.0052168  |   0.2 |  0.16
Comm    | 1.4        | 1.9527     | 2.3508     |  16.0 | 63.40
Output  | 0.00096243 | 0.0016173  | 0.0021428  |   0.9 |  0.05
Modify  | 0.078802   | 0.12779    | 0.17076    |   7.4 |  4.15
Other   |            | 0.08697    |            |       |  2.82

Nlocal:        30.0625 ave          40 max          23 min
Histogram: 2 2 3 2 1 3 0 1 1 1
Nghost:        2366.31 ave        2385 max        2353 min
Histogram: 2 2 1 3 2 2 2 0 0 2
Neighs:              0 ave           0 max           0 min
Histogram: 16 0 0 0 0 0 0 0 0 0

Total # of neighbors = 0
Ave neighs/atom = 0
Ave special neighs/atom = 15.567568
Neighbor list builds = 11
Dangerous builds = 0
fix             myat1 all ave/time 100 10 1000 v_zave v_zdes file simulation_data/abpot/${cpt}.dat
fix             myat1 all ave/time 100 10 1000 v_zave v_zdes file simulation_data/abpot/13.dat
run             50000
Generated 0 of 1 mixed pair_coeff terms from geometric mixing rule
Per MPI rank memory allocation (min/avg/max) = 13.35 | 14.3 | 15 Mbytes
   Step          Temp          E_pair         E_mol          TotEng         Press     
    750000   318.93172      378.78671      18536.538      19371.649     -15.461457    
    760000   285.06797      370.00412      18557.748      19335.624     -176.43763    
    770000   306.08205      379.6857       18520.336      19337.96       150.69106    
    780000   299.22121      369.52489      18544.159      19341.806     -205.20419    
    790000   316.22129      374.45553      18546.149      19373.051     -139.59385    
    800000   318.51372      375.01626      18547.506      19378.248      196.24145    
Loop time of 15.0698 on 16 procs for 50000 steps with 481 atoms

Performance: 14.333 ns/day, 1.674 hours/ns, 3317.885 timesteps/s, 1.596 Matom-step/s
100.0% CPU use with 16 MPI tasks x 1 OpenMP threads

MPI task timing breakdown:
Section |  min time  |  avg time  |  max time  |%varavg| %total
---------------------------------------------------------------
Pair    | 0.36881    | 1.9798     | 3.6581     |  57.8 | 13.14
Bond    | 1.4513     | 2.5174     | 3.5751     |  26.7 | 16.71
Neigh   | 0.028193   | 0.029511   | 0.031576   |   0.6 |  0.20
Comm    | 6.7849     | 9.4668     | 11.402     |  35.7 | 62.82
Output  | 0.0062883  | 0.0091015  | 0.011303   |   1.6 |  0.06
Modify  | 0.39524    | 0.63817    | 0.83942    |  16.0 |  4.23
Other   |            | 0.429      |            |       |  2.85

Nlocal:        30.0625 ave          37 max          24 min
Histogram: 2 1 3 2 1 0 4 0 1 2
Nghost:        2361.81 ave        2376 max        2344 min
Histogram: 1 2 1 0 2 3 0 2 3 2
Neighs:              0 ave           0 max           0 min
Histogram: 16 0 0 0 0 0 0 0 0 0

Total # of neighbors = 0
Ave neighs/atom = 0
Ave special neighs/atom = 15.567568
Neighbor list builds = 66
Dangerous builds = 0
unfix           myat1
next            cpt
jump            SELF loop
variable        zdes equal  -15+0.60*(${cpt}-1)
variable        zdes equal  -15+0.60*(14-1)
variable        zave equal xcm(H2,z)
fix             mytth2 H2 spring tether ${k1} 0.5 0.5 ${zdes} 0
fix             mytth2 H2 spring tether 2 0.5 0.5 ${zdes} 0
fix             mytth2 H2 spring tether 2 0.5 0.5 -7.2 0
run             10000
Generated 0 of 1 mixed pair_coeff terms from geometric mixing rule
Per MPI rank memory allocation (min/avg/max) = 13.35 | 14.32 | 15 Mbytes
   Step          Temp          E_pair         E_mol          TotEng         Press     
    800000   318.51372      375.01626      18547.506      19378.248      196.24145    
    810000   303.35957      392.53927      18552.781      19379.364     -114.80484    
Loop time of 2.98572 on 16 procs for 10000 steps with 481 atoms

Performance: 14.469 ns/day, 1.659 hours/ns, 3349.275 timesteps/s, 1.611 Matom-step/s
100.0% CPU use with 16 MPI tasks x 1 OpenMP threads

MPI task timing breakdown:
Section |  min time  |  avg time  |  max time  |%varavg| %total
---------------------------------------------------------------
Pair    | 0.077206   | 0.39927    | 0.70018    |  25.8 | 13.37
Bond    | 0.27083    | 0.50474    | 0.70028    |  12.3 | 16.91
Neigh   | 0.0086941  | 0.0091403  | 0.0097836  |   0.4 |  0.31
Comm    | 1.3731     | 1.8603     | 2.2747     |  16.3 | 62.31
Output  | 0.00096074 | 0.001642   | 0.0021645  |   0.9 |  0.05
Modify  | 0.077457   | 0.12452    | 0.16519    |   7.2 |  4.17
Other   |            | 0.08606    |            |       |  2.88

Nlocal:        30.0625 ave          36 max          26 min
Histogram: 4 1 0 3 1 1 2 2 0 2
Nghost:        2354.31 ave        2375 max        2339 min
Histogram: 3 2 0 4 1 2 0 1 2 1
Neighs:              0 ave           0 max           0 min
Histogram: 16 0 0 0 0 0 0 0 0 0

Total # of neighbors = 0
Ave neighs/atom = 0
Ave special neighs/atom = 15.567568
Neighbor list builds = 21
Dangerous builds = 0
fix             myat1 all ave/time 100 10 1000 v_zave v_zdes file simulation_data/abpot/${cpt}.dat
fix             myat1 all ave/time 100 10 1000 v_zave v_zdes file simulation_data/abpot/14.dat
run             50000
Generated 0 of 1 mixed pair_coeff terms from geometric mixing rule
Per MPI rank memory allocation (min/avg/max) = 13.35 | 14.32 | 15 Mbytes
   Step          Temp          E_pair         E_mol          TotEng         Press     
    810000   303.35957      392.53927      18552.781      19379.364     -114.80484    
    820000   301.16103      397.13089      18530.814      19358.843      113.86338    
    830000   302.2472       391.70016      18547.855      19372.007     -86.156441    
    840000   270.6915       394.84265      18534.734      19316.879     -36.667636    
    850000   287.56563      395.98285      18543.112      19350.541      187.44124    
    860000   304.15825      394.2865       18534.588      19364.061     -49.690063    
Loop time of 15.076 on 16 procs for 50000 steps with 481 atoms

Performance: 14.327 ns/day, 1.675 hours/ns, 3316.532 timesteps/s, 1.595 Matom-step/s
100.0% CPU use with 16 MPI tasks x 1 OpenMP threads

MPI task timing breakdown:
Section |  min time  |  avg time  |  max time  |%varavg| %total
---------------------------------------------------------------
Pair    | 0.37932    | 2.0041     | 3.2726     |  58.5 | 13.29
Bond    | 1.5331     | 2.5266     | 3.2554     |  23.1 | 16.76
Neigh   | 0.058742   | 0.06144    | 0.065871   |   0.9 |  0.41
Comm    | 7.4423     | 9.4075     | 11.233     |  35.2 | 62.40
Output  | 0.00639    | 0.0092796  | 0.011511   |   1.6 |  0.06
Modify  | 0.41016    | 0.63496    | 0.82587    |  15.3 |  4.21
Other   |            | 0.4322     |            |       |  2.87

Nlocal:        30.0625 ave          42 max          17 min
Histogram: 1 0 3 1 3 1 3 0 2 2
Nghost:        2364.06 ave        2388 max        2338 min
Histogram: 2 0 0 1 7 0 1 2 2 1
Neighs:              0 ave           0 max           0 min
Histogram: 16 0 0 0 0 0 0 0 0 0

Total # of neighbors = 0
Ave neighs/atom = 0
Ave special neighs/atom = 15.567568
Neighbor list builds = 139
Dangerous builds = 0
unfix           myat1
next            cpt
jump            SELF loop
variable        zdes equal  -15+0.60*(${cpt}-1)
variable        zdes equal  -15+0.60*(15-1)
variable        zave equal xcm(H2,z)
fix             mytth2 H2 spring tether ${k1} 0.5 0.5 ${zdes} 0
fix             mytth2 H2 spring tether 2 0.5 0.5 ${zdes} 0
fix             mytth2 H2 spring tether 2 0.5 0.5 -6.6 0
run             10000
Generated 0 of 1 mixed pair_coeff terms from geometric mixing rule
Per MPI rank memory allocation (min/avg/max) = 13.35 | 14.33 | 15 Mbytes
   Step          Temp          E_pair         E_mol          TotEng         Press     
    860000   304.15825      394.2865       18534.588      19364.061     -49.690063    
    870000   307.59301      383.40775      18524.885      19348.394     -404.39981    
Loop time of 2.99106 on 16 procs for 10000 steps with 481 atoms

Performance: 14.443 ns/day, 1.662 hours/ns, 3343.299 timesteps/s, 1.608 Matom-step/s
100.0% CPU use with 16 MPI tasks x 1 OpenMP threads

MPI task timing breakdown:
Section |  min time  |  avg time  |  max time  |%varavg| %total
---------------------------------------------------------------
Pair    | 0.077083   | 0.40084    | 0.65314    |  26.7 | 13.40
Bond    | 0.27341    | 0.50419    | 0.64229    |  11.4 | 16.86
Neigh   | 0.01095    | 0.011459   | 0.012262   |   0.4 |  0.38
Comm    | 1.4743     | 1.8642     | 2.2746     |  16.6 | 62.33
Output  | 0.0010503  | 0.0017656  | 0.002314   |   0.9 |  0.06
Modify  | 0.085628   | 0.12252    | 0.15961    |   6.3 |  4.10
Other   |            | 0.08606    |            |       |  2.88

Nlocal:        30.0625 ave          45 max          18 min
Histogram: 1 2 4 0 2 0 5 1 0 1
Nghost:        2352.44 ave        2376 max        2331 min
Histogram: 1 1 1 3 3 3 1 0 2 1
Neighs:              0 ave           0 max           0 min
Histogram: 16 0 0 0 0 0 0 0 0 0

Total # of neighbors = 0
Ave neighs/atom = 0
Ave special neighs/atom = 15.567568
Neighbor list builds = 26
Dangerous builds = 0
fix             myat1 all ave/time 100 10 1000 v_zave v_zdes file simulation_data/abpot/${cpt}.dat
fix             myat1 all ave/time 100 10 1000 v_zave v_zdes file simulation_data/abpot/15.dat
run             50000
Generated 0 of 1 mixed pair_coeff terms from geometric mixing rule
Per MPI rank memory allocation (min/avg/max) = 13.35 | 14.33 | 15 Mbytes
   Step          Temp          E_pair         E_mol          TotEng         Press     
    870000   307.59301      383.40775      18524.885      19348.394     -404.39981    
    880000   294.24118      399.9744       18500.666      19321.637      119.50333    
    890000   296.08402      398.39038      18514.993      19337.017      157.02846    
    900000   305.3998       394.83061      18529.351      19361.144     -29.370236    
    910000   298.12317      396.86146      18558.013      19381.426      79.357023    
    920000   296.7773       400.34201      18536.704      19361.671      130.77832    
Loop time of 15.2022 on 16 procs for 50000 steps with 481 atoms

Performance: 14.208 ns/day, 1.689 hours/ns, 3288.998 timesteps/s, 1.582 Matom-step/s
100.0% CPU use with 16 MPI tasks x 1 OpenMP threads

MPI task timing breakdown:
Section |  min time  |  avg time  |  max time  |%varavg| %total
---------------------------------------------------------------
Pair    | 0.37609    | 2.0057     | 3.41       |  60.1 | 13.19
Bond    | 1.4599     | 2.5238     | 3.3198     |  28.0 | 16.60
Neigh   | 0.056667   | 0.05931    | 0.063454   |   0.9 |  0.39
Comm    | 7.383      | 9.5496     | 11.478     |  38.1 | 62.82
Output  | 0.0063618  | 0.0091257  | 0.011298   |   1.6 |  0.06
Modify  | 0.40793    | 0.62592    | 0.80818    |  15.0 |  4.12
Other   |            | 0.4288     |            |       |  2.82

Nlocal:        30.0625 ave          39 max          17 min
Histogram: 1 0 0 0 3 5 2 3 1 1
Nghost:        2373.06 ave        2390 max        2360 min
Histogram: 3 3 0 0 2 1 3 2 1 1
Neighs:              0 ave           0 max           0 min
Histogram: 16 0 0 0 0 0 0 0 0 0

Total # of neighbors = 0
Ave neighs/atom = 0
Ave special neighs/atom = 15.567568
Neighbor list builds = 132
Dangerous builds = 0
unfix           myat1
next            cpt
jump            SELF loop
variable        zdes equal  -15+0.60*(${cpt}-1)
variable        zdes equal  -15+0.60*(16-1)
variable        zave equal xcm(H2,z)
fix             mytth2 H2 spring tether ${k1} 0.5 0.5 ${zdes} 0
fix             mytth2 H2 spring tether 2 0.5 0.5 ${zdes} 0
fix             mytth2 H2 spring tether 2 0.5 0.5 -6 0
run             10000
Generated 0 of 1 mixed pair_coeff terms from geometric mixing rule
Per MPI rank memory allocation (min/avg/max) = 13.35 | 14.33 | 15 Mbytes
   Step          Temp          E_pair         E_mol          TotEng         Press     
    920000   296.7773       400.34201      18536.704      19361.671      130.77832    
    930000   291.30727      386.9454       18537.648      19341.392     -162.78253    
Loop time of 2.92543 on 16 procs for 10000 steps with 481 atoms

Performance: 14.767 ns/day, 1.625 hours/ns, 3418.300 timesteps/s, 1.644 Matom-step/s
100.0% CPU use with 16 MPI tasks x 1 OpenMP threads

MPI task timing breakdown:
Section |  min time  |  avg time  |  max time  |%varavg| %total
---------------------------------------------------------------
Pair    | 0.072681   | 0.40154    | 0.66689    |  27.0 | 13.73
Bond    | 0.29725    | 0.50467    | 0.63502    |  12.4 | 17.25
Neigh   | 0.010256   | 0.010772   | 0.011576   |   0.4 |  0.37
Comm    | 1.4456     | 1.8        | 2.1787     |  17.7 | 61.53
Output  | 0.00097132 | 0.0016548  | 0.0021563  |   0.9 |  0.06
Modify  | 0.079833   | 0.1209     | 0.15738    |   6.8 |  4.13
Other   |            | 0.08589    |            |       |  2.94

Nlocal:        30.0625 ave          39 max          18 min
Histogram: 1 0 1 0 3 3 3 4 0 1
Nghost:        2368.94 ave        2384 max        2355 min
Histogram: 3 1 3 0 1 0 4 1 1 2
Neighs:              0 ave           0 max           0 min
Histogram: 16 0 0 0 0 0 0 0 0 0

Total # of neighbors = 0
Ave neighs/atom = 0
Ave special neighs/atom = 15.567568
Neighbor list builds = 25
Dangerous builds = 0
fix             myat1 all ave/time 100 10 1000 v_zave v_zdes file simulation_data/abpot/${cpt}.dat
fix             myat1 all ave/time 100 10 1000 v_zave v_zdes file simulation_data/abpot/16.dat
run             50000
Generated 0 of 1 mixed pair_coeff terms from geometric mixing rule
Per MPI rank memory allocation (min/avg/max) = 13.35 | 14.34 | 15 Mbytes
   Step          Temp          E_pair         E_mol          TotEng         Press     
    930000   291.30727      386.9454       18537.648      19341.392     -162.78253    
    940000   289.26353      391.27019      18493.684      19298.83      -93.486385    
    950000   306.77757      390.82144      18538.28       19368.035     -16.432792    
    960000   301.38912      389.58675      18549.209      19370.02      -124.89711    
    970000   288.98498      387.54842      18522.284      19323.309     -93.089818    
    980000   290.83774      390.79651      18513.889      19320.813     -59.74459     
Loop time of 15.1283 on 16 procs for 50000 steps with 481 atoms

Performance: 14.278 ns/day, 1.681 hours/ns, 3305.060 timesteps/s, 1.590 Matom-step/s
100.0% CPU use with 16 MPI tasks x 1 OpenMP threads

MPI task timing breakdown:
Section |  min time  |  avg time  |  max time  |%varavg| %total
---------------------------------------------------------------
Pair    | 0.35009    | 2.0072     | 3.2784     |  59.4 | 13.27
Bond    | 1.3808     | 2.524      | 3.3335     |  28.2 | 16.68
Neigh   | 0.050496   | 0.052691   | 0.056309   |   0.8 |  0.35
Comm    | 7.4197     | 9.4735     | 11.47      |  37.6 | 62.62
Output  | 0.0063786  | 0.009198   | 0.011395   |   1.6 |  0.06
Modify  | 0.42004    | 0.63075    | 0.82149    |  15.2 |  4.17
Other   |            | 0.431      |            |       |  2.85

Nlocal:        30.0625 ave          41 max          22 min
Histogram: 2 2 1 4 1 2 1 1 1 1
Nghost:        2375.31 ave        2402 max        2354 min
Histogram: 1 1 0 7 2 2 1 1 0 1
Neighs:              0 ave           0 max           0 min
Histogram: 16 0 0 0 0 0 0 0 0 0

Total # of neighbors = 0
Ave neighs/atom = 0
Ave special neighs/atom = 15.567568
Neighbor list builds = 117
Dangerous builds = 0
unfix           myat1
next            cpt
jump            SELF loop
variable        zdes equal  -15+0.60*(${cpt}-1)
variable        zdes equal  -15+0.60*(17-1)
variable        zave equal xcm(H2,z)
fix             mytth2 H2 spring tether ${k1} 0.5 0.5 ${zdes} 0
fix             mytth2 H2 spring tether 2 0.5 0.5 ${zdes} 0
fix             mytth2 H2 spring tether 2 0.5 0.5 -5.4 0
run             10000
Generated 0 of 1 mixed pair_coeff terms from geometric mixing rule
Per MPI rank memory allocation (min/avg/max) = 13.35 | 14.34 | 15 Mbytes
   Step          Temp          E_pair         E_mol          TotEng         Press     
    980000   290.83774      390.79651      18513.889      19320.813     -59.74459     
    990000   304.77467      380.26438      18533.673      19350.006     -444.75672    
Loop time of 2.95554 on 16 procs for 10000 steps with 481 atoms

Performance: 14.617 ns/day, 1.642 hours/ns, 3383.480 timesteps/s, 1.627 Matom-step/s
100.0% CPU use with 16 MPI tasks x 1 OpenMP threads

MPI task timing breakdown:
Section |  min time  |  avg time  |  max time  |%varavg| %total
---------------------------------------------------------------
Pair    | 0.069963   | 0.40156    | 0.65286    |  26.5 | 13.59
Bond    | 0.30987    | 0.50493    | 0.67939    |  12.2 | 17.08
Neigh   | 0.0087573  | 0.0091421  | 0.0097655  |   0.3 |  0.31
Comm    | 1.4225     | 1.8287     | 2.1876     |  16.8 | 61.87
Output  | 0.0010171  | 0.0017344  | 0.0022576  |   0.9 |  0.06
Modify  | 0.081095   | 0.12347    | 0.16167    |   7.0 |  4.18
Other   |            | 0.08605    |            |       |  2.91

Nlocal:        30.0625 ave          39 max          22 min
Histogram: 2 0 0 4 3 3 1 2 0 1
Nghost:        2358.81 ave        2374 max        2343 min
Histogram: 2 1 2 1 4 0 0 1 4 1
Neighs:              0 ave           0 max           0 min
Histogram: 16 0 0 0 0 0 0 0 0 0

[...]
100.0% CPU use with 16 MPI tasks x 1 OpenMP threads

MPI task timing breakdown:
Section |  min time  |  avg time  |  max time  |%varavg| %total
---------------------------------------------------------------
Pair    | 0.071887   | 0.39643    | 0.62647    |  27.1 | 13.73
Bond    | 0.34074    | 0.50476    | 0.69223    |  10.9 | 17.48
Neigh   | 0.0053662  | 0.0056078  | 0.005995   |   0.3 |  0.19
Comm    | 1.356      | 1.7638     | 2.0847     |  16.0 | 61.08
Output  | 0.00099355 | 0.0016756  | 0.002197   |   0.9 |  0.06
Modify  | 0.081811   | 0.12939    | 0.16916    |   7.1 |  4.48
Other   |            | 0.08593    |            |       |  2.98

Nlocal:        30.0625 ave          37 max          23 min
Histogram: 1 0 4 1 2 3 0 2 2 1
Nghost:        2358.44 ave        2381 max        2341 min
Histogram: 4 0 3 1 2 0 2 0 3 1
Neighs:              0 ave           0 max           0 min
Histogram: 16 0 0 0 0 0 0 0 0 0

Total # of neighbors = 0
Ave neighs/atom = 0
Ave special neighs/atom = 15.567568
Neighbor list builds = 13
Dangerous builds = 0
fix             myat1 all ave/time 100 10 1000 v_zave v_zdes file simulation_data/abpot/${cpt}.dat
fix             myat1 all ave/time 100 10 1000 v_zave v_zdes file simulation_data/abpot/47.dat
run             50000
Generated 0 of 1 mixed pair_coeff terms from geometric mixing rule
Per MPI rank memory allocation (min/avg/max) = 13.36 | 14.4 | 15 Mbytes
   Step          Temp          E_pair         E_mol          TotEng         Press     
   2790000   287.12167      366.2147       18514.598      19291.623     -194.31788    
   2800000   293.17289      367.63569      18527.219      19314.323     -93.310364    
   2810000   293.00128      371.41763      18545.033      19335.674     -51.613481    
   2820000   306.67812      373.47776      18519.253      19331.522     -56.338477    
   2830000   300.77916      374.26628      18495.828      19300.445      106.10785    
   2840000   293.29562      372.69128      18514.237      19306.572     -59.969507    
Loop time of 15.0963 on 16 procs for 50000 steps with 481 atoms

Performance: 14.308 ns/day, 1.677 hours/ns, 3312.075 timesteps/s, 1.593 Matom-step/s
100.0% CPU use with 16 MPI tasks x 1 OpenMP threads

MPI task timing breakdown:
Section |  min time  |  avg time  |  max time  |%varavg| %total
---------------------------------------------------------------
Pair    | 0.3906     | 1.9843     | 3.3941     |  62.1 | 13.14
Bond    | 1.4643     | 2.5329     | 3.23       |  23.7 | 16.78
Neigh   | 0.035556   | 0.037174   | 0.039802   |   0.7 |  0.25
Comm    | 7.8311     | 9.4558     | 11.379     |  35.3 | 62.64
Output  | 0.0063714  | 0.0095195  | 0.01211    |   1.9 |  0.06
Modify  | 0.43886    | 0.64537    | 0.83522    |  14.3 |  4.28
Other   |            | 0.4313     |            |       |  2.86

Nlocal:        30.0625 ave          40 max          20 min
Histogram: 1 1 0 2 4 3 1 1 2 1
Nghost:        2371.19 ave        2390 max        2358 min
Histogram: 4 1 1 1 3 2 0 1 1 2
Neighs:              0 ave           0 max           0 min
Histogram: 16 0 0 0 0 0 0 0 0 0

Total # of neighbors = 0
Ave neighs/atom = 0
Ave special neighs/atom = 15.567568
Neighbor list builds = 82
Dangerous builds = 0
unfix           myat1
next            cpt
jump            SELF loop
variable        zdes equal  -15+0.60*(${cpt}-1)
variable        zdes equal  -15+0.60*(48-1)
variable        zave equal xcm(H2,z)
fix             mytth2 H2 spring tether ${k1} 0.5 0.5 ${zdes} 0
fix             mytth2 H2 spring tether 2 0.5 0.5 ${zdes} 0
fix             mytth2 H2 spring tether 2 0.5 0.5 13.2 0
run             10000
Generated 0 of 1 mixed pair_coeff terms from geometric mixing rule
Per MPI rank memory allocation (min/avg/max) = 13.36 | 14.4 | 15 Mbytes
   Step          Temp          E_pair         E_mol          TotEng         Press     
   2840000   293.29562      372.69128      18514.237      19306.572     -59.969507    
   2850000   337.71279      369.45402      18527.593      19380.243     -82.771651    
Loop time of 2.91775 on 16 procs for 10000 steps with 481 atoms

Performance: 14.806 ns/day, 1.621 hours/ns, 3427.298 timesteps/s, 1.649 Matom-step/s
100.0% CPU use with 16 MPI tasks x 1 OpenMP threads

MPI task timing breakdown:
Section |  min time  |  avg time  |  max time  |%varavg| %total
---------------------------------------------------------------
Pair    | 0.077436   | 0.39541    | 0.64903    |  27.0 | 13.55
Bond    | 0.32591    | 0.50442    | 0.6837     |  10.3 | 17.29
Neigh   | 0.0081385  | 0.008537   | 0.0091455  |   0.4 |  0.29
Comm    | 1.3743     | 1.7963     | 2.1368     |  15.6 | 61.56
Output  | 0.00096261 | 0.0016476  | 0.0021579  |   0.9 |  0.06
Modify  | 0.078871   | 0.12615    | 0.16597    |   7.0 |  4.32
Other   |            | 0.08532    |            |       |  2.92

Nlocal:        30.0625 ave          45 max          15 min
Histogram: 1 1 1 0 4 5 1 1 1 1
Nghost:        2366.31 ave        2392 max        2345 min
Histogram: 3 0 2 2 1 2 3 2 0 1
Neighs:              0 ave           0 max           0 min
Histogram: 16 0 0 0 0 0 0 0 0 0

Total # of neighbors = 0
Ave neighs/atom = 0
Ave special neighs/atom = 15.567568
Neighbor list builds = 20
Dangerous builds = 0
fix             myat1 all ave/time 100 10 1000 v_zave v_zdes file simulation_data/abpot/${cpt}.dat
fix             myat1 all ave/time 100 10 1000 v_zave v_zdes file simulation_data/abpot/48.dat
run             50000
Generated 0 of 1 mixed pair_coeff terms from geometric mixing rule
Per MPI rank memory allocation (min/avg/max) = 13.36 | 14.4 | 15 Mbytes
   Step          Temp          E_pair         E_mol          TotEng         Press     
   2850000   337.71279      369.45402      18527.593      19380.243     -82.771651    
   2860000   313.96627      371.63587      18520.464      19341.32      -43.17447     
   2870000   301.05889      371.15839      18529.456      19331.367      55.589198    
   2880000   295.15922      368.89682      18527.768      19318.975     -111.09548    
   2890000   277.96553      370.11032      18510.061      19277.881     -0.99863526   
   2900000   310.9036       369.05753      18504.915      19318.81      -125.56131    
Loop time of 14.9941 on 16 procs for 50000 steps with 481 atoms

Performance: 14.406 ns/day, 1.666 hours/ns, 3334.641 timesteps/s, 1.604 Matom-step/s
100.0% CPU use with 16 MPI tasks x 1 OpenMP threads

MPI task timing breakdown:
Section |  min time  |  avg time  |  max time  |%varavg| %total
---------------------------------------------------------------
Pair    | 0.39389    | 1.9809     | 3.2898     |  60.9 | 13.21
Bond    | 1.4662     | 2.5261     | 3.3898     |  25.1 | 16.85
Neigh   | 0.024269   | 0.025374   | 0.02708    |   0.6 |  0.17
Comm    | 7.2534     | 9.3747     | 11.313     |  36.2 | 62.52
Output  | 0.0063042  | 0.0089321  | 0.011035   |   1.5 |  0.06
Modify  | 0.4123     | 0.65049    | 0.8455     |  15.5 |  4.34
Other   |            | 0.4275     |            |       |  2.85

Nlocal:        30.0625 ave          40 max          18 min
Histogram: 3 0 1 1 1 2 2 1 3 2
Nghost:        2362.94 ave        2377 max        2342 min
Histogram: 1 2 1 1 0 1 2 3 0 5
Neighs:              0 ave           0 max           0 min
Histogram: 16 0 0 0 0 0 0 0 0 0

Total # of neighbors = 0
Ave neighs/atom = 0
Ave special neighs/atom = 15.567568
Neighbor list builds = 56
Dangerous builds = 0
unfix           myat1
next            cpt
jump            SELF loop
variable        zdes equal  -15+0.60*(${cpt}-1)
variable        zdes equal  -15+0.60*(49-1)
variable        zave equal xcm(H2,z)
fix             mytth2 H2 spring tether ${k1} 0.5 0.5 ${zdes} 0
fix             mytth2 H2 spring tether 2 0.5 0.5 ${zdes} 0
fix             mytth2 H2 spring tether 2 0.5 0.5 13.8 0
run             10000
Generated 0 of 1 mixed pair_coeff terms from geometric mixing rule
Per MPI rank memory allocation (min/avg/max) = 13.36 | 14.4 | 15 Mbytes
   Step          Temp          E_pair         E_mol          TotEng         Press     
   2900000   310.9036       369.05753      18504.915      19318.81      -125.56131    
   2910000   300.4222       369.95797      18520.143      19319.942     -41.253127    
Loop time of 2.97621 on 16 procs for 10000 steps with 481 atoms

Performance: 14.515 ns/day, 1.653 hours/ns, 3359.974 timesteps/s, 1.616 Matom-step/s
100.0% CPU use with 16 MPI tasks x 1 OpenMP threads

MPI task timing breakdown:
Section |  min time  |  avg time  |  max time  |%varavg| %total
---------------------------------------------------------------
Pair    | 0.072763   | 0.39731    | 0.6448     |  27.3 | 13.35
Bond    | 0.27942    | 0.50658    | 0.67927    |  12.4 | 17.02
Neigh   | 0.0041729  | 0.0043745  | 0.0046891  |   0.3 |  0.15
Comm    | 1.444      | 1.8555     | 2.265      |  17.0 | 62.34
Output  | 0.00099261 | 0.0016748  | 0.002178   |   0.9 |  0.06
Modify  | 0.077881   | 0.12467    | 0.16367    |   7.0 |  4.19
Other   |            | 0.08612    |            |       |  2.89

Nlocal:        30.0625 ave          38 max          19 min
Histogram: 1 2 0 0 2 3 3 0 4 1
Nghost:        2361.81 ave        2375 max        2342 min
Histogram: 2 1 0 0 1 3 3 0 3 3
Neighs:              0 ave           0 max           0 min
Histogram: 16 0 0 0 0 0 0 0 0 0

Total # of neighbors = 0
Ave neighs/atom = 0
Ave special neighs/atom = 15.567568
Neighbor list builds = 10
Dangerous builds = 0
fix             myat1 all ave/time 100 10 1000 v_zave v_zdes file simulation_data/abpot/${cpt}.dat
fix             myat1 all ave/time 100 10 1000 v_zave v_zdes file simulation_data/abpot/49.dat
run             50000
Generated 0 of 1 mixed pair_coeff terms from geometric mixing rule
Per MPI rank memory allocation (min/avg/max) = 13.36 | 14.4 | 15 Mbytes
   Step          Temp          E_pair         E_mol          TotEng         Press     
   2910000   300.4222       369.95797      18520.143      19319.942     -41.253127    
   2920000   302.78942      374.35357      18537.906      19345.487      54.473811    
   2930000   301.83374      360.67226      18545.227      19337.76      -305.90757    
   2940000   296.41572      367.90955      18507.929      19299.947     -52.093125    
   2950000   313.41309      371.354        18508.056      19327.838      54.406123    
   2960000   323.14911      363.43202      18543.537      19369.327     -186.42063    
Loop time of 14.9882 on 16 procs for 50000 steps with 481 atoms

Performance: 14.411 ns/day, 1.665 hours/ns, 3335.951 timesteps/s, 1.605 Matom-step/s
100.0% CPU use with 16 MPI tasks x 1 OpenMP threads

MPI task timing breakdown:
Section |  min time  |  avg time  |  max time  |%varavg| %total
---------------------------------------------------------------
Pair    | 0.36984    | 1.9831     | 3.221      |  60.1 | 13.23
Bond    | 1.3336     | 2.5284     | 3.3366     |  26.6 | 16.87
Neigh   | 0.023506   | 0.024594   | 0.026287   |   0.6 |  0.16
Comm    | 7.3744     | 9.3783     | 11.491     |  36.3 | 62.57
Output  | 0.0063428  | 0.0091731  | 0.011349   |   1.6 |  0.06
Modify  | 0.40379    | 0.63651    | 0.82945    |  15.1 |  4.25
Other   |            | 0.4282     |            |       |  2.86

Nlocal:        30.0625 ave          38 max          18 min
Histogram: 1 0 2 0 1 1 3 5 2 1
Nghost:        2355.81 ave        2366 max        2334 min
Histogram: 1 0 1 2 0 2 0 2 4 4
Neighs:              0 ave           0 max           0 min
Histogram: 16 0 0 0 0 0 0 0 0 0

Total # of neighbors = 0
Ave neighs/atom = 0
Ave special neighs/atom = 15.567568
Neighbor list builds = 55
Dangerous builds = 0
unfix           myat1
next            cpt
jump            SELF loop
variable        zdes equal  -15+0.60*(${cpt}-1)
variable        zdes equal  -15+0.60*(50-1)
variable        zave equal xcm(H2,z)
fix             mytth2 H2 spring tether ${k1} 0.5 0.5 ${zdes} 0
fix             mytth2 H2 spring tether 2 0.5 0.5 ${zdes} 0
fix             mytth2 H2 spring tether 2 0.5 0.5 14.4 0
run             10000
Generated 0 of 1 mixed pair_coeff terms from geometric mixing rule
Per MPI rank memory allocation (min/avg/max) = 13.36 | 14.4 | 15 Mbytes
   Step          Temp          E_pair         E_mol          TotEng         Press     
   2960000   323.14911      363.43202      18543.537      19369.327     -186.42063    
   2970000   317.99676      372.9402       18520.662      19348.589      123.31572    
Loop time of 2.90764 on 16 procs for 10000 steps with 481 atoms

Performance: 14.857 ns/day, 1.615 hours/ns, 3439.213 timesteps/s, 1.654 Matom-step/s
99.9% CPU use with 16 MPI tasks x 1 OpenMP threads

MPI task timing breakdown:
Section |  min time  |  avg time  |  max time  |%varavg| %total
---------------------------------------------------------------
Pair    | 0.078864   | 0.39574    | 0.65093    |  26.5 | 13.61
Bond    | 0.36393    | 0.50504    | 0.68753    |  10.0 | 17.37
Neigh   | 0.0025228  | 0.0026374  | 0.0028009  |   0.2 |  0.09
Comm    | 1.3659     | 1.7999     | 2.1196     |  16.0 | 61.90
Output  | 0.00095121 | 0.0016036  | 0.002104   |   0.9 |  0.06
Modify  | 0.079238   | 0.11766    | 0.15107    |   5.9 |  4.05
Other   |            | 0.08501    |            |       |  2.92

Nlocal:        30.0625 ave          39 max          21 min
Histogram: 2 1 1 3 0 1 4 2 1 1
Nghost:        2370.06 ave        2392 max        2349 min
Histogram: 1 1 0 4 3 2 3 0 1 1
Neighs:              0 ave           0 max           0 min
Histogram: 16 0 0 0 0 0 0 0 0 0

Total # of neighbors = 0
Ave neighs/atom = 0
Ave special neighs/atom = 15.567568
Neighbor list builds = 6
Dangerous builds = 0
fix             myat1 all ave/time 100 10 1000 v_zave v_zdes file simulation_data/abpot/${cpt}.dat
fix             myat1 all ave/time 100 10 1000 v_zave v_zdes file simulation_data/abpot/50.dat
run             50000
Generated 0 of 1 mixed pair_coeff terms from geometric mixing rule
Per MPI rank memory allocation (min/avg/max) = 13.36 | 14.4 | 15 Mbytes
   Step          Temp          E_pair         E_mol          TotEng         Press     
   2970000   317.99676      372.9402       18520.662      19348.589      123.31572    
   2980000   291.26483      368.66889      18519.128      19304.536      12.218212    
   2990000   284.9871       362.74949      18524.398      19294.903     -302.09273    
   3000000   282.83576      373.45008      18499.003      19277.132      1.3066002    
   3010000   304.38911      379.26641      18489.085      19303.868      43.12877     
   3020000   310.74432      367.01884      18520.544      19332.172     -225.68207    
Loop time of 14.7977 on 16 procs for 50000 steps with 481 atoms

Performance: 14.597 ns/day, 1.644 hours/ns, 3378.893 timesteps/s, 1.625 Matom-step/s
100.0% CPU use with 16 MPI tasks x 1 OpenMP threads

MPI task timing breakdown:
Section |  min time  |  avg time  |  max time  |%varavg| %total
---------------------------------------------------------------
Pair    | 0.38805    | 1.9859     | 3.2845     |  59.1 | 13.42
Bond    | 1.6792     | 2.534      | 3.4029     |  23.0 | 17.12
Neigh   | 0.020934   | 0.021908   | 0.023425   |   0.6 |  0.15
Comm    | 7.0617     | 9.1965     | 10.866     |  35.3 | 62.15
Output  | 0.006258   | 0.0089074  | 0.01102    |   1.6 |  0.06
Modify  | 0.40384    | 0.62044    | 0.80692    |  14.4 |  4.19
Other   |            | 0.43       |            |       |  2.91

Nlocal:        30.0625 ave          43 max          19 min
Histogram: 2 0 4 2 0 4 0 3 0 1
Nghost:        2353.19 ave        2370 max        2336 min
Histogram: 1 2 0 3 3 1 1 3 0 2
Neighs:              0 ave           0 max           0 min
Histogram: 16 0 0 0 0 0 0 0 0 0

Total # of neighbors = 0
Ave neighs/atom = 0
Ave special neighs/atom = 15.567568
Neighbor list builds = 49
Dangerous builds = 0
unfix           myat1
next            cpt
jump            SELF loop
variable        zdes equal  -15+0.60*(${cpt}-1)
variable        zdes equal  -15+0.60*(51-1)
variable        zave equal xcm(H2,z)
fix             mytth2 H2 spring tether ${k1} 0.5 0.5 ${zdes} 0
fix             mytth2 H2 spring tether 2 0.5 0.5 ${zdes} 0
fix             mytth2 H2 spring tether 2 0.5 0.5 15 0
run             10000
Generated 0 of 1 mixed pair_coeff terms from geometric mixing rule
Per MPI rank memory allocation (min/avg/max) = 13.36 | 14.4 | 15 Mbytes
   Step          Temp          E_pair         E_mol          TotEng         Press     
   3020000   310.74432      367.01884      18520.544      19332.172     -225.68207    
   3030000   302.60541      370.08274      18520.333      19323.38      -51.66235     
Loop time of 3.01523 on 16 procs for 10000 steps with 481 atoms

Performance: 14.327 ns/day, 1.675 hours/ns, 3316.494 timesteps/s, 1.595 Matom-step/s
100.0% CPU use with 16 MPI tasks x 1 OpenMP threads

MPI task timing breakdown:
Section |  min time  |  avg time  |  max time  |%varavg| %total
---------------------------------------------------------------
Pair    | 0.075671   | 0.39722    | 0.71842    |  27.1 | 13.17
Bond    | 0.327      | 0.50637    | 0.73855    |  12.6 | 16.79
Neigh   | 0.0040471  | 0.004223   | 0.0045031  |   0.2 |  0.14
Comm    | 1.3541     | 1.8994     | 2.2397     |  16.9 | 62.99
Output  | 0.0010083  | 0.0017066  | 0.0022308  |   1.0 |  0.06
Modify  | 0.077102   | 0.12099    | 0.15691    |   6.4 |  4.01
Other   |            | 0.08535    |            |       |  2.83

Nlocal:        30.0625 ave          42 max          19 min
Histogram: 1 1 2 1 4 1 3 2 0 1
Nghost:        2373.81 ave        2394 max        2358 min
Histogram: 3 1 2 0 2 4 1 1 1 1
Neighs:              0 ave           0 max           0 min
Histogram: 16 0 0 0 0 0 0 0 0 0

Total # of neighbors = 0
Ave neighs/atom = 0
Ave special neighs/atom = 15.567568
Neighbor list builds = 9
Dangerous builds = 0
fix             myat1 all ave/time 100 10 1000 v_zave v_zdes file simulation_data/abpot/${cpt}.dat
fix             myat1 all ave/time 100 10 1000 v_zave v_zdes file simulation_data/abpot/51.dat
run             50000
Generated 0 of 1 mixed pair_coeff terms from geometric mixing rule
Per MPI rank memory allocation (min/avg/max) = 13.36 | 14.4 | 15 Mbytes
   Step          Temp          E_pair         E_mol          TotEng         Press     
   3030000   302.60541      370.08274      18520.333      19323.38      -51.66235     
   3040000   297.90174      372.46556      18508.715      19307.415      61.133415    
   3050000   311.00088      371.57114      18519.077      19335.625      66.511095    
   3060000   304.94922      370.50353      18522.412      19329.233     -19.300781    
   3070000   293.70915      361.60622      18538.154      19319.995     -324.56431    
   3080000   304.83436      364.22319      18491.847      19292.223     -128.1585     
Loop time of 14.8668 on 16 procs for 50000 steps with 481 atoms

Performance: 14.529 ns/day, 1.652 hours/ns, 3363.204 timesteps/s, 1.618 Matom-step/s
100.0% CPU use with 16 MPI tasks x 1 OpenMP threads

MPI task timing breakdown:
Section |  min time  |  avg time  |  max time  |%varavg| %total
---------------------------------------------------------------
Pair    | 0.3724     | 1.9857     | 3.2713     |  60.2 | 13.36
Bond    | 1.6189     | 2.5353     | 3.3927     |  24.6 | 17.05
Neigh   | 0.020906   | 0.021924   | 0.023447   |   0.6 |  0.15
Comm    | 7.1621     | 9.2745     | 11.024     |  36.6 | 62.38
Output  | 0.0063064  | 0.0090457  | 0.011198   |   1.6 |  0.06
Modify  | 0.40162    | 0.61261    | 0.79132    |  14.1 |  4.12
Other   |            | 0.4277     |            |       |  2.88

Nlocal:        30.0625 ave          36 max          24 min
Histogram: 1 2 2 2 1 2 0 2 2 2
Nghost:        2369.31 ave        2394 max        2347 min
Histogram: 1 2 3 0 2 2 2 2 1 1
Neighs:              0 ave           0 max           0 min
Histogram: 16 0 0 0 0 0 0 0 0 0

Total # of neighbors = 0
Ave neighs/atom = 0
Ave special neighs/atom = 15.567568
Neighbor list builds = 49
Dangerous builds = 0
unfix           myat1
next            cpt
jump            SELF loop

Total wall time: 0:15:00
