# --- log file ---

variable pre equal 112 # desired pressure (Atm)
variable tem equal 300 # desired temperature (K)

variable k1 equal 3.5 # spring constant
variable k2 equal 3.5 # spring constant

units real
atom_style molecular
boundary p p p
neighbor 1.0 bin
neigh_modify delay 3 one 6000
bond_style harmonic
angle_style harmonic
dihedral_style opls
improper_style harmonic
pair_style hybrid lj/cut 14 sg 15 cb 30 # Fluid-fluid interactions have a cutoff of 15 Å, fluid-solid interactions have a cutoff of 30 Å
# *--* C-C parameters *--*
bond_style harmonic
angle_style harmonic
dihedral_style opls
improper_style harmonic
# *--* C-C parameters *--*


# 2. Read the graphite platelet data file and define potentials parameters
read_data       ../geometry/carbonPlatelets/simulation_data/abpot_sys.data  extra/atom/types 1
Reading data file ...
  orthogonal box = (-30 -30 -30) to (30 30 30)
  3 by 4 by 4 MPI processor grid
  reading atoms ...
  480 atoms
  reading velocities ...
  480 velocities
  scanning bonds ...
  2 = max bonds/atom
  scanning angles ...
  3 = max angles/atom
  scanning dihedrals ...
  8 = max dihedrals/atom
  scanning impropers ...
  2 = max impropers/atom
  orthogonal box = (-30 -30 -30) to (30 30 30)
  3 by 4 by 4 MPI processor grid
  reading bonds ...
  676 bonds
  reading angles ...
  1268 angles
  reading dihedrals ...
  2394 dihedrals
  reading impropers ...
  396 impropers
Finding 1-2 1-3 1-4 neighbors ...
  special bond factors lj:    0        0        0       
  special bond factors coul:  0        0        0       
     3 = max # of 1-2 neighbors
     6 = max # of 1-3 neighbors
    18 = max # of 1-4 neighbors
    18 = max # of special neighbors
  special bonds CPU = 0.002 seconds
  read_data CPU = 0.049 seconds
include         PARM.lammps

#////////////////////////////////////////////////////////////////////////////////////////////////////////////////////////////////
#//     Filename: PARM.lammps
#//     File Type: LAMMPS input script
#//     Description: This script defines the parameters for the simulation of hydrogen absorption in graphite platelets.
#//     Author: Edoardo Cabiati
#//     Date: 2024-07-27
#////////////////////////////////////////////////////////////////////////////////////////////////////////////////////////////////

mass 2 2.016 # For now at least, in accordance with the paper by Wang and Johnson,
             # 1998, the hydrogen atoms are regarded as simple spherical atoms

# //////////////////////////////////////    C-C potentials    //////////////////////////////////////
pair_coeff 1 1 lj/cut 0.066 3.4
bond_coeff 1 469 1.4
angle_coeff 1 63 120
dihedral_coeff 1 0 7.25 0 0
improper_coeff 1 5 180
special_bonds lj 0.0 0.0 0.5
Finding 1-2 1-3 1-4 neighbors ...
  special bond factors lj:    0        0        0.5     
  special bond factors coul:  0        0        0       
     3 = max # of 1-2 neighbors
     6 = max # of 1-3 neighbors
    18 = max # of 1-4 neighbors
    18 = max # of special neighbors
  special bonds CPU = 0.001 seconds
# //////////////////////////////////////    C-C potentials    //////////////////////////////////////
# -------------------------------------------------------------------------------------------------
# //////////////////////////////////////    H-H potentials    //////////////////////////////////////
variable alpha equal 1.713          #|
variable sigma equal 1.567          #|
variable gamma equal 0.00993        #|
variable c6 equal 12.14             #|      The parameters are all in atomic units, the conversion to kcal/mol
variable c8 equal 215.2             #|      is performed in the pair_sg.cpp file
variable c9 equal 143.1             #|
variable c10 equal 4813.9           #|
variable rc equal 8.321             #|
pair_coeff 2 2 sg ${alpha} ${sigma} ${gamma} ${c6} ${c8} ${c9} ${c10} ${rc} # H-H potentials
pair_coeff 2 2 sg 1.713 ${sigma} ${gamma} ${c6} ${c8} ${c9} ${c10} ${rc} 
pair_coeff 2 2 sg 1.713 1.567 ${gamma} ${c6} ${c8} ${c9} ${c10} ${rc} 
pair_coeff 2 2 sg 1.713 1.567 0.00993 ${c6} ${c8} ${c9} ${c10} ${rc} 
pair_coeff 2 2 sg 1.713 1.567 0.00993 12.14 ${c8} ${c9} ${c10} ${rc} 
pair_coeff 2 2 sg 1.713 1.567 0.00993 12.14 215.2 ${c9} ${c10} ${rc} 
pair_coeff 2 2 sg 1.713 1.567 0.00993 12.14 215.2 143.1 ${c10} ${rc} 
pair_coeff 2 2 sg 1.713 1.567 0.00993 12.14 215.2 143.1 4813.9 ${rc} 
pair_coeff 2 2 sg 1.713 1.567 0.00993 12.14 215.2 143.1 4813.9 8.321 
#pair_coeff 2 2 sg 1.713 1.567 0.00993 12.14 215.2 143.1 4813.9 8.321 # H-H potentials
# //////////////////////////////////////    H-H potentials    //////////////////////////////////////
# -------------------------------------------------------------------------------------------------
# //////////////////////////////////////    C-H potentials    //////////////////////////////////////
variable sigma_CC equal 3.43 # Å
variable sigma_HH equal 3.075 # Å
variable sigma_CH_geo equal sqrt(${sigma_CC}*${sigma_HH}) # Å
variable sigma_CH_geo equal sqrt(3.43*${sigma_HH}) 
variable sigma_CH_geo equal sqrt(3.43*3.075) 
variable sigma_CH_arit equal 0.5*(${sigma_CC}+${sigma_HH}) # Å
variable sigma_CH_arit equal 0.5*(3.43+${sigma_HH}) 
variable sigma_CH_arit equal 0.5*(3.43+3.075) 

variable P_par equal 0.57 # Å^3
variable P_perp equal 1.995 # Å^3
variable P_h equal 0.81 # Å^3
variable E_h equal 2.337e5*(1/503.23) # K * 1/503.23 kcal/mol/K = kcal/mol
variable E_c equal 1.39254e5*(1/503.23) # K * 1/503.23 kcal/mol/K = kcal/mol

variable epsilon equal 4*v_E_h*v_E_c*v_P_h*(v_P_par+v_P_perp/2)/(v_sigma_CH_geo^6*(v_E_h+v_E_c)) # kcal/mol

pair_coeff 1 2 cb ${epsilon} ${sigma_CH_geo} ${P_par} ${P_perp} # C-H potential
pair_coeff 1 2 cb 0.750549668586509 ${sigma_CH_geo} ${P_par} ${P_perp} 
pair_coeff 1 2 cb 0.750549668586509 3.24765299870537 ${P_par} ${P_perp} 
pair_coeff 1 2 cb 0.750549668586509 3.24765299870537 0.57 ${P_perp} 
pair_coeff 1 2 cb 0.750549668586509 3.24765299870537 0.57 1.995 
#pair_coeff 1 2 lj/cut 0.3025 2.065
# //////////////////////////////////////    C-H potentials    //////////////////////////////////////

# 3. Add a single hydrogen molecule to the system, close to the center of the first platelet
create_atoms    2 single 0 0 -2
Created 1 atoms
  using lattice units in orthogonal box = (-30 -30 -30) to (30 30 30)
  create_atoms CPU = 0.000 seconds

group           C type 1
480 atoms in group C
group           H2 type 2
1 atoms in group H2

# 4. Equilibration
timestep        0.05
fix             mytth1 C spring/self ${k2} # Apply a spring force to the carbon atoms
fix             mytth1 C spring/self 3.5 
velocity        all create ${tem} 48 rot yes mom yes dist gaussian # Initialize velocities
velocity        all create 300 48 rot yes mom yes dist gaussian 
fix             mynpt all npt temp ${tem} ${tem} 100 x ${pre} ${pre} 1000 y ${pre} ${pre} 1000 # Apply NPT ensemble to the system
fix             mynpt all npt temp 300 ${tem} 100 x ${pre} ${pre} 1000 y ${pre} ${pre} 1000 
fix             mynpt all npt temp 300 300 100 x ${pre} ${pre} 1000 y ${pre} ${pre} 1000 
fix             mynpt all npt temp 300 300 100 x 112 ${pre} 1000 y ${pre} ${pre} 1000 
fix             mynpt all npt temp 300 300 100 x 112 112 1000 y ${pre} ${pre} 1000 
fix             mynpt all npt temp 300 300 100 x 112 112 1000 y 112 ${pre} 1000 
fix             mynpt all npt temp 300 300 100 x 112 112 1000 y 112 112 1000 

thermo          10000
dump            dump all atom 1000 simulation_data/absorption_pot.lammpstrj

run             20000

CITE-CITE-CITE-CITE-CITE-CITE-CITE-CITE-CITE-CITE-CITE-CITE-CITE

Your simulation uses code contributions which should be cited:

- Type Label Framework: https://doi.org/10.1021/acs.jpcb.3c08419

@Article{Gissinger24,
 author = {Jacob R. Gissinger, Ilia Nikiforov, Yaser Afshar, Brendon Waters, Moon-ki Choi, Daniel S. Karls, Alexander Stukowski, Wonpil Im, Hendrik Heinz, Axel Kohlmeyer, and Ellad B. Tadmor},
 title = {Type Label Framework for Bonded Force Fields in LAMMPS},
 journal = {J. Phys. Chem. B},
 year =    2024,
 volume =  128,
 number =  13,
 pages =   {3282–-3297}
}

CITE-CITE-CITE-CITE-CITE-CITE-CITE-CITE-CITE-CITE-CITE-CITE-CITE

Generated 0 of 1 mixed pair_coeff terms from geometric mixing rule
Neighbor list info ...
  update: every = 1 steps, delay = 3 steps, check = yes
  max neighbors/atom: 6000, page size: 100000
  master list distance cutoff = 31
  ghost atom cutoff = 31
  binsize = 15.5, bins = 4 4 4
  4 neighbor lists, perpetual/occasional/extra = 4 0 0
  (1) pair lj/cut, perpetual, skip trim from (4)
      attributes: half, newton on, cut 15
      pair build: skip/trim
      stencil: none
      bin: none
  (2) pair sg, perpetual, skip trim from (4)
      attributes: half, newton on, cut 16
      pair build: skip/trim
      stencil: none
      bin: none
  (3) pair cb, perpetual, skip from (4)
      attributes: half, newton on
      pair build: skip
      stencil: none
      bin: none
  (4) neighbor class addition, perpetual
      attributes: half, newton on
      pair build: half/bin/newton
      stencil: half/bin/3d
      bin: standard
Per MPI rank memory allocation (min/avg/max) = 13.28 | 13.37 | 13.93 Mbytes
   Step          Temp          E_pair         E_mol          TotEng         Press          Volume    
         0   300            308.43814      19603.922      20341.597     -432.48369      216000       
     10000   308.72719      373.58236      18568.419      19383.724     -313.9945       172136.64    
     20000   322.02648      371.05675      18538.378      19370.187     -418.66256      126544.33    
Loop time of 7.69667 on 48 procs for 20000 steps with 481 atoms

Performance: 11.226 ns/day, 2.138 hours/ns, 2598.528 timesteps/s, 1.250 Matom-step/s
99.8% CPU use with 48 MPI tasks x 1 OpenMP threads

MPI task timing breakdown:
Section |  min time  |  avg time  |  max time  |%varavg| %total
---------------------------------------------------------------
Pair    | 0.12436    | 0.44784    | 2.391      |  75.4 |  5.82
Bond    | 0.0038165  | 0.41359    | 2.247      | 111.3 |  5.37
Neigh   | 0.019649   | 0.02233    | 0.025136   |   0.9 |  0.29
Comm    | 2.0877     | 4.3827     | 6.3348     |  68.9 | 56.94
Output  | 0.0036977  | 0.008322   | 0.013726   |   3.7 |  0.11
Modify  | 0.69333    | 2.158      | 4.6578     | 106.1 | 28.04
Other   |            | 0.2639     |            |       |  3.43

Nlocal:        10.0208 ave          42 max           0 min
Histogram: 21 4 10 5 0 1 0 3 3 1
Nghost:        1907.85 ave        2370 max        1332 min
Histogram: 8 0 0 0 24 0 0 0 0 16
Neighs:              0 ave           0 max           0 min
Histogram: 48 0 0 0 0 0 0 0 0 0

Total # of neighbors = 0
Ave neighs/atom = 0
Ave special neighs/atom = 15.567568
Neighbor list builds = 55
Dangerous builds = 0
unfix           mynpt
unfix           mytth1

# 5. Umbrella sampling
fix             mynvt all nvt temp ${tem} ${tem} 100
fix             mynvt all nvt temp 300 ${tem} 100
fix             mynvt all nvt temp 300 300 100
fix             mytth1 C spring/self ${k2}
fix             mytth1 C spring/self 3.5

variable        cpt loop 51
label           loop
variable        zdes equal  -15+0.60*(${cpt}-1)
variable        zdes equal  -15+0.60*(1-1)
variable        zave equal xcm(H2,z)
fix             mytth2 H2 spring tether ${k1} 2.5 2.5 ${zdes} 0
fix             mytth2 H2 spring tether 3.5 2.5 2.5 ${zdes} 0
fix             mytth2 H2 spring tether 3.5 2.5 2.5 -15 0
run             10000
Generated 0 of 1 mixed pair_coeff terms from geometric mixing rule
Per MPI rank memory allocation (min/avg/max) = 13.32 | 13.74 | 14.98 Mbytes
   Step          Temp          E_pair         E_mol          TotEng         Press     
     20000   322.02648      371.05675      18538.378      19370.187     -418.66256    
     30000   300.56141      340.12261      18592.983      19363.146     -1043.6881    
Loop time of 3.09136 on 48 procs for 10000 steps with 481 atoms

Performance: 13.974 ns/day, 1.717 hours/ns, 3234.822 timesteps/s, 1.556 Matom-step/s
100.0% CPU use with 48 MPI tasks x 1 OpenMP threads

MPI task timing breakdown:
Section |  min time  |  avg time  |  max time  |%varavg| %total
---------------------------------------------------------------
Pair    | 0.0030122  | 0.14455    | 0.76275    |  54.7 |  4.68
Bond    | 0.001019   | 0.18269    | 0.77092    |  56.1 |  5.91
Neigh   | 0.034732   | 0.039079   | 0.041891   |   0.9 |  1.26
Comm    | 1.2677     | 2.2322     | 2.7328     |  33.9 | 72.21
Output  | 0.0011351  | 0.0028808  | 0.0048722  |   2.2 |  0.09
Modify  | 0.11704    | 0.3854     | 1.545      |  73.8 | 12.47
Other   |            | 0.1046     |            |       |  3.38

Nlocal:        10.0208 ave          43 max           0 min
Histogram: 22 7 4 7 0 0 3 2 2 1
Nghost:        1912.85 ave        2382 max        1330 min
Histogram: 8 0 0 0 24 0 0 0 0 16
Neighs:              0 ave           0 max           0 min
Histogram: 48 0 0 0 0 0 0 0 0 0

Total # of neighbors = 0
Ave neighs/atom = 0
Ave special neighs/atom = 15.567568
Neighbor list builds = 109
Dangerous builds = 0
fix             myat1 all ave/time 1000 10 10000 v_zave v_zdes file simulation_data/abpot/${cpt}.dat
fix             myat1 all ave/time 1000 10 10000 v_zave v_zdes file simulation_data/abpot/1.dat
run             50000
Generated 0 of 1 mixed pair_coeff terms from geometric mixing rule
Per MPI rank memory allocation (min/avg/max) = 13.32 | 13.79 | 14.98 Mbytes
   Step          Temp          E_pair         E_mol          TotEng         Press     
     30000   300.56141      340.12261      18592.983      19363.146     -1043.6881    
     40000   282.09196      396.25571      18526.877      19326.746      349.41957    
     50000   288.41941      384.42743      18554.094      19351.188      93.556167    
     60000   301.77557      355.94574      18583.414      19371.137     -517.26525    
     70000   305.08306      365.92381      18567.666      19370.099     -280.0432     
     80000   293.2026       400.14988      18520.317      19339.978      547.48592    
Loop time of 14.9717 on 48 procs for 50000 steps with 481 atoms

Performance: 14.427 ns/day, 1.664 hours/ns, 3339.628 timesteps/s, 1.606 Matom-step/s
100.0% CPU use with 48 MPI tasks x 1 OpenMP threads

MPI task timing breakdown:
Section |  min time  |  avg time  |  max time  |%varavg| %total
---------------------------------------------------------------
Pair    | 0.01498    | 0.71822    | 3.954      | 122.0 |  4.80
Bond    | 0.0051724  | 0.91235    | 3.759      | 125.1 |  6.09
Neigh   | 0.06452    | 0.073301   | 0.078955   |   1.3 |  0.49
Comm    | 5.9365     | 10.876     | 13.377     |  75.2 | 72.65
Output  | 0.0055292  | 0.012586   | 0.020215   |   4.2 |  0.08
Modify  | 0.57388    | 1.8565     | 7.5668     | 161.6 | 12.40
Other   |            | 0.5225     |            |       |  3.49

Nlocal:        10.0208 ave          40 max           0 min
Histogram: 21 4 9 5 1 0 2 2 1 3
Nghost:        1934.62 ave        2415 max        1335 min
Histogram: 8 0 0 0 24 0 0 0 0 16
Neighs:              0 ave           0 max           0 min
Histogram: 48 0 0 0 0 0 0 0 0 0

Total # of neighbors = 0
Ave neighs/atom = 0
Ave special neighs/atom = 15.567568
Neighbor list builds = 205
Dangerous builds = 0
unfix           myat1
next            cpt
jump            SELF loop
variable        zdes equal  -15+0.60*(${cpt}-1)
variable        zdes equal  -15+0.60*(2-1)
variable        zave equal xcm(H2,z)
fix             mytth2 H2 spring tether ${k1} 2.5 2.5 ${zdes} 0
fix             mytth2 H2 spring tether 3.5 2.5 2.5 ${zdes} 0
fix             mytth2 H2 spring tether 3.5 2.5 2.5 -14.4 0
run             10000
Generated 0 of 1 mixed pair_coeff terms from geometric mixing rule
Per MPI rank memory allocation (min/avg/max) = 13.32 | 13.82 | 14.98 Mbytes
   Step          Temp          E_pair         E_mol          TotEng         Press     
     80000   293.2026       400.14988      18520.317      19339.978      547.48592    
     90000   281.55374      373.10162      18532.892      19308.838     -192.5124     
Loop time of 2.99728 on 48 procs for 10000 steps with 481 atoms

Performance: 14.413 ns/day, 1.665 hours/ns, 3336.355 timesteps/s, 1.605 Matom-step/s
100.0% CPU use with 48 MPI tasks x 1 OpenMP threads

MPI task timing breakdown:
Section |  min time  |  avg time  |  max time  |%varavg| %total
---------------------------------------------------------------
Pair    | 0.0029736  | 0.1437     | 0.81052    |  54.5 |  4.79
Bond    | 0.0010165  | 0.18232    | 0.72513    |  55.8 |  6.08
Neigh   | 0.0077837  | 0.0088192  | 0.0094467  |   0.4 |  0.29
Comm    | 1.2073     | 2.1834     | 2.7034     |  34.0 | 72.85
Output  | 0.0013985  | 0.0026125  | 0.0038404  |   1.5 |  0.09
Modify  | 0.11072    | 0.37242    | 1.5266     |  74.1 | 12.43
Other   |            | 0.104      |            |       |  3.47

Nlocal:        10.0208 ave          39 max           0 min
Histogram: 20 2 11 7 0 0 1 2 3 2
Nghost:        1939.23 ave        2423 max        1335 min
Histogram: 8 0 0 0 24 0 0 0 0 16
Neighs:              0 ave           0 max           0 min
Histogram: 48 0 0 0 0 0 0 0 0 0

Total # of neighbors = 0
Ave neighs/atom = 0
Ave special neighs/atom = 15.567568
Neighbor list builds = 24
Dangerous builds = 0
fix             myat1 all ave/time 1000 10 10000 v_zave v_zdes file simulation_data/abpot/${cpt}.dat
fix             myat1 all ave/time 1000 10 10000 v_zave v_zdes file simulation_data/abpot/2.dat
run             50000
Generated 0 of 1 mixed pair_coeff terms from geometric mixing rule
Per MPI rank memory allocation (min/avg/max) = 13.32 | 13.82 | 14.98 Mbytes
   Step          Temp          E_pair         E_mol          TotEng         Press     
     90000   281.55374      373.10162      18532.892      19308.838     -192.5124     
    100000   314.41225      367.31638      18535.515      19352.689     -231.95656    
    110000   288.47607      396.52151      18559.384      19368.654      384.44247    
    120000   309.19043      367.81701      18554.34       19364.543     -276.13667    
    130000   310.84942      372.94214      18526.271      19343.973     -74.8645      
    140000   316.83759      373.18837      18535.55       19362.066     -1.7356237    
Loop time of 14.9696 on 48 procs for 50000 steps with 481 atoms

Performance: 14.429 ns/day, 1.663 hours/ns, 3340.097 timesteps/s, 1.607 Matom-step/s
100.0% CPU use with 48 MPI tasks x 1 OpenMP threads

MPI task timing breakdown:
Section |  min time  |  avg time  |  max time  |%varavg| %total
---------------------------------------------------------------
Pair    | 0.014898   | 0.71757    | 3.981      | 121.9 |  4.79
Bond    | 0.0050964  | 0.91072    | 3.6849     | 125.0 |  6.08
Neigh   | 0.025025   | 0.028485   | 0.030664   |   0.8 |  0.19
Comm    | 6.1772     | 10.939     | 13.515     |  74.9 | 73.07
Output  | 0.0053264  | 0.010932   | 0.016693   |   3.5 |  0.07
Modify  | 0.55419    | 1.8423     | 7.628      | 162.2 | 12.31
Other   |            | 0.5211     |            |       |  3.48

Nlocal:        10.0208 ave          40 max           0 min
Histogram: 19 8 5 7 1 0 1 2 3 2
Nghost:        1939.23 ave        2423 max        1334 min
Histogram: 8 0 0 0 24 0 0 0 0 16
Neighs:              0 ave           0 max           0 min
Histogram: 48 0 0 0 0 0 0 0 0 0

Total # of neighbors = 0
Ave neighs/atom = 0
Ave special neighs/atom = 15.567568
Neighbor list builds = 78
Dangerous builds = 0
unfix           myat1
next            cpt
jump            SELF loop
variable        zdes equal  -15+0.60*(${cpt}-1)
variable        zdes equal  -15+0.60*(3-1)
variable        zave equal xcm(H2,z)
fix             mytth2 H2 spring tether ${k1} 2.5 2.5 ${zdes} 0
fix             mytth2 H2 spring tether 3.5 2.5 2.5 ${zdes} 0
fix             mytth2 H2 spring tether 3.5 2.5 2.5 -13.8 0
run             10000
Generated 0 of 1 mixed pair_coeff terms from geometric mixing rule
Per MPI rank memory allocation (min/avg/max) = 13.32 | 13.84 | 14.98 Mbytes
   Step          Temp          E_pair         E_mol          TotEng         Press     
    140000   316.83759      373.18837      18535.55       19362.066     -1.7356237    
    150000   291.6565       372.28919      18540.44       19330.028      4.7589561    
Loop time of 3.11435 on 48 procs for 10000 steps with 481 atoms

Performance: 13.871 ns/day, 1.730 hours/ns, 3210.945 timesteps/s, 1.544 Matom-step/s
100.0% CPU use with 48 MPI tasks x 1 OpenMP threads

MPI task timing breakdown:
Section |  min time  |  avg time  |  max time  |%varavg| %total
---------------------------------------------------------------
Pair    | 0.0030159  | 0.14397    | 0.75767    |  54.2 |  4.62
Bond    | 0.0010388  | 0.18284    | 0.83774    |  56.2 |  5.87
Neigh   | 0.0031546  | 0.0034947  | 0.0037485  |   0.3 |  0.11
Comm    | 1.2678     | 2.2819     | 2.8208     |  35.0 | 73.27
Output  | 0.0011266  | 0.0021736  | 0.0032765  |   1.5 |  0.07
Modify  | 0.11342    | 0.39511    | 1.6222     |  78.0 | 12.69
Other   |            | 0.1049     |            |       |  3.37

Nlocal:        10.0208 ave          43 max           0 min
Histogram: 21 4 11 4 1 1 2 0 1 3
Nghost:         1932.6 ave        2416 max        1330 min
Histogram: 8 0 0 0 24 0 0 0 0 16
Neighs:              0 ave           0 max           0 min
Histogram: 48 0 0 0 0 0 0 0 0 0

Total # of neighbors = 0
Ave neighs/atom = 0
Ave special neighs/atom = 15.567568
Neighbor list builds = 9
Dangerous builds = 0
fix             myat1 all ave/time 1000 10 10000 v_zave v_zdes file simulation_data/abpot/${cpt}.dat
fix             myat1 all ave/time 1000 10 10000 v_zave v_zdes file simulation_data/abpot/3.dat
run             50000
Generated 0 of 1 mixed pair_coeff terms from geometric mixing rule
Per MPI rank memory allocation (min/avg/max) = 13.32 | 13.84 | 14.98 Mbytes
   Step          Temp          E_pair         E_mol          TotEng         Press     
    150000   291.6565       372.28919      18540.44       19330.028      4.7589561    
    160000   304.44483      371.13634      18549.2        19355.932     -196.58085    
    170000   311.23237      379.60372      18519.389      19344.3        143.22123    
    180000   288.98299      376.26268      18534.603      19324.34       68.884862    
    190000   300.49159      364.11452      18554.156      19348.211     -336.71543    
    200000   304.48825      378.30517      18550.837      19364.8       -15.84521     
Loop time of 15.1262 on 48 procs for 50000 steps with 481 atoms

Performance: 14.280 ns/day, 1.681 hours/ns, 3305.530 timesteps/s, 1.590 Matom-step/s
100.0% CPU use with 48 MPI tasks x 1 OpenMP threads

MPI task timing breakdown:
Section |  min time  |  avg time  |  max time  |%varavg| %total
---------------------------------------------------------------
Pair    | 0.01487    | 0.71811    | 3.7464     | 120.3 |  4.75
Bond    | 0.0050964  | 0.91211    | 4.0048     | 125.3 |  6.03
Neigh   | 0.029787   | 0.033743   | 0.036437   |   0.9 |  0.22
Comm    | 6.1017     | 11.032     | 13.492     |  75.0 | 72.93
Output  | 0.0054377  | 0.01049    | 0.015843   |   3.2 |  0.07
Modify  | 0.55768    | 1.8988     | 7.7226     | 164.4 | 12.55
Other   |            | 0.521      |            |       |  3.44

Nlocal:        10.0208 ave          39 max           0 min
Histogram: 20 3 10 6 1 0 0 2 5 1
Nghost:        1931.23 ave        2415 max        1334 min
Histogram: 8 0 0 0 24 0 0 0 0 16
Neighs:              0 ave           0 max           0 min
Histogram: 48 0 0 0 0 0 0 0 0 0

Total # of neighbors = 0
Ave neighs/atom = 0
Ave special neighs/atom = 15.567568
Neighbor list builds = 92
Dangerous builds = 0
unfix           myat1
next            cpt
jump            SELF loop
variable        zdes equal  -15+0.60*(${cpt}-1)
variable        zdes equal  -15+0.60*(4-1)
variable        zave equal xcm(H2,z)
fix             mytth2 H2 spring tether ${k1} 2.5 2.5 ${zdes} 0
fix             mytth2 H2 spring tether 3.5 2.5 2.5 ${zdes} 0
fix             mytth2 H2 spring tether 3.5 2.5 2.5 -13.2 0
run             10000
Generated 0 of 1 mixed pair_coeff terms from geometric mixing rule
Per MPI rank memory allocation (min/avg/max) = 13.32 | 13.85 | 14.98 Mbytes
   Step          Temp          E_pair         E_mol          TotEng         Press     
    200000   304.48825      378.30517      18550.837      19364.8       -15.84521     
    210000   293.34091      381.06431      18555.037      19355.81      -20.713514    
Loop time of 3.02772 on 48 procs for 10000 steps with 481 atoms

Performance: 14.268 ns/day, 1.682 hours/ns, 3302.820 timesteps/s, 1.589 Matom-step/s
100.0% CPU use with 48 MPI tasks x 1 OpenMP threads

MPI task timing breakdown:
Section |  min time  |  avg time  |  max time  |%varavg| %total
---------------------------------------------------------------
Pair    | 0.0029674  | 0.14382    | 0.78608    |  54.2 |  4.75
Bond    | 0.0010192  | 0.18257    | 0.79417    |  56.0 |  6.03
Neigh   | 0.0055337  | 0.0063016  | 0.0067756  |   0.4 |  0.21
Comm    | 1.2082     | 2.215      | 2.7316     |  33.8 | 73.16
Output  | 0.001089   | 0.0020916  | 0.0031435  |   1.4 |  0.07
Modify  | 0.11077    | 0.37384    | 1.5363     |  74.0 | 12.35
Other   |            | 0.1041     |            |       |  3.44

Nlocal:        10.0208 ave          41 max           0 min
Histogram: 20 9 4 7 0 0 0 5 1 2
Nghost:        1932.73 ave        2413 max        1332 min
Histogram: 8 0 0 0 24 0 0 0 0 16
Neighs:              0 ave           0 max           0 min
Histogram: 48 0 0 0 0 0 0 0 0 0

Total # of neighbors = 0
Ave neighs/atom = 0
Ave special neighs/atom = 15.567568
Neighbor list builds = 17
Dangerous builds = 0
fix             myat1 all ave/time 1000 10 10000 v_zave v_zdes file simulation_data/abpot/${cpt}.dat
fix             myat1 all ave/time 1000 10 10000 v_zave v_zdes file simulation_data/abpot/4.dat
run             50000
Generated 0 of 1 mixed pair_coeff terms from geometric mixing rule
Per MPI rank memory allocation (min/avg/max) = 13.32 | 13.85 | 14.98 Mbytes
   Step          Temp          E_pair         E_mol          TotEng         Press     
    210000   293.34091      381.06431      18555.037      19355.81      -20.713514    
    220000   299.42183      364.7865       18552.897      19346.093     -343.51544    
    230000   272.85933      374.4293       18551.58       19316.414     -105.18162    
    240000   281.99808      389.83158      18529.411      19322.722      320.42705    
    250000   294.72028      379.69098      18536.753      19338.127      63.592731    
    260000   301.74044      367.42885      18586.657      19385.813     -318.83174    
Loop time of 15.1645 on 48 procs for 50000 steps with 481 atoms

Performance: 14.244 ns/day, 1.685 hours/ns, 3297.183 timesteps/s, 1.586 Matom-step/s
100.0% CPU use with 48 MPI tasks x 1 OpenMP threads

MPI task timing breakdown:
Section |  min time  |  avg time  |  max time  |%varavg| %total
---------------------------------------------------------------
Pair    | 0.015067   | 0.71897    | 3.8751     | 120.8 |  4.74
Bond    | 0.0050897  | 0.91266    | 3.9861     | 125.1 |  6.02
Neigh   | 0.033068   | 0.037465   | 0.040339   |   0.9 |  0.25
Comm    | 6.1173     | 11.091     | 13.586     |  75.3 | 73.14
Output  | 0.0054754  | 0.010526   | 0.015685   |   3.1 |  0.07
Modify  | 0.56127    | 1.8727     | 7.6889     | 165.6 | 12.35
Other   |            | 0.5207     |            |       |  3.43

Nlocal:        10.0208 ave          50 max           0 min
Histogram: 21 6 10 3 1 1 3 2 0 1
Nghost:        1926.23 ave        2416 max        1323 min
Histogram: 8 0 0 0 24 0 0 0 0 16
Neighs:              0 ave           0 max           0 min
Histogram: 48 0 0 0 0 0 0 0 0 0

Total # of neighbors = 0
Ave neighs/atom = 0
Ave special neighs/atom = 15.567568
Neighbor list builds = 100
Dangerous builds = 0
unfix           myat1
next            cpt
jump            SELF loop
variable        zdes equal  -15+0.60*(${cpt}-1)
variable        zdes equal  -15+0.60*(5-1)
variable        zave equal xcm(H2,z)
fix             mytth2 H2 spring tether ${k1} 2.5 2.5 ${zdes} 0
fix             mytth2 H2 spring tether 3.5 2.5 2.5 ${zdes} 0
fix             mytth2 H2 spring tether 3.5 2.5 2.5 -12.6 0
run             10000
Generated 0 of 1 mixed pair_coeff terms from geometric mixing rule
Per MPI rank memory allocation (min/avg/max) = 13.32 | 13.85 | 14.98 Mbytes
   Step          Temp          E_pair         E_mol          TotEng         Press     
    260000   301.74044      367.42885      18586.657      19385.813     -318.83174    
    270000   308.39221      381.73905      18545.832      19368.815      205.48808    
Loop time of 2.90093 on 48 procs for 10000 steps with 481 atoms

Performance: 14.892 ns/day, 1.612 hours/ns, 3447.168 timesteps/s, 1.658 Matom-step/s
100.0% CPU use with 48 MPI tasks x 1 OpenMP threads

MPI task timing breakdown:
Section |  min time  |  avg time  |  max time  |%varavg| %total
---------------------------------------------------------------
Pair    | 0.0029792  | 0.14369    | 0.74692    |  54.1 |  4.95
Bond    | 0.0010159  | 0.18241    | 0.76012    |  55.9 |  6.29
Neigh   | 0.0043032  | 0.004948   | 0.0053465  |   0.4 |  0.17
Comm    | 1.1485     | 2.113      | 2.6052     |  33.0 | 72.84
Output  | 0.0011063  | 0.002106   | 0.0033438  |   1.4 |  0.07
Modify  | 0.11391    | 0.35049    | 1.4221     |  70.4 | 12.08
Other   |            | 0.1043     |            |       |  3.59

Nlocal:        10.0208 ave          50 max           0 min
Histogram: 21 8 8 4 0 0 5 1 0 1
Nghost:        1927.73 ave        2409 max        1323 min
Histogram: 8 0 0 0 24 0 0 0 0 16
Neighs:              0 ave           0 max           0 min
Histogram: 48 0 0 0 0 0 0 0 0 0

Total # of neighbors = 0
Ave neighs/atom = 0
Ave special neighs/atom = 15.567568
Neighbor list builds = 14
Dangerous builds = 0
fix             myat1 all ave/time 1000 10 10000 v_zave v_zdes file simulation_data/abpot/${cpt}.dat
fix             myat1 all ave/time 1000 10 10000 v_zave v_zdes file simulation_data/abpot/5.dat
run             50000
Generated 0 of 1 mixed pair_coeff terms from geometric mixing rule
Per MPI rank memory allocation (min/avg/max) = 13.32 | 13.85 | 14.98 Mbytes
   Step          Temp          E_pair         E_mol          TotEng         Press     
    270000   308.39221      381.73905      18545.832      19368.815      205.48808    
    280000   293.41062      379.12991      18552.133      19351.071      92.68435     
    290000   310.32243      371.80708      18517.126      19332.939      48.16938     
    300000   284.69136      376.97764      18530.506      19314.817     -4.8847363    
    310000   288.0239       365.62743      18532.735      19310.463     -387.46056    
    320000   289.68869      368.89061      18572.154      19355.527     -214.06503    
Loop time of 15.2347 on 48 procs for 50000 steps with 481 atoms

Performance: 14.178 ns/day, 1.693 hours/ns, 3281.976 timesteps/s, 1.579 Matom-step/s
100.0% CPU use with 48 MPI tasks x 1 OpenMP threads

MPI task timing breakdown:
Section |  min time  |  avg time  |  max time  |%varavg| %total
---------------------------------------------------------------
Pair    | 0.01502    | 0.71964    | 3.7429     | 120.4 |  4.72
Bond    | 0.0052249  | 0.91337    | 4.0671     | 125.3 |  6.00
Neigh   | 0.030301   | 0.034339   | 0.036923   |   0.9 |  0.23
Comm    | 6.0946     | 11.143     | 13.664     |  75.2 | 73.15
Output  | 0.0054657  | 0.0104     | 0.01545    |   3.1 |  0.07
Modify  | 0.55661    | 1.8927     | 7.7863     | 165.6 | 12.42
Other   |            | 0.5208     |            |       |  3.42

Nlocal:        10.0208 ave          36 max           0 min
Histogram: 18 7 6 6 3 0 0 0 4 4
Nghost:         1931.1 ave        2415 max        1337 min
Histogram: 8 0 0 0 24 0 0 0 0 16
Neighs:              0 ave           0 max           0 min
Histogram: 48 0 0 0 0 0 0 0 0 0

Total # of neighbors = 0
Ave neighs/atom = 0
Ave special neighs/atom = 15.567568
Neighbor list builds = 93
Dangerous builds = 0
unfix           myat1
next            cpt
jump            SELF loop
variable        zdes equal  -15+0.60*(${cpt}-1)
variable        zdes equal  -15+0.60*(6-1)
variable        zave equal xcm(H2,z)
fix             mytth2 H2 spring tether ${k1} 2.5 2.5 ${zdes} 0
fix             mytth2 H2 spring tether 3.5 2.5 2.5 ${zdes} 0
fix             mytth2 H2 spring tether 3.5 2.5 2.5 -12 0
run             10000
Generated 0 of 1 mixed pair_coeff terms from geometric mixing rule
Per MPI rank memory allocation (min/avg/max) = 13.32 | 13.85 | 14.98 Mbytes
   Step          Temp          E_pair         E_mol          TotEng         Press     
    320000   289.68869      368.89061      18572.154      19355.527     -214.06503    
    330000   309.63618      381.39157      18540.994      19365.41       58.14104     
Loop time of 2.99311 on 48 procs for 10000 steps with 481 atoms

Performance: 14.433 ns/day, 1.663 hours/ns, 3341.004 timesteps/s, 1.607 Matom-step/s
100.0% CPU use with 48 MPI tasks x 1 OpenMP threads

MPI task timing breakdown:
Section |  min time  |  avg time  |  max time  |%varavg| %total
---------------------------------------------------------------
Pair    | 0.0034019  | 0.14374    | 0.7766     |  54.3 |  4.80
Bond    | 0.0010378  | 0.18233    | 0.81275    |  56.1 |  6.09
Neigh   | 0.0066488  | 0.007562   | 0.0081479  |   0.4 |  0.25
Comm    | 1.1833     | 2.1876     | 2.6915     |  32.9 | 73.09
Output  | 0.0011104  | 0.0020953  | 0.0031326  |   1.4 |  0.07
Modify  | 0.11379    | 0.36513    | 1.4882     |  70.2 | 12.20
Other   |            | 0.1047     |            |       |  3.50

Nlocal:        10.0208 ave          39 max           0 min
Histogram: 19 6 7 6 2 0 1 0 6 1
Nghost:        1935.48 ave        2418 max        1338 min
Histogram: 8 0 0 0 24 0 0 0 0 16
Neighs:              0 ave           0 max           0 min
Histogram: 48 0 0 0 0 0 0 0 0 0

Total # of neighbors = 0
Ave neighs/atom = 0
Ave special neighs/atom = 15.567568
Neighbor list builds = 21
Dangerous builds = 0
fix             myat1 all ave/time 1000 10 10000 v_zave v_zdes file simulation_data/abpot/${cpt}.dat
fix             myat1 all ave/time 1000 10 10000 v_zave v_zdes file simulation_data/abpot/6.dat
run             50000
Generated 0 of 1 mixed pair_coeff terms from geometric mixing rule
Per MPI rank memory allocation (min/avg/max) = 13.32 | 13.85 | 14.98 Mbytes
   Step          Temp          E_pair         E_mol          TotEng         Press     
    330000   309.63618      381.39157      18540.994      19365.41       58.14104     
    340000   306.73512      371.46905      18563.2        19373.542     -126.35672    
    350000   300.14443      372.21973      18565.094      19366.757     -152.79575    
    360000   289.30197      369.99339      18545.914      19329.838     -120.70573    
    370000   299.67083      371.54621      18536.957      19337.269     -171.279      
    380000   326.16254      385.72799      18540.545      19392.942      175.10961    
Loop time of 15.3897 on 48 procs for 50000 steps with 481 atoms

Performance: 14.035 ns/day, 1.710 hours/ns, 3248.924 timesteps/s, 1.563 Matom-step/s
100.0% CPU use with 48 MPI tasks x 1 OpenMP threads

MPI task timing breakdown:
Section |  min time  |  avg time  |  max time  |%varavg| %total
---------------------------------------------------------------
Pair    | 0.014974   | 0.7198     | 3.8023     | 121.1 |  4.68
Bond    | 0.0051292  | 0.91294    | 4.0084     | 125.1 |  5.93
Neigh   | 0.02726    | 0.030966   | 0.033349   |   0.8 |  0.20
Comm    | 6.364      | 11.264     | 13.87      |  76.3 | 73.19
Output  | 0.0054242  | 0.010436   | 0.015787   |   3.2 |  0.07
Modify  | 0.55525    | 1.9295     | 7.9009     | 169.7 | 12.54
Other   |            | 0.5217     |            |       |  3.39

Nlocal:        10.0208 ave          42 max           0 min
Histogram: 21 7 6 6 0 2 1 1 1 3
Nghost:        1933.73 ave        2419 max        1331 min
Histogram: 8 0 0 0 24 0 0 0 0 16
Neighs:              0 ave           0 max           0 min
Histogram: 48 0 0 0 0 0 0 0 0 0

Total # of neighbors = 0
Ave neighs/atom = 0
Ave special neighs/atom = 15.567568
Neighbor list builds = 83
Dangerous builds = 0
unfix           myat1
next            cpt
jump            SELF loop
variable        zdes equal  -15+0.60*(${cpt}-1)
variable        zdes equal  -15+0.60*(7-1)
variable        zave equal xcm(H2,z)
fix             mytth2 H2 spring tether ${k1} 2.5 2.5 ${zdes} 0
fix             mytth2 H2 spring tether 3.5 2.5 2.5 ${zdes} 0
fix             mytth2 H2 spring tether 3.5 2.5 2.5 -11.4 0
run             10000
Generated 0 of 1 mixed pair_coeff terms from geometric mixing rule
Per MPI rank memory allocation (min/avg/max) = 13.32 | 13.85 | 14.98 Mbytes
   Step          Temp          E_pair         E_mol          TotEng         Press     
    380000   326.16254      385.72799      18540.545      19392.942      175.10961    
    390000   305.59448      378.36788      18543.07       19358.679      78.331659    
Loop time of 3.13851 on 48 procs for 10000 steps with 481 atoms

Performance: 13.765 ns/day, 1.744 hours/ns, 3186.228 timesteps/s, 1.533 Matom-step/s
100.0% CPU use with 48 MPI tasks x 1 OpenMP threads

MPI task timing breakdown:
Section |  min time  |  avg time  |  max time  |%varavg| %total
---------------------------------------------------------------
Pair    | 0.0029954  | 0.14386    | 0.78965    |  54.0 |  4.58
Bond    | 0.0010157  | 0.1825     | 0.83474    |  56.2 |  5.81
Neigh   | 0.005023   | 0.0056962  | 0.0061482  |   0.4 |  0.18
Comm    | 1.2578     | 2.3096     | 2.8406     |  35.2 | 73.59
Output  | 0.0011399  | 0.0021278  | 0.003251   |   1.4 |  0.07
Modify  | 0.11505    | 0.39018    | 1.6547     |  80.3 | 12.43
Other   |            | 0.1045     |            |       |  3.33

Nlocal:        10.0208 ave          43 max           0 min
Histogram: 22 4 9 4 1 0 3 2 2 1
Nghost:        1930.23 ave        2413 max        1330 min
Histogram: 8 0 0 0 24 0 0 0 0 16
Neighs:              0 ave           0 max           0 min
Histogram: 48 0 0 0 0 0 0 0 0 0

Total # of neighbors = 0
Ave neighs/atom = 0
Ave special neighs/atom = 15.567568
Neighbor list builds = 15
Dangerous builds = 0
fix             myat1 all ave/time 1000 10 10000 v_zave v_zdes file simulation_data/abpot/${cpt}.dat
fix             myat1 all ave/time 1000 10 10000 v_zave v_zdes file simulation_data/abpot/7.dat
run             50000
Generated 0 of 1 mixed pair_coeff terms from geometric mixing rule
Per MPI rank memory allocation (min/avg/max) = 13.32 | 13.85 | 14.98 Mbytes
   Step          Temp          E_pair         E_mol          TotEng         Press     
    390000   305.59448      378.36788      18543.07       19358.679      78.331659    
    400000   292.1653       363.35023      18547.879      19329.256     -366.1875     
    410000   299.30933      369.03031      18541.781      19339.06      -288.22284    
    420000   293.07787      382.91292      18550.434      19352.679      255.53568    
    430000   314.17702      364.95638      18565.93       19380.407     -309.54058    
    440000   307.89139      368.40921      18516.376      19325.313     -238.05501    
Loop time of 15.1086 on 48 procs for 50000 steps with 481 atoms

Performance: 14.296 ns/day, 1.679 hours/ns, 3309.371 timesteps/s, 1.592 Matom-step/s
100.0% CPU use with 48 MPI tasks x 1 OpenMP threads

MPI task timing breakdown:
Section |  min time  |  avg time  |  max time  |%varavg| %total
---------------------------------------------------------------
Pair    | 0.014789   | 0.71996    | 3.8812     | 120.3 |  4.77
Bond    | 0.0052164  | 0.9123     | 4.1064     | 125.5 |  6.04
Neigh   | 0.027749   | 0.031437   | 0.033957   |   0.8 |  0.21
Comm    | 5.8168     | 11.028     | 13.548     |  74.9 | 72.99
Output  | 0.0055586  | 0.01059    | 0.015975   |   3.2 |  0.07
Modify  | 0.56571    | 1.883      | 7.5651     | 164.1 | 12.46
Other   |            | 0.5234     |            |       |  3.46

Nlocal:        10.0208 ave          50 max           0 min
Histogram: 21 11 4 4 1 2 2 1 1 1
Nghost:        1927.23 ave        2407 max        1323 min
Histogram: 8 0 0 0 24 0 0 0 0 16
Neighs:              0 ave           0 max           0 min
Histogram: 48 0 0 0 0 0 0 0 0 0

Total # of neighbors = 0
Ave neighs/atom = 0
Ave special neighs/atom = 15.567568
Neighbor list builds = 87
Dangerous builds = 0
unfix           myat1
next            cpt
jump            SELF loop
variable        zdes equal  -15+0.60*(${cpt}-1)
variable        zdes equal  -15+0.60*(8-1)
variable        zave equal xcm(H2,z)
fix             mytth2 H2 spring tether ${k1} 2.5 2.5 ${zdes} 0
fix             mytth2 H2 spring tether 3.5 2.5 2.5 ${zdes} 0
fix             mytth2 H2 spring tether 3.5 2.5 2.5 -10.8 0
run             10000
Generated 0 of 1 mixed pair_coeff terms from geometric mixing rule
Per MPI rank memory allocation (min/avg/max) = 13.32 | 13.85 | 14.98 Mbytes
   Step          Temp          E_pair         E_mol          TotEng         Press     
    440000   307.89139      368.40921      18516.376      19325.313     -238.05501    
    450000   287.93411      388.04804      18500.835      19300.856      251.74749    
Loop time of 2.97522 on 48 procs for 10000 steps with 481 atoms

Performance: 14.520 ns/day, 1.653 hours/ns, 3361.101 timesteps/s, 1.617 Matom-step/s
100.0% CPU use with 48 MPI tasks x 1 OpenMP threads

MPI task timing breakdown:
Section |  min time  |  avg time  |  max time  |%varavg| %total
---------------------------------------------------------------
Pair    | 0.0030009  | 0.14407    | 0.75068    |  54.4 |  4.84
Bond    | 0.0010413  | 0.18216    | 0.74585    |  56.0 |  6.12
Neigh   | 0.005864   | 0.0066985  | 0.0071988  |   0.4 |  0.23
Comm    | 1.2495     | 2.1788     | 2.6765     |  33.3 | 73.23
Output  | 0.0010859  | 0.0020861  | 0.00324    |   1.4 |  0.07
Modify  | 0.11332    | 0.35687    | 1.487      |  71.9 | 11.99
Other   |            | 0.1045     |            |       |  3.51

Nlocal:        10.0208 ave          51 max           0 min
Histogram: 25 7 3 6 1 1 2 2 0 1
Nghost:        1934.23 ave        2423 max        1322 min
Histogram: 8 0 0 0 24 0 0 0 0 16
Neighs:              0 ave           0 max           0 min
Histogram: 48 0 0 0 0 0 0 0 0 0

Total # of neighbors = 0
Ave neighs/atom = 0
Ave special neighs/atom = 15.567568
Neighbor list builds = 19
Dangerous builds = 0
fix             myat1 all ave/time 1000 10 10000 v_zave v_zdes file simulation_data/abpot/${cpt}.dat
fix             myat1 all ave/time 1000 10 10000 v_zave v_zdes file simulation_data/abpot/8.dat
run             50000
Generated 0 of 1 mixed pair_coeff terms from geometric mixing rule
Per MPI rank memory allocation (min/avg/max) = 13.32 | 13.85 | 14.98 Mbytes
   Step          Temp          E_pair         E_mol          TotEng         Press     
    450000   287.93411      388.04804      18500.835      19300.856      251.74749    
    460000   303.98519      381.02948      18511.195      19327.163      49.234172    
    470000   300.44979      377.39572      18543.072      19350.348      24.349894    
    480000   315.64399      377.33965      18536.013      19364.973     -110.51081    
    490000   314.39293      380.65358      18534.792      19365.276      187.22814    
    500000   295.90508      374.37321      18536.822      19334.573     -4.3897123    
Loop time of 15.2772 on 48 procs for 50000 steps with 481 atoms

Performance: 14.139 ns/day, 1.697 hours/ns, 3272.849 timesteps/s, 1.574 Matom-step/s
100.0% CPU use with 48 MPI tasks x 1 OpenMP threads

MPI task timing breakdown:
Section |  min time  |  avg time  |  max time  |%varavg| %total
---------------------------------------------------------------
Pair    | 0.014989   | 0.72052    | 3.7603     | 121.4 |  4.72
Bond    | 0.0051978  | 0.91177    | 4.0551     | 126.1 |  5.97
Neigh   | 0.02534    | 0.028641   | 0.030901   |   0.8 |  0.19
Comm    | 6.2762     | 11.172     | 13.669     |  75.9 | 73.13
Output  | 0.0057042  | 0.010757   | 0.016262   |   3.2 |  0.07
Modify  | 0.57784    | 1.9107     | 7.8671     | 168.4 | 12.51
Other   |            | 0.5228     |            |       |  3.42

Nlocal:        10.0208 ave          39 max           0 min
Histogram: 20 3 9 8 0 0 1 3 0 4
Nghost:        1935.98 ave        2418 max        1335 min
Histogram: 8 0 0 0 24 0 0 0 0 16
Neighs:              0 ave           0 max           0 min
Histogram: 48 0 0 0 0 0 0 0 0 0

Total # of neighbors = 0
Ave neighs/atom = 0
Ave special neighs/atom = 15.567568
Neighbor list builds = 78
Dangerous builds = 0
unfix           myat1
next            cpt
jump            SELF loop
variable        zdes equal  -15+0.60*(${cpt}-1)
variable        zdes equal  -15+0.60*(9-1)
variable        zave equal xcm(H2,z)
fix             mytth2 H2 spring tether ${k1} 2.5 2.5 ${zdes} 0
fix             mytth2 H2 spring tether 3.5 2.5 2.5 ${zdes} 0
fix             mytth2 H2 spring tether 3.5 2.5 2.5 -10.2 0
run             10000
Generated 0 of 1 mixed pair_coeff terms from geometric mixing rule
Per MPI rank memory allocation (min/avg/max) = 13.32 | 13.85 | 14.98 Mbytes
   Step          Temp          E_pair         E_mol          TotEng         Press     
    500000   295.90508      374.37321      18536.822      19334.573     -4.3897123    
    510000   292.45559      360.83668      18557.589      19336.868     -371.05918    
Loop time of 3.17996 on 48 procs for 10000 steps with 481 atoms

Performance: 13.585 ns/day, 1.767 hours/ns, 3144.689 timesteps/s, 1.513 Matom-step/s
100.0% CPU use with 48 MPI tasks x 1 OpenMP threads

MPI task timing breakdown:
Section |  min time  |  avg time  |  max time  |%varavg| %total
---------------------------------------------------------------
Pair    | 0.0029847  | 0.14436    | 0.79052    |  54.4 |  4.54
Bond    | 0.0010187  | 0.18276    | 0.82157    |  56.7 |  5.75
Neigh   | 0.0038297  | 0.0043131  | 0.0046391  |   0.3 |  0.14
Comm    | 1.3166     | 2.3451     | 2.8824     |  35.9 | 73.75
Output  | 0.0011178  | 0.0020809  | 0.0030974  |   1.4 |  0.07
Modify  | 0.11164    | 0.39694    | 1.6947     |  82.2 | 12.48
Other   |            | 0.1044     |            |       |  3.28

Nlocal:        10.0208 ave          43 max           0 min
Histogram: 20 10 3 7 0 1 3 0 1 3
Nghost:        1931.98 ave        2411 max        1330 min
Histogram: 8 0 0 0 24 0 0 0 0 16
Neighs:              0 ave           0 max           0 min
Histogram: 48 0 0 0 0 0 0 0 0 0

Total # of neighbors = 0
Ave neighs/atom = 0
Ave special neighs/atom = 15.567568
Neighbor list builds = 11
Dangerous builds = 0
fix             myat1 all ave/time 1000 10 10000 v_zave v_zdes file simulation_data/abpot/${cpt}.dat
fix             myat1 all ave/time 1000 10 10000 v_zave v_zdes file simulation_data/abpot/9.dat
run             50000
Generated 0 of 1 mixed pair_coeff terms from geometric mixing rule
Per MPI rank memory allocation (min/avg/max) = 13.32 | 13.86 | 14.98 Mbytes
   Step          Temp          E_pair         E_mol          TotEng         Press     
    510000   292.45559      360.83668      18557.589      19336.868     -371.05918    
    520000   307.29573      373.93348      18552.585      19366.193     -61.141917    
    530000   305.90328      382.40293      18519.925      19340.011      104.0265     
    540000   281.70896      371.39778      18527.902      19302.366     -38.853616    
    550000   300.8114       376.14023      18511.242      19317.78       22.034915    
    560000   295.17343      373.56614      18532.37       19328.267      85.000135    
Loop time of 15.4893 on 48 procs for 50000 steps with 481 atoms

Performance: 13.945 ns/day, 1.721 hours/ns, 3228.036 timesteps/s, 1.553 Matom-step/s
100.0% CPU use with 48 MPI tasks x 1 OpenMP threads

MPI task timing breakdown:
Section |  min time  |  avg time  |  max time  |%varavg| %total
---------------------------------------------------------------
Pair    | 0.014969   | 0.72078    | 3.8747     | 121.3 |  4.65
Bond    | 0.0052108  | 0.91263    | 4.0878     | 126.6 |  5.89
Neigh   | 0.02061    | 0.023171   | 0.024992   |   0.7 |  0.15
Comm    | 6.2539     | 11.375     | 14.003     |  77.5 | 73.44
Output  | 0.0056217  | 0.010646   | 0.01584    |   3.1 |  0.07
Modify  | 0.57096    | 1.9241     | 8.061      | 173.4 | 12.42
Other   |            | 0.523      |            |       |  3.38

Nlocal:        10.0208 ave          37 max           0 min
Histogram: 19 7 6 5 3 0 0 1 3 4
Nghost:        1931.23 ave        2413 max        1336 min
Histogram: 8 0 0 0 24 0 0 0 0 16
Neighs:              0 ave           0 max           0 min
Histogram: 48 0 0 0 0 0 0 0 0 0

Total # of neighbors = 0
Ave neighs/atom = 0
Ave special neighs/atom = 15.567568
Neighbor list builds = 62
Dangerous builds = 0
unfix           myat1
next            cpt
jump            SELF loop
variable        zdes equal  -15+0.60*(${cpt}-1)
variable        zdes equal  -15+0.60*(10-1)
variable        zave equal xcm(H2,z)
fix             mytth2 H2 spring tether ${k1} 2.5 2.5 ${zdes} 0
fix             mytth2 H2 spring tether 3.5 2.5 2.5 ${zdes} 0
fix             mytth2 H2 spring tether 3.5 2.5 2.5 -9.6 0
run             10000
Generated 0 of 1 mixed pair_coeff terms from geometric mixing rule
Per MPI rank memory allocation (min/avg/max) = 13.32 | 13.86 | 14.99 Mbytes
   Step          Temp          E_pair         E_mol          TotEng         Press     
    560000   295.17343      373.56614      18532.37       19328.267      85.000135    
    570000   295.42709      378.16095      18543.857      19344.712     -143.78768    
Loop time of 3.17315 on 48 procs for 10000 steps with 481 atoms

Performance: 13.614 ns/day, 1.763 hours/ns, 3151.438 timesteps/s, 1.516 Matom-step/s
100.0% CPU use with 48 MPI tasks x 1 OpenMP threads

MPI task timing breakdown:
Section |  min time  |  avg time  |  max time  |%varavg| %total
---------------------------------------------------------------
Pair    | 0.0029951  | 0.1446     | 0.81448    |  54.7 |  4.56
Bond    | 0.0010263  | 0.18294    | 0.88779    |  57.4 |  5.77
Neigh   | 0.008009   | 0.0088916  | 0.0095747  |   0.4 |  0.28
Comm    | 1.2077     | 2.3329     | 2.8769     |  35.6 | 73.52
Output  | 0.0011498  | 0.0021539  | 0.0032979  |   1.4 |  0.07
Modify  | 0.11096    | 0.39668    | 1.6635     |  80.3 | 12.50
Other   |            | 0.105      |            |       |  3.31

Nlocal:        10.0208 ave          39 max           0 min
Histogram: 19 7 6 8 0 0 1 3 1 3
Nghost:        1923.98 ave        2398 max        1335 min
Histogram: 8 0 0 0 24 0 0 0 0 16
Neighs:              0 ave           0 max           0 min
Histogram: 48 0 0 0 0 0 0 0 0 0

Total # of neighbors = 0
Ave neighs/atom = 0
Ave special neighs/atom = 15.567568
Neighbor list builds = 23
Dangerous builds = 0
fix             myat1 all ave/time 1000 10 10000 v_zave v_zdes file simulation_data/abpot/${cpt}.dat
fix             myat1 all ave/time 1000 10 10000 v_zave v_zdes file simulation_data/abpot/10.dat
run             50000
Generated 0 of 1 mixed pair_coeff terms from geometric mixing rule
Per MPI rank memory allocation (min/avg/max) = 13.32 | 13.86 | 14.99 Mbytes
   Step          Temp          E_pair         E_mol          TotEng         Press     
    570000   295.42709      378.16095      18543.857      19344.712     -143.78768    
    580000   315.66731      377.71561      18547.496      19376.865      94.422101    
    590000   322.22561      377.00688      18534.41       19372.454     -16.988396    
    600000   304.13725      384.41651      18530.396      19349.968      267.71009    
    610000   287.8522       371.35294      18560.215      19343.423     -305.95489    
    620000   302.30785      369.62306      18556.63       19358.792     -182.86352    
Loop time of 15.406 on 48 procs for 50000 steps with 481 atoms

Performance: 14.020 ns/day, 1.712 hours/ns, 3245.481 timesteps/s, 1.561 Matom-step/s
100.0% CPU use with 48 MPI tasks x 1 OpenMP threads

MPI task timing breakdown:
Section |  min time  |  avg time  |  max time  |%varavg| %total
---------------------------------------------------------------
Pair    | 0.015091   | 0.72106    | 3.7124     | 120.9 |  4.68
Bond    | 0.0051062  | 0.91277    | 3.9956     | 126.3 |  5.92
Neigh   | 0.029822   | 0.033709   | 0.036318   |   0.9 |  0.22
Comm    | 6.4055     | 11.287     | 13.932     |  77.5 | 73.26
Output  | 0.0056024  | 0.010636   | 0.015732   |   3.1 |  0.07
Modify  | 0.56649    | 1.9195     | 7.9076     | 173.0 | 12.46
Other   |            | 0.5213     |            |       |  3.38

Nlocal:        10.0208 ave          46 max           0 min
Histogram: 21 8 7 4 0 2 2 2 1 1
Nghost:        1922.98 ave        2401 max        1327 min
Histogram: 8 0 0 0 24 0 0 0 0 16
Neighs:              0 ave           0 max           0 min
Histogram: 48 0 0 0 0 0 0 0 0 0

Total # of neighbors = 0
Ave neighs/atom = 0
Ave special neighs/atom = 15.567568
Neighbor list builds = 91
Dangerous builds = 0
unfix           myat1
next            cpt
jump            SELF loop
variable        zdes equal  -15+0.60*(${cpt}-1)
variable        zdes equal  -15+0.60*(11-1)
variable        zave equal xcm(H2,z)
fix             mytth2 H2 spring tether ${k1} 2.5 2.5 ${zdes} 0
fix             mytth2 H2 spring tether 3.5 2.5 2.5 ${zdes} 0
fix             mytth2 H2 spring tether 3.5 2.5 2.5 -9 0
run             10000
Generated 0 of 1 mixed pair_coeff terms from geometric mixing rule
Per MPI rank memory allocation (min/avg/max) = 13.32 | 13.86 | 14.99 Mbytes
   Step          Temp          E_pair         E_mol          TotEng         Press     
    620000   302.30785      369.62306      18556.63       19358.792     -182.86352    
    630000   307.52559      381.71186      18542.41       19364.126      187.31405    
Loop time of 3.08689 on 48 procs for 10000 steps with 481 atoms

Performance: 13.995 ns/day, 1.715 hours/ns, 3239.502 timesteps/s, 1.558 Matom-step/s
100.0% CPU use with 48 MPI tasks x 1 OpenMP threads

MPI task timing breakdown:
Section |  min time  |  avg time  |  max time  |%varavg| %total
---------------------------------------------------------------
Pair    | 0.0030188  | 0.14437    | 0.77646    |  54.5 |  4.68
Bond    | 0.0010161  | 0.18269    | 0.81424    |  56.8 |  5.92
Neigh   | 0.0052298  | 0.0058772  | 0.0063155  |   0.3 |  0.19
Comm    | 1.2413     | 2.2604     | 2.7831     |  34.5 | 73.23
Output  | 0.0011038  | 0.0020867  | 0.0031449  |   1.4 |  0.07
Modify  | 0.11277    | 0.38679    | 1.598      |  76.7 | 12.53
Other   |            | 0.1047     |            |       |  3.39

Nlocal:        10.0208 ave          46 max           0 min
Histogram: 21 7 9 3 1 0 3 2 1 1
Nghost:         1925.6 ave        2408 max        1327 min
Histogram: 8 0 0 0 24 0 0 0 0 16
Neighs:              0 ave           0 max           0 min
Histogram: 48 0 0 0 0 0 0 0 0 0

Total # of neighbors = 0
Ave neighs/atom = 0
Ave special neighs/atom = 15.567568
Neighbor list builds = 16
Dangerous builds = 0
fix             myat1 all ave/time 1000 10 10000 v_zave v_zdes file simulation_data/abpot/${cpt}.dat
fix             myat1 all ave/time 1000 10 10000 v_zave v_zdes file simulation_data/abpot/11.dat
run             50000
Generated 0 of 1 mixed pair_coeff terms from geometric mixing rule
Per MPI rank memory allocation (min/avg/max) = 13.32 | 13.86 | 14.99 Mbytes
   Step          Temp          E_pair         E_mol          TotEng         Press     
    630000   307.52559      381.71186      18542.41       19364.126      187.31405    
    640000   301.23343      389.80971      18534.411      19355.222      219.81913    
    650000   299.10018      374.46788      18541.516      19343.933     -133.61958    
    660000   305.61498      370.95273      18533.279      19341.502     -255.2551     
    670000   328.1097       381.01481      18521.375      19371.845      83.400147    
    680000   310.05543      379.83978      18526.673      19350.137      126.90261    
Loop time of 15.274 on 48 procs for 50000 steps with 481 atoms

Performance: 14.142 ns/day, 1.697 hours/ns, 3273.546 timesteps/s, 1.575 Matom-step/s
100.0% CPU use with 48 MPI tasks x 1 OpenMP threads

MPI task timing breakdown:
Section |  min time  |  avg time  |  max time  |%varavg| %total
---------------------------------------------------------------
Pair    | 0.014971   | 0.72431    | 3.9376     | 122.6 |  4.74
Bond    | 0.0051659  | 0.91308    | 4.0731     | 127.0 |  5.98
Neigh   | 0.039117   | 0.044228   | 0.047702   |   1.0 |  0.29
Comm    | 5.9929     | 11.177     | 13.688     |  75.8 | 73.17
Output  | 0.0055683  | 0.010578   | 0.015804   |   3.1 |  0.07
Modify  | 0.5752     | 1.8828     | 7.6193     | 166.5 | 12.33
Other   |            | 0.5222     |            |       |  3.42

Nlocal:        10.0208 ave          46 max           0 min
Histogram: 22 6 10 1 2 0 3 2 1 1
Nghost:         1924.6 ave        2399 max        1327 min
Histogram: 8 0 0 0 24 0 0 0 0 16
Neighs:              0 ave           0 max           0 min
Histogram: 48 0 0 0 0 0 0 0 0 0

Total # of neighbors = 0
Ave neighs/atom = 0
Ave special neighs/atom = 15.567568
Neighbor list builds = 122
Dangerous builds = 0
unfix           myat1
next            cpt
jump            SELF loop
variable        zdes equal  -15+0.60*(${cpt}-1)
variable        zdes equal  -15+0.60*(12-1)
variable        zave equal xcm(H2,z)
fix             mytth2 H2 spring tether ${k1} 2.5 2.5 ${zdes} 0
fix             mytth2 H2 spring tether 3.5 2.5 2.5 ${zdes} 0
fix             mytth2 H2 spring tether 3.5 2.5 2.5 -8.4 0
run             10000
Generated 0 of 1 mixed pair_coeff terms from geometric mixing rule
Per MPI rank memory allocation (min/avg/max) = 13.32 | 13.86 | 14.99 Mbytes
   Step          Temp          E_pair         E_mol          TotEng         Press     
    680000   310.05543      379.83978      18526.673      19350.137      126.90261    
    690000   297.84214      373.8857       18526.723      19326.758      54.00639     
Loop time of 3.04281 on 48 procs for 10000 steps with 481 atoms

Performance: 14.197 ns/day, 1.690 hours/ns, 3286.431 timesteps/s, 1.581 Matom-step/s
100.0% CPU use with 48 MPI tasks x 1 OpenMP threads

MPI task timing breakdown:
Section |  min time  |  avg time  |  max time  |%varavg| %total
---------------------------------------------------------------
Pair    | 0.0029737  | 0.14476    | 0.78374    |  54.8 |  4.76
Bond    | 0.0010286  | 0.1824     | 0.82882    |  56.7 |  5.99
Neigh   | 0.0081772  | 0.0092259  | 0.0099067  |   0.4 |  0.30
Comm    | 1.1778     | 2.2296     | 2.7216     |  33.9 | 73.28
Output  | 0.0010997  | 0.0020851  | 0.0031229  |   1.4 |  0.07
Modify  | 0.11347    | 0.37014    | 1.5211     |  74.5 | 12.16
Other   |            | 0.1045     |            |       |  3.44

Nlocal:        10.0208 ave          47 max           0 min
Histogram: 21 8 8 3 1 1 2 2 1 1
Nghost:        1924.38 ave        2400 max        1326 min
Histogram: 8 0 0 0 24 0 0 0 0 16
Neighs:              0 ave           0 max           0 min
Histogram: 48 0 0 0 0 0 0 0 0 0

Total # of neighbors = 0
Ave neighs/atom = 0
Ave special neighs/atom = 15.567568
Neighbor list builds = 25
Dangerous builds = 0
fix             myat1 all ave/time 1000 10 10000 v_zave v_zdes file simulation_data/abpot/${cpt}.dat
fix             myat1 all ave/time 1000 10 10000 v_zave v_zdes file simulation_data/abpot/12.dat
run             50000
Generated 0 of 1 mixed pair_coeff terms from geometric mixing rule
Per MPI rank memory allocation (min/avg/max) = 13.32 | 13.86 | 14.99 Mbytes
   Step          Temp          E_pair         E_mol          TotEng         Press     
    690000   297.84214      373.8857       18526.723      19326.758      54.00639     
    700000   299.18144      390.11674      18526.978      19345.16      -140.73916    
    710000   303.30576      389.91779      18521.302      19345.186      91.078108    
    720000   287.41457      378.67067      18535.601      19325.501     -244.86778    
    730000   302.50631      380.34953      18513.835      19327.007     -332.68504    
    740000   288.70415      375.98936      18535.971      19325.035     -2.1046241    
Loop time of 15.2763 on 48 procs for 50000 steps with 481 atoms

Performance: 14.140 ns/day, 1.697 hours/ns, 3273.050 timesteps/s, 1.574 Matom-step/s
100.0% CPU use with 48 MPI tasks x 1 OpenMP threads

MPI task timing breakdown:
Section |  min time  |  avg time  |  max time  |%varavg| %total
---------------------------------------------------------------
Pair    | 0.01495    | 0.72947    | 3.8172     | 123.0 |  4.78
Bond    | 0.0051699  | 0.91359    | 3.975      | 125.9 |  5.98
Neigh   | 0.06114    | 0.068979   | 0.074062   |   1.2 |  0.45
Comm    | 6.1638     | 11.164     | 13.623     |  75.1 | 73.08
Output  | 0.0056014  | 0.010727   | 0.016222   |   3.2 |  0.07
Modify  | 0.57362    | 1.8674     | 7.5793     | 164.3 | 12.22
Other   |            | 0.5221     |            |       |  3.42

Nlocal:        10.0208 ave          40 max           0 min
Histogram: 19 8 7 6 0 0 1 2 2 3
Nghost:        1924.35 ave        2402 max        1335 min
Histogram: 8 0 0 0 24 0 0 0 0 16
Neighs:              0 ave           0 max           0 min
Histogram: 48 0 0 0 0 0 0 0 0 0

Total # of neighbors = 0
Ave neighs/atom = 0
Ave special neighs/atom = 15.567568
Neighbor list builds = 188
Dangerous builds = 0
unfix           myat1
next            cpt
jump            SELF loop
variable        zdes equal  -15+0.60*(${cpt}-1)
variable        zdes equal  -15+0.60*(13-1)
variable        zave equal xcm(H2,z)
fix             mytth2 H2 spring tether ${k1} 2.5 2.5 ${zdes} 0
fix             mytth2 H2 spring tether 3.5 2.5 2.5 ${zdes} 0
fix             mytth2 H2 spring tether 3.5 2.5 2.5 -7.8 0
run             10000
Generated 0 of 1 mixed pair_coeff terms from geometric mixing rule
Per MPI rank memory allocation (min/avg/max) = 13.32 | 13.86 | 14.99 Mbytes
   Step          Temp          E_pair         E_mol          TotEng         Press     
    740000   288.70415      375.98936      18535.971      19325.035     -2.1046241    
    750000   314.76354      394.51258      18527.594      19372.467      121.42225    
Loop time of 3.01924 on 48 procs for 10000 steps with 481 atoms

Performance: 14.308 ns/day, 1.677 hours/ns, 3312.088 timesteps/s, 1.593 Matom-step/s
100.0% CPU use with 48 MPI tasks x 1 OpenMP threads

MPI task timing breakdown:
Section |  min time  |  avg time  |  max time  |%varavg| %total
---------------------------------------------------------------
Pair    | 0.0030194  | 0.14557    | 0.77871    |  55.2 |  4.82
Bond    | 0.001031   | 0.18227    | 0.78376    |  56.3 |  6.04
Neigh   | 0.016306   | 0.018592   | 0.020063   |   0.7 |  0.62
Comm    | 1.1889     | 2.1952     | 2.7088     |  33.6 | 72.71
Output  | 0.0011124  | 0.0021068  | 0.0031602  |   1.4 |  0.07
Modify  | 0.11768    | 0.37172    | 1.5095     |  73.2 | 12.31
Other   |            | 0.1038     |            |       |  3.44

Nlocal:        10.0208 ave          36 max           0 min
Histogram: 19 8 5 4 4 0 0 1 1 6
Nghost:        1931.73 ave        2414 max        1338 min
Histogram: 8 0 0 0 24 0 0 0 0 16
Neighs:              0 ave           0 max           0 min
Histogram: 48 0 0 0 0 0 0 0 0 0

Total # of neighbors = 0
Ave neighs/atom = 0
Ave special neighs/atom = 15.567568
Neighbor list builds = 53
Dangerous builds = 0
fix             myat1 all ave/time 1000 10 10000 v_zave v_zdes file simulation_data/abpot/${cpt}.dat
fix             myat1 all ave/time 1000 10 10000 v_zave v_zdes file simulation_data/abpot/13.dat
run             50000
Generated 0 of 1 mixed pair_coeff terms from geometric mixing rule
Per MPI rank memory allocation (min/avg/max) = 13.32 | 13.86 | 14.99 Mbytes
   Step          Temp          E_pair         E_mol          TotEng         Press     
    750000   314.76354      394.51258      18527.594      19372.467      121.42225    
    760000   304.96673      386.57735      18551.742      19374.662     -267.08122    
    770000   292.10788      382.31565      18526.459      19326.719     -175.73832    
    780000   296.06561      394.65694      18510.77       19329.035      118.06572    
    790000   285.999        381.22485      18518.565      19308.994     -64.361241    
    800000   314.92276      385.37485      18525.575      19361.537     -170.44978    
Loop time of 15.409 on 48 procs for 50000 steps with 481 atoms

Performance: 14.018 ns/day, 1.712 hours/ns, 3244.858 timesteps/s, 1.561 Matom-step/s
100.0% CPU use with 48 MPI tasks x 1 OpenMP threads

MPI task timing breakdown:
Section |  min time  |  avg time  |  max time  |%varavg| %total
---------------------------------------------------------------
Pair    | 0.014918   | 0.72916    | 3.8562     | 123.2 |  4.73
Bond    | 0.0051808  | 0.91285    | 3.9521     | 125.6 |  5.92
Neigh   | 0.083778   | 0.094995   | 0.10204    |   1.4 |  0.62
Comm    | 6.4102     | 11.282     | 13.862     |  76.4 | 73.22
Output  | 0.0055965  | 0.010664   | 0.015981   |   3.2 |  0.07
Modify  | 0.57895    | 1.8588     | 7.793      | 170.0 | 12.06
Other   |            | 0.5201     |            |       |  3.38

Nlocal:        10.0208 ave          38 max           0 min
Histogram: 21 4 9 5 1 0 1 1 3 3
Nghost:        1929.35 ave        2409 max        1335 min
Histogram: 8 0 0 0 24 0 0 0 0 16
Neighs:              0 ave           0 max           0 min
Histogram: 48 0 0 0 0 0 0 0 0 0

Total # of neighbors = 0
Ave neighs/atom = 0
Ave special neighs/atom = 15.567568
Neighbor list builds = 264
Dangerous builds = 0
unfix           myat1
next            cpt
jump            SELF loop
variable        zdes equal  -15+0.60*(${cpt}-1)
variable        zdes equal  -15+0.60*(14-1)
variable        zave equal xcm(H2,z)
fix             mytth2 H2 spring tether ${k1} 2.5 2.5 ${zdes} 0
fix             mytth2 H2 spring tether 3.5 2.5 2.5 ${zdes} 0
fix             mytth2 H2 spring tether 3.5 2.5 2.5 -7.2 0
run             10000
Generated 0 of 1 mixed pair_coeff terms from geometric mixing rule
Per MPI rank memory allocation (min/avg/max) = 13.32 | 13.86 | 14.99 Mbytes
   Step          Temp          E_pair         E_mol          TotEng         Press     
    800000   314.92276      385.37485      18525.575      19361.537     -170.44978    
    810000   320.54736      392.2948       18539.485      19390.416      19.396215    
Loop time of 3.12605 on 48 procs for 10000 steps with 481 atoms

Performance: 13.819 ns/day, 1.737 hours/ns, 3198.921 timesteps/s, 1.539 Matom-step/s
100.0% CPU use with 48 MPI tasks x 1 OpenMP threads

MPI task timing breakdown:
Section |  min time  |  avg time  |  max time  |%varavg| %total
---------------------------------------------------------------
Pair    | 0.0030111  | 0.14652    | 0.80696    |  55.9 |  4.69
Bond    | 0.0010377  | 0.18285    | 0.76305    |  56.2 |  5.85
Neigh   | 0.015171   | 0.017216   | 0.018485   |   0.6 |  0.55
Comm    | 1.2947     | 2.2897     | 2.8259     |  35.1 | 73.25
Output  | 0.0011496  | 0.0021401  | 0.003198   |   1.4 |  0.07
Modify  | 0.1122     | 0.38329    | 1.6133     |  78.5 | 12.26
Other   |            | 0.1043     |            |       |  3.34

Nlocal:        10.0208 ave          43 max           0 min
Histogram: 21 6 8 5 0 2 1 1 1 3
Nghost:        1927.85 ave        2403 max        1330 min
Histogram: 8 0 0 0 24 0 0 0 0 16
Neighs:              0 ave           0 max           0 min
Histogram: 48 0 0 0 0 0 0 0 0 0

Total # of neighbors = 0
Ave neighs/atom = 0
Ave special neighs/atom = 15.567568
Neighbor list builds = 47
Dangerous builds = 0
fix             myat1 all ave/time 1000 10 10000 v_zave v_zdes file simulation_data/abpot/${cpt}.dat
fix             myat1 all ave/time 1000 10 10000 v_zave v_zdes file simulation_data/abpot/14.dat
run             50000
Generated 0 of 1 mixed pair_coeff terms from geometric mixing rule
Per MPI rank memory allocation (min/avg/max) = 13.32 | 13.86 | 14.99 Mbytes
   Step          Temp          E_pair         E_mol          TotEng         Press     
    810000   320.54736      392.2948       18539.485      19390.416      19.396215    
    820000   303.28545      393.5211       18511.905      19339.364      92.887536    
    830000   287.61338      387.89343      18539.178      19338.586     -252.90961    
    840000   313.96109      388.32076      18517.946      19355.478     -29.034191    
    850000   308.18185      393.65204      18556.54       19391.135      40.589076    
    860000   310.59922      384.39589      18520.691      19349.489     -163.84516    
Loop time of 15.049 on 48 procs for 50000 steps with 481 atoms

Performance: 14.353 ns/day, 1.672 hours/ns, 3322.484 timesteps/s, 1.598 Matom-step/s
100.0% CPU use with 48 MPI tasks x 1 OpenMP threads

MPI task timing breakdown:
Section |  min time  |  avg time  |  max time  |%varavg| %total
---------------------------------------------------------------
Pair    | 0.015192   | 0.73137    | 3.9232     | 123.9 |  4.86
Bond    | 0.0051752  | 0.91297    | 3.7644     | 125.1 |  6.07
Neigh   | 0.071803   | 0.081583   | 0.087919   |   1.3 |  0.54
Comm    | 6.0903     | 10.976     | 13.504     |  75.4 | 72.94
Output  | 0.0054864  | 0.010558   | 0.016003   |   3.2 |  0.07
Modify  | 0.5708     | 1.8161     | 7.5075     | 163.4 | 12.07
Other   |            | 0.5199     |            |       |  3.45

Nlocal:        10.0208 ave          47 max           0 min
Histogram: 21 9 9 1 1 1 2 1 2 1
Nghost:        1927.98 ave        2410 max        1326 min
Histogram: 8 0 0 0 24 0 0 0 0 16
Neighs:              0 ave           0 max           0 min
Histogram: 48 0 0 0 0 0 0 0 0 0

Total # of neighbors = 0
Ave neighs/atom = 0
Ave special neighs/atom = 15.567568
Neighbor list builds = 230
Dangerous builds = 0
unfix           myat1
next            cpt
jump            SELF loop
variable        zdes equal  -15+0.60*(${cpt}-1)
variable        zdes equal  -15+0.60*(15-1)
variable        zave equal xcm(H2,z)
fix             mytth2 H2 spring tether ${k1} 2.5 2.5 ${zdes} 0
fix             mytth2 H2 spring tether 3.5 2.5 2.5 ${zdes} 0
fix             mytth2 H2 spring tether 3.5 2.5 2.5 -6.6 0
run             10000
Generated 0 of 1 mixed pair_coeff terms from geometric mixing rule
Per MPI rank memory allocation (min/avg/max) = 13.32 | 13.86 | 14.99 Mbytes
   Step          Temp          E_pair         E_mol          TotEng         Press     
    860000   310.59922      384.39589      18520.691      19349.489     -163.84516    
    870000   298.70357      395.31532      18516.41       19339.107      100.20416    
Loop time of 3.00066 on 48 procs for 10000 steps with 481 atoms

Performance: 14.397 ns/day, 1.667 hours/ns, 3332.601 timesteps/s, 1.603 Matom-step/s
100.0% CPU use with 48 MPI tasks x 1 OpenMP threads

MPI task timing breakdown:
Section |  min time  |  avg time  |  max time  |%varavg| %total
---------------------------------------------------------------
Pair    | 0.0029772  | 0.14588    | 0.77649    |  55.5 |  4.86
Bond    | 0.0010268  | 0.18225    | 0.72976    |  55.9 |  6.07
Neigh   | 0.011835   | 0.013492   | 0.014551   |   0.6 |  0.45
Comm    | 1.2423     | 2.1867     | 2.6693     |  33.9 | 72.88
Output  | 0.0010628  | 0.0020525  | 0.003219   |   1.4 |  0.07
Modify  | 0.11172    | 0.36639    | 1.5102     |  73.3 | 12.21
Other   |            | 0.1039     |            |       |  3.46

Nlocal:        10.0208 ave          40 max           0 min
Histogram: 19 5 9 7 0 0 2 1 1 4
Nghost:        1926.23 ave        2405 max        1333 min
Histogram: 8 0 0 0 24 0 0 0 0 16
Neighs:              0 ave           0 max           0 min
Histogram: 48 0 0 0 0 0 0 0 0 0

Total # of neighbors = 0
Ave neighs/atom = 0
Ave special neighs/atom = 15.567568
Neighbor list builds = 38
Dangerous builds = 0
fix             myat1 all ave/time 1000 10 10000 v_zave v_zdes file simulation_data/abpot/${cpt}.dat
fix             myat1 all ave/time 1000 10 10000 v_zave v_zdes file simulation_data/abpot/15.dat
run             50000
Generated 0 of 1 mixed pair_coeff terms from geometric mixing rule
Per MPI rank memory allocation (min/avg/max) = 13.32 | 13.86 | 14.99 Mbytes
   Step          Temp          E_pair         E_mol          TotEng         Press     
    870000   298.70357      395.31532      18516.41       19339.107      100.20416    
    880000   276.07396      396.86274      18520.733      19312.599      22.395953    
    890000   300.95464      378.93439      18510.136      19319.673     -422.60973    
    900000   297.61696      391.69169      18549.532      19367.05       17.112804    
    910000   313.00287      396.05351      18524.972      19368.866      79.99822     
    920000   305.47585      384.24594      18516.666      19337.984     -125.45171    
Loop time of 15.235 on 48 procs for 50000 steps with 481 atoms

Performance: 14.178 ns/day, 1.693 hours/ns, 3281.919 timesteps/s, 1.579 Matom-step/s
100.0% CPU use with 48 MPI tasks x 1 OpenMP threads

MPI task timing breakdown:
Section |  min time  |  avg time  |  max time  |%varavg| %total
---------------------------------------------------------------
Pair    | 0.014942   | 0.73196    | 3.9848     | 125.0 |  4.80
Bond    | 0.0051392  | 0.91337    | 3.7953     | 125.5 |  6.00
Neigh   | 0.058385   | 0.066226   | 0.071261   |   1.2 |  0.43
Comm    | 6.1987     | 11.137     | 13.697     |  77.0 | 73.10
Output  | 0.005678   | 0.010789   | 0.016244   |   3.2 |  0.07
Modify  | 0.58493    | 1.8552     | 7.6577     | 168.5 | 12.18
Other   |            | 0.5204     |            |       |  3.42

Nlocal:        10.0208 ave          38 max           0 min
Histogram: 19 8 6 5 2 0 1 1 2 4
Nghost:        1921.75 ave        2406 max        1337 min
Histogram: 8 0 0 0 24 0 0 0 0 16
Neighs:              0 ave           0 max           0 min
Histogram: 48 0 0 0 0 0 0 0 0 0

Total # of neighbors = 0
Ave neighs/atom = 0
Ave special neighs/atom = 15.567568
Neighbor list builds = 185
Dangerous builds = 0
unfix           myat1
next            cpt
jump            SELF loop
variable        zdes equal  -15+0.60*(${cpt}-1)
variable        zdes equal  -15+0.60*(16-1)
variable        zave equal xcm(H2,z)
fix             mytth2 H2 spring tether ${k1} 2.5 2.5 ${zdes} 0
fix             mytth2 H2 spring tether 3.5 2.5 2.5 ${zdes} 0
fix             mytth2 H2 spring tether 3.5 2.5 2.5 -6 0
run             10000
Generated 0 of 1 mixed pair_coeff terms from geometric mixing rule
Per MPI rank memory allocation (min/avg/max) = 13.32 | 13.86 | 14.99 Mbytes
   Step          Temp          E_pair         E_mol          TotEng         Press     
    920000   305.47585      384.24594      18516.666      19337.984     -125.45171    
    930000   297.07716      388.53541      18511.101      19324.691     -128.24781    
Loop time of 3.07626 on 48 procs for 10000 steps with 481 atoms

Performance: 14.043 ns/day, 1.709 hours/ns, 3250.698 timesteps/s, 1.564 Matom-step/s
100.0% CPU use with 48 MPI tasks x 1 OpenMP threads

MPI task timing breakdown:
Section |  min time  |  avg time  |  max time  |%varavg| %total
---------------------------------------------------------------
Pair    | 0.002986   | 0.14668    | 0.78443    |  55.8 |  4.77
Bond    | 0.0010315  | 0.18296    | 0.76978    |  56.2 |  5.95
Neigh   | 0.015679   | 0.017758   | 0.019094   |   0.6 |  0.58
Comm    | 1.2915     | 2.245      | 2.7711     |  34.8 | 72.98
Output  | 0.0011937  | 0.0022063  | 0.0032668  |   1.4 |  0.07
Modify  | 0.11361    | 0.37766    | 1.5762     |  76.8 | 12.28
Other   |            | 0.104      |            |       |  3.38

Nlocal:        10.0208 ave          44 max           0 min
Histogram: 20 8 9 3 0 3 0 2 1 2
Nghost:         1924.6 ave        2397 max        1329 min
Histogram: 8 0 0 0 24 0 0 0 0 16
Neighs:              0 ave           0 max           0 min
Histogram: 48 0 0 0 0 0 0 0 0 0

Total # of neighbors = 0
Ave neighs/atom = 0
Ave special neighs/atom = 15.567568
Neighbor list builds = 48
Dangerous builds = 0
fix             myat1 all ave/time 1000 10 10000 v_zave v_zdes file simulation_data/abpot/${cpt}.dat
fix             myat1 all ave/time 1000 10 10000 v_zave v_zdes file simulation_data/abpot/16.dat
run             50000
Generated 0 of 1 mixed pair_coeff terms from geometric mixing rule
Per MPI rank memory allocation (min/avg/max) = 13.32 | 13.86 | 14.99 Mbytes
   Step          Temp          E_pair         E_mol          TotEng         Press     
    930000   297.07716      388.53541      18511.101      19324.691     -128.24781    
    940000   305.2012       393.55779      18510.637      19340.873      11.282835    
    950000   322.10706      386.98883      18543.223      19391.079     -94.929153    
    960000   311.31812      398.21494      18529.434      19373.079      80.229573    
    970000   308.86705      386.97018      18527.121      19356.014     -141.38302    
    980000   268.4073       382.96751      18519.27       19286.272     -288.1913     
Loop time of 15.5024 on 48 procs for 50000 steps with 481 atoms

Performance: 13.933 ns/day, 1.722 hours/ns, 3225.317 timesteps/s, 1.551 Matom-step/s
100.0% CPU use with 48 MPI tasks x 1 OpenMP threads

MPI task timing breakdown:
Section |  min time  |  avg time  |  max time  |%varavg| %total
---------------------------------------------------------------
Pair    | 0.015039   | 0.73266    | 3.8988     | 124.1 |  4.73
Bond    | 0.0051939  | 0.91418    | 3.9802     | 125.3 |  5.90
Neigh   | 0.07387    | 0.083393   | 0.089502   |   1.3 |  0.54
Comm    | 6.4413     | 11.353     | 13.978     |  76.9 | 73.23
Output  | 0.0054705  | 0.010603   | 0.015836   |   3.2 |  0.07
Modify  | 0.55847    | 1.8891     | 7.8062     | 170.3 | 12.19
Other   |            | 0.5193     |            |       |  3.35

Nlocal:        10.0208 ave          41 max           0 min
Histogram: 22 5 6 7 0 1 0 3 2 2
Nghost:        1926.75 ave        2414 max        1336 min
Histogram: 8 0 0 1 23 0 0 0 0 16
Neighs:              0 ave           0 max           0 min
Histogram: 48 0 0 0 0 0 0 0 0 0

Total # of neighbors = 0
Ave neighs/atom = 0
Ave special neighs/atom = 15.567568
Neighbor list builds = 224
Dangerous builds = 0
unfix           myat1
next            cpt
jump            SELF loop
variable        zdes equal  -15+0.60*(${cpt}-1)
variable        zdes equal  -15+0.60*(17-1)
variable        zave equal xcm(H2,z)
fix             mytth2 H2 spring tether ${k1} 2.5 2.5 ${zdes} 0
fix             mytth2 H2 spring tether 3.5 2.5 2.5 ${zdes} 0
fix             mytth2 H2 spring tether 3.5 2.5 2.5 -5.4 0
run             10000
Generated 0 of 1 mixed pair_coeff terms from geometric mixing rule
Per MPI rank memory allocation (min/avg/max) = 13.32 | 13.86 | 14.99 Mbytes
   Step          Temp          E_pair         E_mol          TotEng         Press     
    980000   268.4073       382.96751      18519.27       19286.272     -288.1913     
    990000   291.37123      387.86061      18525.534      19330.286     -164.83193    
Loop time of 3.15615 on 48 procs for 10000 steps with 481 atoms

Performance: 13.688 ns/day, 1.753 hours/ns, 3168.413 timesteps/s, 1.524 Matom-step/s
100.0% CPU use with 48 MPI tasks x 1 OpenMP threads

MPI task timing breakdown:
Section |  min time  |  avg time  |  max time  |%varavg| %total
---------------------------------------------------------------
Pair    | 0.0030304  | 0.14674    | 0.77373    |  55.3 |  4.65
Bond    | 0.0010236  | 0.18295    | 0.87006    |  56.5 |  5.80
Neigh   | 0.011677   | 0.013069   | 0.013969   |   0.5 |  0.41
Comm    | 1.2468     | 2.322      | 2.8579     |  34.7 | 73.57
Output  | 0.0011213  | 0.0021617  | 0.0032481  |   1.5 |  0.07
Modify  | 0.11116    | 0.38518    | 1.6254     |  78.0 | 12.20
Other   |            | 0.104      |            |       |  3.30

Nlocal:        10.0208 ave          44 max           0 min
Histogram: 22 6 8 3 1 3 1 0 2 2
Nghost:        1926.62 ave        2404 max        1329 min
Histogram: 8 0 0 0 24 0 0 0 0 16
Neighs:              0 ave           0 max           0 min
Histogram: 48 0 0 0 0 0 0 0 0 0

Total # of neighbors = 0
Ave neighs/atom = 0
Ave special neighs/atom = 15.567568
Neighbor list builds = 34
[...]
Section |  min time  |  avg time  |  max time  |%varavg| %total
---------------------------------------------------------------
Pair    | 0.0030588  | 0.14451    | 0.8246     |  54.1 |  4.59
Bond    | 0.0010222  | 0.18266    | 0.77407    |  56.1 |  5.80
Neigh   | 0.0057939  | 0.0065263  | 0.0070425  |   0.4 |  0.21
Comm    | 1.3737     | 2.3159     | 2.8507     |  34.5 | 73.53
Output  | 0.0011231  | 0.0021385  | 0.0032351  |   1.4 |  0.07
Modify  | 0.11728    | 0.39295    | 1.6256     |  78.2 | 12.48
Other   |            | 0.1049     |            |       |  3.33

Nlocal:        10.0208 ave          50 max           0 min
Histogram: 22 8 8 3 0 2 2 1 1 1
Nghost:        1932.85 ave        2411 max        1331 min
Histogram: 8 0 0 0 24 0 0 0 0 16
Neighs:              0 ave           0 max           0 min
Histogram: 48 0 0 0 0 0 0 0 0 0

Total # of neighbors = 0
Ave neighs/atom = 0
Ave special neighs/atom = 15.567568
Neighbor list builds = 17
Dangerous builds = 0
fix             myat1 all ave/time 1000 10 10000 v_zave v_zdes file simulation_data/abpot/${cpt}.dat
fix             myat1 all ave/time 1000 10 10000 v_zave v_zdes file simulation_data/abpot/47.dat
run             50000
Generated 0 of 1 mixed pair_coeff terms from geometric mixing rule
Per MPI rank memory allocation (min/avg/max) = 13.32 | 13.88 | 14.99 Mbytes
   Step          Temp          E_pair         E_mol          TotEng         Press     
   2790000   281.12269      367.99485      18498.179      19268.401     -185.15739    
   2800000   285.46093      372.32105      18516.072      19296.828     -19.80236     
   2810000   284.23073      374.1651       18541.963      19322.802     -65.320728    
   2820000   287.30516      372.37781      18498.818      19282.269     -100.22325    
   2830000   297.58668      370.00503      18495.849      19291.637     -151.30612    
   2840000   306.25309      378.34949      18490.362      19306.895     -17.532955    
Loop time of 15.7566 on 48 procs for 50000 steps with 481 atoms

Performance: 13.709 ns/day, 1.751 hours/ns, 3173.269 timesteps/s, 1.526 Matom-step/s
100.0% CPU use with 48 MPI tasks x 1 OpenMP threads

MPI task timing breakdown:
Section |  min time  |  avg time  |  max time  |%varavg| %total
---------------------------------------------------------------
Pair    | 0.01517    | 0.72152    | 3.9947     | 119.8 |  4.58
Bond    | 0.0052554  | 0.91407    | 3.8438     | 125.3 |  5.80
Neigh   | 0.027747   | 0.031112   | 0.033517   |   0.8 |  0.20
Comm    | 7.0553     | 11.576     | 14.259     |  76.9 | 73.47
Output  | 0.0057141  | 0.010792   | 0.016244   |   3.2 |  0.07
Modify  | 0.57797    | 1.9808     | 8.0732     | 174.2 | 12.57
Other   |            | 0.5223     |            |       |  3.31

Nlocal:        10.0208 ave          42 max           0 min
Histogram: 22 6 7 4 1 2 1 1 1 3
Nghost:        1927.85 ave        2403 max        1331 min
Histogram: 8 0 0 0 24 0 0 0 0 16
Neighs:              0 ave           0 max           0 min
Histogram: 48 0 0 0 0 0 0 0 0 0

Total # of neighbors = 0
Ave neighs/atom = 0
Ave special neighs/atom = 15.567568
Neighbor list builds = 81
Dangerous builds = 0
unfix           myat1
next            cpt
jump            SELF loop
variable        zdes equal  -15+0.60*(${cpt}-1)
variable        zdes equal  -15+0.60*(48-1)
variable        zave equal xcm(H2,z)
fix             mytth2 H2 spring tether ${k1} 2.5 2.5 ${zdes} 0
fix             mytth2 H2 spring tether 3.5 2.5 2.5 ${zdes} 0
fix             mytth2 H2 spring tether 3.5 2.5 2.5 13.2 0
run             10000
Generated 0 of 1 mixed pair_coeff terms from geometric mixing rule
Per MPI rank memory allocation (min/avg/max) = 13.32 | 13.88 | 14.99 Mbytes
   Step          Temp          E_pair         E_mol          TotEng         Press     
   2840000   306.25309      378.34949      18490.362      19306.895     -17.532955    
   2850000   313.22426      377.67936      18509.56       19335.397      171.89871    
Loop time of 3.11057 on 48 procs for 10000 steps with 481 atoms

Performance: 13.888 ns/day, 1.728 hours/ns, 3214.843 timesteps/s, 1.546 Matom-step/s
100.0% CPU use with 48 MPI tasks x 1 OpenMP threads

MPI task timing breakdown:
Section |  min time  |  avg time  |  max time  |%varavg| %total
---------------------------------------------------------------
Pair    | 0.0030806  | 0.14417    | 0.79884    |  53.7 |  4.63
Bond    | 0.0010319  | 0.18271    | 0.76628    |  56.2 |  5.87
Neigh   | 0.010621   | 0.011973   | 0.012909   |   0.5 |  0.38
Comm    | 1.2715     | 2.269      | 2.7773     |  33.4 | 72.94
Output  | 0.0011174  | 0.0021414  | 0.0032881  |   1.4 |  0.07
Modify  | 0.11857    | 0.39639    | 1.5707     |  74.2 | 12.74
Other   |            | 0.1042     |            |       |  3.35

Nlocal:        10.0208 ave          44 max           0 min
Histogram: 20 9 8 3 2 0 0 2 2 2
Nghost:        1932.85 ave        2412 max        1335 min
Histogram: 8 0 0 0 24 0 0 0 0 16
Neighs:              0 ave           0 max           0 min
Histogram: 48 0 0 0 0 0 0 0 0 0

Total # of neighbors = 0
Ave neighs/atom = 0
Ave special neighs/atom = 15.567568
Neighbor list builds = 32
Dangerous builds = 0
fix             myat1 all ave/time 1000 10 10000 v_zave v_zdes file simulation_data/abpot/${cpt}.dat
fix             myat1 all ave/time 1000 10 10000 v_zave v_zdes file simulation_data/abpot/48.dat
run             50000
Generated 0 of 1 mixed pair_coeff terms from geometric mixing rule
Per MPI rank memory allocation (min/avg/max) = 13.32 | 13.88 | 14.99 Mbytes
   Step          Temp          E_pair         E_mol          TotEng         Press     
   2850000   313.22426      377.67936      18509.56       19335.397      171.89871    
   2860000   304.98943      368.27264      18506.29       19310.938     -332.4494     
   2870000   292.53533      377.18474      18492.663      19288.404      53.954152    
   2880000   290.16625      377.59018      18492.508      19285.265      180.68986    
   2890000   304.31699      368.59948      18515.296      19319.309     -160.30062    
   2900000   307.44376      373.67976      18527.682      19341.249     -92.182018    
Loop time of 15.8266 on 48 procs for 50000 steps with 481 atoms

Performance: 13.648 ns/day, 1.759 hours/ns, 3159.245 timesteps/s, 1.520 Matom-step/s
100.0% CPU use with 48 MPI tasks x 1 OpenMP threads

MPI task timing breakdown:
Section |  min time  |  avg time  |  max time  |%varavg| %total
---------------------------------------------------------------
Pair    | 0.015673   | 0.72079    | 3.8663     | 120.6 |  4.55
Bond    | 0.0051245  | 0.91365    | 3.6693     | 125.1 |  5.77
Neigh   | 0.032598   | 0.036541   | 0.039141   |   0.8 |  0.23
Comm    | 7.0418     | 11.609     | 14.195     |  76.4 | 73.35
Output  | 0.0055448  | 0.010661   | 0.016176   |   3.2 |  0.07
Modify  | 0.58649    | 2.0148     | 8.1358     | 172.7 | 12.73
Other   |            | 0.5214     |            |       |  3.29

Nlocal:        10.0208 ave          39 max           0 min
Histogram: 20 7 5 6 2 0 2 1 1 4
Nghost:        1925.48 ave        2406 max        1335 min
Histogram: 8 0 0 0 24 0 0 0 0 16
Neighs:              0 ave           0 max           0 min
Histogram: 48 0 0 0 0 0 0 0 0 0

Total # of neighbors = 0
Ave neighs/atom = 0
Ave special neighs/atom = 15.567568
Neighbor list builds = 95
Dangerous builds = 0
unfix           myat1
next            cpt
jump            SELF loop
variable        zdes equal  -15+0.60*(${cpt}-1)
variable        zdes equal  -15+0.60*(49-1)
variable        zave equal xcm(H2,z)
fix             mytth2 H2 spring tether ${k1} 2.5 2.5 ${zdes} 0
fix             mytth2 H2 spring tether 3.5 2.5 2.5 ${zdes} 0
fix             mytth2 H2 spring tether 3.5 2.5 2.5 13.8 0
run             10000
Generated 0 of 1 mixed pair_coeff terms from geometric mixing rule
Per MPI rank memory allocation (min/avg/max) = 13.32 | 13.88 | 14.99 Mbytes
   Step          Temp          E_pair         E_mol          TotEng         Press     
   2900000   307.44376      373.67976      18527.682      19341.249     -92.182018    
   2910000   288.34187      379.68688      18518.12       19310.363      198.57642    
Loop time of 3.12651 on 48 procs for 10000 steps with 481 atoms

Performance: 13.817 ns/day, 1.737 hours/ns, 3198.459 timesteps/s, 1.538 Matom-step/s
100.0% CPU use with 48 MPI tasks x 1 OpenMP threads

MPI task timing breakdown:
Section |  min time  |  avg time  |  max time  |%varavg| %total
---------------------------------------------------------------
Pair    | 0.0030626  | 0.14416    | 0.73537    |  53.5 |  4.61
Bond    | 0.0010181  | 0.1828     | 0.78603    |  56.2 |  5.85
Neigh   | 0.0051362  | 0.0057375  | 0.0061756  |   0.3 |  0.18
Comm    | 1.3859     | 2.2912     | 2.7949     |  33.5 | 73.28
Output  | 0.0010892  | 0.0021177  | 0.0032976  |   1.5 |  0.07
Modify  | 0.11505    | 0.39592    | 1.5892     |  75.0 | 12.66
Other   |            | 0.1045     |            |       |  3.34

Nlocal:        10.0208 ave          40 max           0 min
Histogram: 21 6 5 5 3 0 0 4 1 3
Nghost:        1935.73 ave        2423 max        1333 min
Histogram: 8 0 0 0 24 0 0 0 0 16
Neighs:              0 ave           0 max           0 min
Histogram: 48 0 0 0 0 0 0 0 0 0

Total # of neighbors = 0
Ave neighs/atom = 0
Ave special neighs/atom = 15.567568
Neighbor list builds = 15
Dangerous builds = 0
fix             myat1 all ave/time 1000 10 10000 v_zave v_zdes file simulation_data/abpot/${cpt}.dat
fix             myat1 all ave/time 1000 10 10000 v_zave v_zdes file simulation_data/abpot/49.dat
run             50000
Generated 0 of 1 mixed pair_coeff terms from geometric mixing rule
Per MPI rank memory allocation (min/avg/max) = 13.32 | 13.88 | 14.99 Mbytes
   Step          Temp          E_pair         E_mol          TotEng         Press     
   2910000   288.34187      379.68688      18518.12       19310.363      198.57642    
   2920000   283.73219      368.05187      18510.949      19284.962     -119.26314    
   2930000   312.72509      371.41931      18491.747      19310.61       2.8032773    
   2940000   316.40523      374.03429      18531.12       19357.863     -12.451695    
   2950000   290.46544      364.23316      18566.832      19346.66      -208.51848    
   2960000   290.59297      368.7685       18493.402      19277.948     -84.973079    
Loop time of 15.6081 on 48 procs for 50000 steps with 481 atoms

Performance: 13.839 ns/day, 1.734 hours/ns, 3203.470 timesteps/s, 1.541 Matom-step/s
100.0% CPU use with 48 MPI tasks x 1 OpenMP threads

MPI task timing breakdown:
Section |  min time  |  avg time  |  max time  |%varavg| %total
---------------------------------------------------------------
Pair    | 0.015122   | 0.7204     | 3.8278     | 120.7 |  4.62
Bond    | 0.0052098  | 0.91362    | 3.7753     | 125.3 |  5.85
Neigh   | 0.01647    | 0.018472   | 0.019901   |   0.6 |  0.12
Comm    | 6.7107     | 11.444     | 14.117     |  74.8 | 73.32
Output  | 0.0055607  | 0.01058    | 0.015918   |   3.2 |  0.07
Modify  | 0.58341    | 1.9794     | 7.9162     | 166.6 | 12.68
Other   |            | 0.5221     |            |       |  3.34

Nlocal:        10.0208 ave          44 max           0 min
Histogram: 24 7 2 5 3 2 1 0 1 3
Nghost:        1926.23 ave        2406 max        1331 min
Histogram: 8 0 0 0 24 0 0 0 0 16
Neighs:              0 ave           0 max           0 min
Histogram: 48 0 0 0 0 0 0 0 0 0

Total # of neighbors = 0
Ave neighs/atom = 0
Ave special neighs/atom = 15.567568
Neighbor list builds = 48
Dangerous builds = 0
unfix           myat1
next            cpt
jump            SELF loop
variable        zdes equal  -15+0.60*(${cpt}-1)
variable        zdes equal  -15+0.60*(50-1)
variable        zave equal xcm(H2,z)
fix             mytth2 H2 spring tether ${k1} 2.5 2.5 ${zdes} 0
fix             mytth2 H2 spring tether 3.5 2.5 2.5 ${zdes} 0
fix             mytth2 H2 spring tether 3.5 2.5 2.5 14.4 0
run             10000
Generated 0 of 1 mixed pair_coeff terms from geometric mixing rule
Per MPI rank memory allocation (min/avg/max) = 13.32 | 13.88 | 14.99 Mbytes
   Step          Temp          E_pair         E_mol          TotEng         Press     
   2960000   290.59297      368.7685       18493.402      19277.948     -84.973079    
   2970000   284.08302      376.76811      18505.887      19289.118      76.766833    
Loop time of 3.1508 on 48 procs for 10000 steps with 481 atoms

Performance: 13.711 ns/day, 1.750 hours/ns, 3173.799 timesteps/s, 1.527 Matom-step/s
100.0% CPU use with 48 MPI tasks x 1 OpenMP threads

MPI task timing breakdown:
Section |  min time  |  avg time  |  max time  |%varavg| %total
---------------------------------------------------------------
Pair    | 0.0030455  | 0.144      | 0.77503    |  53.7 |  4.57
Bond    | 0.0010217  | 0.1828     | 0.7353     |  55.8 |  5.80
Neigh   | 0.0041186  | 0.0045898  | 0.0049129  |   0.3 |  0.15
Comm    | 1.4066     | 2.3132     | 2.8529     |  34.0 | 73.42
Output  | 0.0011403  | 0.0021266  | 0.0031645  |   1.4 |  0.07
Modify  | 0.11861    | 0.39985    | 1.6013     |  77.4 | 12.69
Other   |            | 0.1043     |            |       |  3.31

Nlocal:        10.0208 ave          46 max           0 min
Histogram: 22 5 9 4 1 0 3 3 0 1
Nghost:        1935.23 ave        2425 max        1337 min
Histogram: 8 0 0 0 24 0 0 0 0 16
Neighs:              0 ave           0 max           0 min
Histogram: 48 0 0 0 0 0 0 0 0 0

Total # of neighbors = 0
Ave neighs/atom = 0
Ave special neighs/atom = 15.567568
Neighbor list builds = 12
Dangerous builds = 0
fix             myat1 all ave/time 1000 10 10000 v_zave v_zdes file simulation_data/abpot/${cpt}.dat
fix             myat1 all ave/time 1000 10 10000 v_zave v_zdes file simulation_data/abpot/50.dat
run             50000
Generated 0 of 1 mixed pair_coeff terms from geometric mixing rule
Per MPI rank memory allocation (min/avg/max) = 13.32 | 13.88 | 14.99 Mbytes
   Step          Temp          E_pair         E_mol          TotEng         Press     
   2970000   284.08302      376.76811      18505.887      19289.118      76.766833    
   2980000   316.55288      368.56476      18502.762      19324.247     -222.76388    
   2990000   294.57565      374.6041       18525.05       19321.13      -70.35336     
   3000000   296.85629      379.46363      18476.419      19280.621      196.53678    
   3010000   282.35995      365.57207      18511.639      19281.209     -237.76879    
   3020000   293.72398      371.4348       18527.928      19319.62      -87.886492    
Loop time of 15.8062 on 48 procs for 50000 steps with 481 atoms

Performance: 13.666 ns/day, 1.756 hours/ns, 3163.312 timesteps/s, 1.522 Matom-step/s
100.0% CPU use with 48 MPI tasks x 1 OpenMP threads

MPI task timing breakdown:
Section |  min time  |  avg time  |  max time  |%varavg| %total
---------------------------------------------------------------
Pair    | 0.015049   | 0.72068    | 3.63       | 119.5 |  4.56
Bond    | 0.0052776  | 0.91483    | 3.8967     | 125.8 |  5.79
Neigh   | 0.023403   | 0.026363   | 0.028396   |   0.7 |  0.17
Comm    | 7.0275     | 11.617     | 14.323     |  76.6 | 73.50
Output  | 0.0056925  | 0.010706   | 0.016234   |   3.1 |  0.07
Modify  | 0.57894    | 1.9938     | 7.9824     | 173.4 | 12.61
Other   |            | 0.5229     |            |       |  3.31

Nlocal:        10.0208 ave          41 max           0 min
Histogram: 25 4 6 2 2 1 3 0 3 2
Nghost:        1928.73 ave        2409 max        1332 min
Histogram: 8 0 0 0 24 0 0 0 0 16
Neighs:              0 ave           0 max           0 min
Histogram: 48 0 0 0 0 0 0 0 0 0

Total # of neighbors = 0
Ave neighs/atom = 0
Ave special neighs/atom = 15.567568
Neighbor list builds = 68
Dangerous builds = 0
unfix           myat1
next            cpt
jump            SELF loop
variable        zdes equal  -15+0.60*(${cpt}-1)
variable        zdes equal  -15+0.60*(51-1)
variable        zave equal xcm(H2,z)
fix             mytth2 H2 spring tether ${k1} 2.5 2.5 ${zdes} 0
fix             mytth2 H2 spring tether 3.5 2.5 2.5 ${zdes} 0
fix             mytth2 H2 spring tether 3.5 2.5 2.5 15 0
run             10000
Generated 0 of 1 mixed pair_coeff terms from geometric mixing rule
Per MPI rank memory allocation (min/avg/max) = 13.32 | 13.88 | 14.99 Mbytes
   Step          Temp          E_pair         E_mol          TotEng         Press     
   3020000   293.72398      371.4348       18527.928      19319.62      -87.886492    
   3030000   329.44129      378.03393      18492.724      19342.119      238.75568    
Loop time of 3.24129 on 48 procs for 10000 steps with 481 atoms

Performance: 13.328 ns/day, 1.801 hours/ns, 3085.187 timesteps/s, 1.484 Matom-step/s
100.0% CPU use with 48 MPI tasks x 1 OpenMP threads

MPI task timing breakdown:
Section |  min time  |  avg time  |  max time  |%varavg| %total
---------------------------------------------------------------
Pair    | 0.0030216  | 0.14441    | 0.73843    |  53.6 |  4.46
Bond    | 0.0010341  | 0.18337    | 0.77227    |  56.3 |  5.66
Neigh   | 0.0061485  | 0.0068656  | 0.007403   |   0.4 |  0.21
Comm    | 1.4581     | 2.3866     | 2.9506     |  34.7 | 73.63
Output  | 0.0011721  | 0.0021804  | 0.0032331  |   1.4 |  0.07
Modify  | 0.11451    | 0.41348    | 1.6622     |  80.0 | 12.76
Other   |            | 0.1044     |            |       |  3.22

Nlocal:        10.0208 ave          49 max           0 min
Histogram: 22 8 8 2 2 1 1 2 0 2
Nghost:        1934.85 ave        2415 max        1327 min
Histogram: 8 0 0 0 24 0 0 0 0 16
Neighs:              0 ave           0 max           0 min
Histogram: 48 0 0 0 0 0 0 0 0 0

Total # of neighbors = 0
Ave neighs/atom = 0
Ave special neighs/atom = 15.567568
Neighbor list builds = 17
Dangerous builds = 0
fix             myat1 all ave/time 1000 10 10000 v_zave v_zdes file simulation_data/abpot/${cpt}.dat
fix             myat1 all ave/time 1000 10 10000 v_zave v_zdes file simulation_data/abpot/51.dat
run             50000
Generated 0 of 1 mixed pair_coeff terms from geometric mixing rule
Per MPI rank memory allocation (min/avg/max) = 13.32 | 13.88 | 14.99 Mbytes
   Step          Temp          E_pair         E_mol          TotEng         Press     
   3030000   329.44129      378.03393      18492.724      19342.119      238.75568    
   3040000   294.43658      358.59842      18554.703      19334.578     -426.39226    
   3050000   285.54025      365.7573       18532.742      19307.047     -223.49539    
   3060000   310.90457      373.13604      18497.867      19315.842      10.386858    
   3070000   309.5642       369.81669      18534.821      19347.559     -75.003949    
   3080000   314.86228      371.5559       18527.647      19349.705      73.178457    
Loop time of 15.952 on 48 procs for 50000 steps with 481 atoms

Performance: 13.541 ns/day, 1.772 hours/ns, 3134.412 timesteps/s, 1.508 Matom-step/s
100.0% CPU use with 48 MPI tasks x 1 OpenMP threads

MPI task timing breakdown:
Section |  min time  |  avg time  |  max time  |%varavg| %total
---------------------------------------------------------------
Pair    | 0.015278   | 0.7193     | 3.8168     | 119.3 |  4.51
Bond    | 0.0051712  | 0.91499    | 3.888      | 125.5 |  5.74
Neigh   | 0.025729   | 0.028836   | 0.031107   |   0.8 |  0.18
Comm    | 7.0777     | 11.715     | 14.322     |  77.0 | 73.44
Output  | 0.0057516  | 0.010781   | 0.016299   |   3.1 |  0.07
Modify  | 0.56821    | 2.0398     | 8.2734     | 175.9 | 12.79
Other   |            | 0.5229     |            |       |  3.28

Nlocal:        10.0208 ave          50 max           0 min
Histogram: 22 7 9 2 4 0 0 1 1 2
Nghost:        1934.85 ave        2421 max        1323 min
Histogram: 8 0 0 0 24 0 0 0 0 16
Neighs:              0 ave           0 max           0 min
Histogram: 48 0 0 0 0 0 0 0 0 0

Total # of neighbors = 0
Ave neighs/atom = 0
Ave special neighs/atom = 15.567568
Neighbor list builds = 73
Dangerous builds = 0
unfix           myat1
next            cpt
jump            SELF loop

Total wall time: 0:15:59
