# --- log file ---

variable pre equal 112 # desired pressure (Atm)
variable tem equal 300 # desired temperature (K)

variable k1 equal 0.5 # spring constant
variable k2 equal 2.5 # spring constant

units real
atom_style molecular
boundary p p p
neighbor 1.0 bin
neigh_modify delay 3 one 6000
bond_style harmonic
angle_style harmonic
dihedral_style opls
improper_style harmonic
pair_style hybrid lj/cut 14 sg 15 cb 30 # Fluid-fluid interactions have a cutoff of 15 Å, fluid-solid interactions have a cutoff of 30 Å
# *--* C-C parameters *--*
bond_style harmonic
angle_style harmonic
dihedral_style opls
improper_style harmonic
# *--* C-C parameters *--*


# 2. Read the graphite platelet data file and define potentials parameters
read_data       ../geometry/carbonPlatelets/simulation_data/abpot_sys.data  extra/atom/types 1
Reading data file ...
  orthogonal box = (-30 -30 -30) to (30 30 30)
  3 by 4 by 4 MPI processor grid
  reading atoms ...
  480 atoms
  reading velocities ...
  480 velocities
  scanning bonds ...
  2 = max bonds/atom
  scanning angles ...
  3 = max angles/atom
  scanning dihedrals ...
  8 = max dihedrals/atom
  scanning impropers ...
  2 = max impropers/atom
  orthogonal box = (-30 -30 -30) to (30 30 30)
  3 by 4 by 4 MPI processor grid
  reading bonds ...
  676 bonds
  reading angles ...
  1268 angles
  reading dihedrals ...
  2394 dihedrals
  reading impropers ...
  396 impropers
Finding 1-2 1-3 1-4 neighbors ...
  special bond factors lj:    0        0        0       
  special bond factors coul:  0        0        0       
     3 = max # of 1-2 neighbors
     6 = max # of 1-3 neighbors
    18 = max # of 1-4 neighbors
    18 = max # of special neighbors
  special bonds CPU = 0.003 seconds
  read_data CPU = 0.050 seconds
include         PARM.lammps

#////////////////////////////////////////////////////////////////////////////////////////////////////////////////////////////////
#//     Filename: PARM.lammps
#//     File Type: LAMMPS input script
#//     Description: This script defines the parameters for the simulation of hydrogen absorption in graphite platelets.
#//     Author: Edoardo Cabiati
#//     Date: 2024-07-27
#////////////////////////////////////////////////////////////////////////////////////////////////////////////////////////////////

mass 2 2.016 # For now at least, in accordance with the paper by Wang and Johnson,
             # 1998, the hydrogen atoms are regarded as simple spherical atoms

# //////////////////////////////////////    C-C potentials    //////////////////////////////////////
pair_coeff 1 1 lj/cut 0.066 3.4
bond_coeff 1 469 1.4
angle_coeff 1 63 120
dihedral_coeff 1 0 7.25 0 0
improper_coeff 1 5 180
special_bonds lj 0.0 0.0 0.5
Finding 1-2 1-3 1-4 neighbors ...
  special bond factors lj:    0        0        0.5     
  special bond factors coul:  0        0        0       
     3 = max # of 1-2 neighbors
     6 = max # of 1-3 neighbors
    18 = max # of 1-4 neighbors
    18 = max # of special neighbors
  special bonds CPU = 0.001 seconds
# //////////////////////////////////////    C-C potentials    //////////////////////////////////////
# -------------------------------------------------------------------------------------------------
# //////////////////////////////////////    H-H potentials    //////////////////////////////////////
variable alpha equal 1.713          #|
variable sigma equal 1.567          #|
variable gamma equal 0.00993        #|
variable c6 equal 12.14             #|      The parameters are all in atomic units, the conversion to kcal/mol
variable c8 equal 215.2             #|      is performed in the pair_sg.cpp file
variable c9 equal 143.1             #|
variable c10 equal 4813.9           #|
variable rc equal 8.321             #|
pair_coeff 2 2 sg ${alpha} ${sigma} ${gamma} ${c6} ${c8} ${c9} ${c10} ${rc} # H-H potentials
pair_coeff 2 2 sg 1.713 ${sigma} ${gamma} ${c6} ${c8} ${c9} ${c10} ${rc} 
pair_coeff 2 2 sg 1.713 1.567 ${gamma} ${c6} ${c8} ${c9} ${c10} ${rc} 
pair_coeff 2 2 sg 1.713 1.567 0.00993 ${c6} ${c8} ${c9} ${c10} ${rc} 
pair_coeff 2 2 sg 1.713 1.567 0.00993 12.14 ${c8} ${c9} ${c10} ${rc} 
pair_coeff 2 2 sg 1.713 1.567 0.00993 12.14 215.2 ${c9} ${c10} ${rc} 
pair_coeff 2 2 sg 1.713 1.567 0.00993 12.14 215.2 143.1 ${c10} ${rc} 
pair_coeff 2 2 sg 1.713 1.567 0.00993 12.14 215.2 143.1 4813.9 ${rc} 
pair_coeff 2 2 sg 1.713 1.567 0.00993 12.14 215.2 143.1 4813.9 8.321 
#pair_coeff 2 2 sg 1.713 1.567 0.00993 12.14 215.2 143.1 4813.9 8.321 # H-H potentials
# //////////////////////////////////////    H-H potentials    //////////////////////////////////////
# -------------------------------------------------------------------------------------------------
# //////////////////////////////////////    C-H potentials    //////////////////////////////////////
variable sigma_CC equal 3.43 # Å
variable sigma_HH equal 3.075 # Å
variable sigma_CH_geo equal sqrt(${sigma_CC}*${sigma_HH}) # Å
variable sigma_CH_geo equal sqrt(3.43*${sigma_HH}) 
variable sigma_CH_geo equal sqrt(3.43*3.075) 
variable sigma_CH_arit equal 0.5*(${sigma_CC}+${sigma_HH}) # Å
variable sigma_CH_arit equal 0.5*(3.43+${sigma_HH}) 
variable sigma_CH_arit equal 0.5*(3.43+3.075) 

variable P_par equal 0.57 # Å^3
variable P_perp equal 1.995 # Å^3
variable P_h equal 0.81 # Å^3
variable E_h equal 2.337e5*(1/503.23) # K * 1/503.23 kcal/mol/K = kcal/mol
variable E_c equal 1.39254e5*(1/503.23) # K * 1/503.23 kcal/mol/K = kcal/mol

variable epsilon equal 4*v_E_h*v_E_c*v_P_h*(v_P_par+v_P_perp/2)/(v_sigma_CH_geo^6*(v_E_h+v_E_c)) # kcal/mol

pair_coeff 1 2 cb ${epsilon} ${sigma_CH_geo} ${P_par} ${P_perp} # C-H potential
pair_coeff 1 2 cb 0.750549668586509 ${sigma_CH_geo} ${P_par} ${P_perp} 
pair_coeff 1 2 cb 0.750549668586509 3.24765299870537 ${P_par} ${P_perp} 
pair_coeff 1 2 cb 0.750549668586509 3.24765299870537 0.57 ${P_perp} 
pair_coeff 1 2 cb 0.750549668586509 3.24765299870537 0.57 1.995 
#pair_coeff 1 2 lj/cut 0.3025 2.065
# //////////////////////////////////////    C-H potentials    //////////////////////////////////////

# 3. Add a single hydrogen molecule to the system, close to the center of the first platelet
create_atoms    2 single 0 0 -2
Created 1 atoms
  using lattice units in orthogonal box = (-30 -30 -30) to (30 30 30)
  create_atoms CPU = 0.000 seconds

group           C type 1
480 atoms in group C
group           H2 type 2
1 atoms in group H2

# 4. Equilibration
timestep        0.05
fix             mytth1 C spring/self ${k2} # Apply a spring force to the carbon atoms
fix             mytth1 C spring/self 2.5 
velocity        all create ${tem} 48 rot yes mom yes dist gaussian # Initialize velocities
velocity        all create 300 48 rot yes mom yes dist gaussian 
fix             mynpt all npt temp ${tem} ${tem} 100 x ${pre} ${pre} 1000 y ${pre} ${pre} 1000 # Apply NPT ensemble to the system
fix             mynpt all npt temp 300 ${tem} 100 x ${pre} ${pre} 1000 y ${pre} ${pre} 1000 
fix             mynpt all npt temp 300 300 100 x ${pre} ${pre} 1000 y ${pre} ${pre} 1000 
fix             mynpt all npt temp 300 300 100 x 112 ${pre} 1000 y ${pre} ${pre} 1000 
fix             mynpt all npt temp 300 300 100 x 112 112 1000 y ${pre} ${pre} 1000 
fix             mynpt all npt temp 300 300 100 x 112 112 1000 y 112 ${pre} 1000 
fix             mynpt all npt temp 300 300 100 x 112 112 1000 y 112 112 1000 

thermo          1000
dump            dump all atom 1000 simulation_data/absorption_pot.lammpstrj

run             20000

CITE-CITE-CITE-CITE-CITE-CITE-CITE-CITE-CITE-CITE-CITE-CITE-CITE

Your simulation uses code contributions which should be cited:

- Type Label Framework: https://doi.org/10.1021/acs.jpcb.3c08419

@Article{Gissinger24,
 author = {Jacob R. Gissinger, Ilia Nikiforov, Yaser Afshar, Brendon Waters, Moon-ki Choi, Daniel S. Karls, Alexander Stukowski, Wonpil Im, Hendrik Heinz, Axel Kohlmeyer, and Ellad B. Tadmor},
 title = {Type Label Framework for Bonded Force Fields in LAMMPS},
 journal = {J. Phys. Chem. B},
 year =    2024,
 volume =  128,
 number =  13,
 pages =   {3282–-3297}
}

CITE-CITE-CITE-CITE-CITE-CITE-CITE-CITE-CITE-CITE-CITE-CITE-CITE

Generated 0 of 1 mixed pair_coeff terms from geometric mixing rule
Neighbor list info ...
  update: every = 1 steps, delay = 3 steps, check = yes
  max neighbors/atom: 6000, page size: 100000
  master list distance cutoff = 31
  ghost atom cutoff = 31
  binsize = 15.5, bins = 4 4 4
  4 neighbor lists, perpetual/occasional/extra = 4 0 0
  (1) pair lj/cut, perpetual, skip trim from (4)
      attributes: half, newton on, cut 15
      pair build: skip/trim
      stencil: none
      bin: none
  (2) pair sg, perpetual, skip trim from (4)
      attributes: half, newton on, cut 16
      pair build: skip/trim
      stencil: none
      bin: none
  (3) pair cb, perpetual, skip from (4)
      attributes: half, newton on
      pair build: skip
      stencil: none
      bin: none
  (4) neighbor class addition, perpetual
      attributes: half, newton on
      pair build: half/bin/newton
      stencil: half/bin/3d
      bin: standard
Per MPI rank memory allocation (min/avg/max) = 13.28 | 13.37 | 13.93 Mbytes
   Step          Temp          E_pair         E_mol          TotEng         Press          Volume    
         0   300            308.43814      19603.922      20341.597     -432.48369      216000       
      1000   539.28481      474.90214      18930.511      20177.016      925.57319      208246.51    
      2000   513.66516      379.35657      18927.781      20042.084     -577.21644      210322.3     
      3000   452.10534      365.12872      18882.276      19894.272     -553.80306      208897.53    
      4000   398.49888      451.16491      18776.444      19797.776      785.85309      202473.36    
      5000   404.82323      350.66871      18776.756      19706.641     -950.31081      202441.87    
      6000   355.22541      415.01872      18660.894      19584.166      222.34687      195846.89    
      7000   371.94161      396.35915      18621.877      19550.406      136.66262      191938.7     
      8000   320.30518      372.897        18632.833      19464.019     -348.5597       188292.93    
      9000   318.0402       410.79969      18553.518      19419.366      287.58463      182099.95    
     10000   316.19925      372.43749      18560.777      19385.629     -429.95184      178677.27    
     11000   290.1828       392.27167      18528.721      19336.183     -27.470332      173262.06    
     12000   291.25999      389.62663      18522.665      19329.023      84.370129      168839.25    
     13000   274.27332      379.755        18534.843      19307.025     -245.02251      164556.51    
     14000   274.4512       387.95403      18528.256      19308.891     -182.93138      159750.89    
     15000   287.30796      380.23765      18528.43       19319.745     -321.83411      155731.85    
     16000   285.60361      387.39269      18529.507      19325.538     -210.05173      151090.25    
     17000   293.98181      385.79879      18551.823      19358.248     -204.48285      146928.26    
     18000   307.10723      378.3826       18557.936      19375.725     -399.49253      142955.49    
     19000   308.31113      388.42374      18550.442      19379.994     -212.93328      138612.54    
     20000   321.12375      376.41763      18551.171      19387.049     -319.26564      135000.31    
Loop time of 10.0127 on 48 procs for 20000 steps with 481 atoms

Performance: 8.629 ns/day, 2.781 hours/ns, 1997.463 timesteps/s, 960.780 katom-step/s
99.8% CPU use with 48 MPI tasks x 1 OpenMP threads

MPI task timing breakdown:
Section |  min time  |  avg time  |  max time  |%varavg| %total
---------------------------------------------------------------
Pair    | 0.12373    | 0.56675    | 3.3303     |  95.0 |  5.66
Bond    | 0.0040667  | 0.50275    | 3.3119     | 129.1 |  5.02
Neigh   | 0.027277   | 0.029807   | 0.032706   |   0.9 |  0.30
Comm    | 2.4999     | 5.6844     | 8.4566     |  90.7 | 56.77
Output  | 0.0062663  | 0.011923   | 0.018509   |   3.7 |  0.12
Modify  | 0.70877    | 2.8795     | 6.5277     | 137.1 | 28.76
Other   |            | 0.3375     |            |       |  3.37

Nlocal:        10.0208 ave          48 max           0 min
Histogram: 22 12 6 0 0 0 2 2 2 2
Nghost:        1818.35 ave        2346 max        1176 min
Histogram: 8 0 0 0 24 0 0 0 0 16
Neighs:              0 ave           0 max           0 min
Histogram: 48 0 0 0 0 0 0 0 0 0

Total # of neighbors = 0
Ave neighs/atom = 0
Ave special neighs/atom = 15.567568
Neighbor list builds = 53
Dangerous builds = 0
unfix           mynpt
unfix           mytth1

# 5. Umbrella sampling
fix             mynvt all nvt temp ${tem} ${tem} 100
fix             mynvt all nvt temp 300 ${tem} 100
fix             mynvt all nvt temp 300 300 100
fix             mytth1 C spring/self ${k2}
fix             mytth1 C spring/self 2.5

variable        cpt loop 51
label           loop
variable        zdes equal  -15+0.60*(${cpt}-1)
variable        zdes equal  -15+0.60*(1-1)
variable        zave equal xcm(H2,z)
fix             mytth2 H2 spring tether ${k1} 2.5 2.5 ${zdes} 0
fix             mytth2 H2 spring tether 0.5 2.5 2.5 ${zdes} 0
fix             mytth2 H2 spring tether 0.5 2.5 2.5 -15 0
run             10000
Generated 0 of 1 mixed pair_coeff terms from geometric mixing rule
Per MPI rank memory allocation (min/avg/max) = 13.32 | 13.7 | 14.98 Mbytes
   Step          Temp          E_pair         E_mol          TotEng         Press     
     20000   321.12375      376.41763      18551.171      19387.049     -319.26564    
     21000   280.33241      327.69598      18643.075      19371.868     -1618.717     
     22000   325.73737      367.06917      18548.632      19381.763     -223.49408    
     23000   283.12995      451.22137      18508.92       19365.24       1624.8853    
     24000   307.95906      404.8415       18512.775      19358.24       656.90208    
     25000   277.96822      334.9992       18602.964      19335.677     -1190.7793    
     26000   282.46753      344.35911      18579.118      19327.629     -921.97814    
     27000   288.78242      406.93204      18507.152      19327.271      649.63162    
     28000   293.03508      428.37123      18490.407      19338.049      1186.1083    
     29000   320.67642      361.92644      18549.47       19370.217     -482.69165    
     30000   299.15881      337.71042      18611.289      19377.032     -1123.4729    
Loop time of 4.19067 on 48 procs for 10000 steps with 481 atoms

Performance: 10.309 ns/day, 2.328 hours/ns, 2386.254 timesteps/s, 1.148 Matom-step/s
100.0% CPU use with 48 MPI tasks x 1 OpenMP threads

MPI task timing breakdown:
Section |  min time  |  avg time  |  max time  |%varavg| %total
---------------------------------------------------------------
Pair    | 0.0034815  | 0.18202    | 1.3854     |  69.9 |  4.34
Bond    | 0.0010665  | 0.21881    | 1.4976     |  77.4 |  5.22
Neigh   | 0.029854   | 0.032643   | 0.034952   |   0.7 |  0.78
Comm    | 1.107      | 3.082      | 3.8424     |  50.2 | 73.54
Output  | 0.0024684  | 0.0045817  | 0.0069654  |   2.1 |  0.11
Modify  | 0.12908    | 0.5435     | 2.3707     | 109.1 | 12.97
Other   |            | 0.1272     |            |       |  3.03

Nlocal:        10.0208 ave          52 max           0 min
Histogram: 23 10 6 1 2 1 2 0 2 1
Nghost:        1818.35 ave        2347 max        1171 min
Histogram: 8 0 0 0 24 0 0 0 0 16
Neighs:              0 ave           0 max           0 min
Histogram: 48 0 0 0 0 0 0 0 0 0

Total # of neighbors = 0
Ave neighs/atom = 0
Ave special neighs/atom = 15.567568
Neighbor list builds = 60
Dangerous builds = 0
fix             myat1 all ave/time 1000 10 10000 v_zave v_zdes file simulation_data/abpot/${cpt}.dat
fix             myat1 all ave/time 1000 10 10000 v_zave v_zdes file simulation_data/abpot/1.dat
run             50000
Generated 0 of 1 mixed pair_coeff terms from geometric mixing rule
Per MPI rank memory allocation (min/avg/max) = 13.32 | 13.71 | 14.98 Mbytes
   Step          Temp          E_pair         E_mol          TotEng         Press     
     30000   299.15881      337.71042      18611.289      19377.032     -1123.4729    
     31000   324.75959      382.61103      18534.039      19381.313      30.562612    
     32000   288.59392      429.37945      18530.105      19372.402      1062.5242    
     33000   294.78643      390.39277      18564.13       19376.3        253.22216    
     34000   296.14487      337.53138      18618.38       19379.632     -1086.8961    
     35000   310.08523      349.55512      18589.373      19382.595     -664.88781    
     36000   295.05769      413.32403      18532.431      19367.92       831.58578    
     37000   275.72341      409.55828      18539.986      19344.046      640.598      
     38000   284.60431      368.87741      18556.724      19332.81      -300.94613    
     39000   277.12284      338.96421      18595.365      19330.834     -919.57697    
     40000   286.96182      382.87041      18545.931      19339.383      153.34487    
     41000   288.63261      406.50568      18535.447      19354.925      639.97342    
     42000   294.89174      386.77162      18565.797      19374.496      111.69569    
     43000   313.64332      357.70809      18582.178      19388.643     -524.14535    
     44000   308.45978      360.19794      18588.049      19389.588     -497.55566    
     45000   311.56635      398.35212      18545.204      19389.342      516.19531    
     46000   301.47519      391.1786       18558.863      19381.389      232.18194    
     47000   303.10395      363.8315       18574.323      19371.832     -498.24192    
     48000   303.89552      360.5712       18567.905      19363.287     -513.25513    
     49000   295.54251      380.07749      18546.654      19349.59       82.240614    
     50000   299.10426      400.34292      18516.8        19345.098      566.326      
     51000   290.79624      372.02992      18560.866      19348.964     -371.26899    
     52000   299.67345      364.88664      18563.939      19357.595     -520.15649    
     53000   290.52236      368.1785       18570.581      19354.436     -223.58926    
     54000   297.39696      388.56578      18541.885      19355.963      223.32811    
     55000   302.22029      384.41975      18546.164      19362.997      147.53534    
     56000   307.6428       363.33594      18566.817      19370.325     -436.48681    
     57000   290.55861      372.19751      18589.186      19377.111     -26.08714     
     58000   307.84146      377.27128      18563.643      19381.371      25.827723    
     59000   307.70061      382.66711      18563.556      19386.477      141.04188    
     60000   301.45641      381.79103      18582.606      19395.718      66.696869    
     61000   315.56809      371.32646      18586.811      19409.649     -207.3457     
     62000   311.3075       373.36653      18593.708      19412.49      -155.1958     
     63000   306.68635      376.84703      18587.704      19403.354     -136.48641    
     64000   306.01521      381.9987       18560.136      19379.978      76.093667    
     65000   301.33725      378.0003       18555.641      19364.792      15.315025    
     66000   297.65503      372.51307      18556.404      19354.799     -203.18381    
     67000   268.49862      374.46439      18590.936      19349.565     -145.14649    
     68000   308.24585      371.11246      18538.84       19350.987     -158.82689    
     69000   273.9668       382.59693      18575.964      19350.55       112.5826     
     70000   294.82444      375.96224      18562.708      19360.501     -83.113134    
     71000   309.06071      369.03154      18562.498      19373.73      -190.16593    
     72000   297.69364      376.32543      18590.068      19392.33      -60.362565    
     73000   312.5381       377.67049      18581.379      19406.226      10.308272    
     74000   309.27272      385.08033      18584.163      19411.747      112.3979     
     75000   328.7558       373.22052      18562.427      19406.028      12.171777    
     76000   299.33363      370.45519      18593.05       19391.788     -209.55529    
     77000   313.54194      378.30345      18557.573      19384.488      25.944099    
     78000   323.44807      381.91738      18531.225      19375.928      176.0529     
     79000   301.84471      379.62388      18557.742      19369.242      12.931287    
     80000   314.77219      372.18826      18536.477      19359.038     -83.801564    
Loop time of 19.7071 on 48 procs for 50000 steps with 481 atoms

Performance: 10.961 ns/day, 2.190 hours/ns, 2537.156 timesteps/s, 1.220 Matom-step/s
100.0% CPU use with 48 MPI tasks x 1 OpenMP threads

MPI task timing breakdown:
Section |  min time  |  avg time  |  max time  |%varavg| %total
---------------------------------------------------------------
Pair    | 0.01716    | 0.85491    | 5.5367     | 151.5 |  4.34
Bond    | 0.0052459  | 1.0457     | 7.2844     | 168.1 |  5.31
Neigh   | 0.065208   | 0.070457   | 0.074954   |   1.0 |  0.36
Comm    | 7.0201     | 14.464     | 17.897     | 106.1 | 73.39
Output  | 0.011358   | 0.019396   | 0.027812   |   3.8 |  0.10
Modify  | 0.64701    | 2.6677     | 11.195     | 226.1 | 13.54
Other   |            | 0.5849     |            |       |  2.97

Nlocal:        10.0208 ave          44 max           0 min
Histogram: 22 10 7 1 0 0 0 3 1 4
Nghost:        1818.35 ave        2347 max        1179 min
Histogram: 8 0 0 0 24 0 0 0 0 16
Neighs:              0 ave           0 max           0 min
Histogram: 48 0 0 0 0 0 0 0 0 0

Total # of neighbors = 0
Ave neighs/atom = 0
Ave special neighs/atom = 15.567568
Neighbor list builds = 129
Dangerous builds = 0
unfix           myat1
next            cpt
jump            SELF loop
variable        zdes equal  -15+0.60*(${cpt}-1)
variable        zdes equal  -15+0.60*(2-1)
variable        zave equal xcm(H2,z)
fix             mytth2 H2 spring tether ${k1} 2.5 2.5 ${zdes} 0
fix             mytth2 H2 spring tether 0.5 2.5 2.5 ${zdes} 0
fix             mytth2 H2 spring tether 0.5 2.5 2.5 -14.4 0
run             10000
Generated 0 of 1 mixed pair_coeff terms from geometric mixing rule
Per MPI rank memory allocation (min/avg/max) = 13.32 | 13.72 | 14.98 Mbytes
   Step          Temp          E_pair         E_mol          TotEng         Press     
     80000   314.77219      372.18826      18536.477      19359.038     -83.801564    
     81000   300.82812      372.12991      18542.037      19344.588     -26.345974    
     82000   298.4692       370.15128      18536.43       19333.627     -231.82966    
     83000   289.53516      386.43595      18527.561      19328.261      231.63829    
     84000   296.95739      379.33891      18530.704      19334.926      132.79873    
     85000   307.30053      369.40819      18540.524      19349.615     -111.78178    
     86000   290.75902      356.02668      18604.468      19376.509     -604.55877    
     87000   307.36162      385.89988      18568.603      19394.272      120.04015    
     88000   298.02771      403.13407      18562.342      19391.891      632.40318    
     89000   293.45562      367.39754      18596.616      19383.887     -276.88743    
     90000   302.97679      356.41879      18589.086      19379.001     -508.50813    
Loop time of 3.49761 on 48 procs for 10000 steps with 481 atoms

Performance: 12.351 ns/day, 1.943 hours/ns, 2859.094 timesteps/s, 1.375 Matom-step/s
100.0% CPU use with 48 MPI tasks x 1 OpenMP threads

MPI task timing breakdown:
Section |  min time  |  avg time  |  max time  |%varavg| %total
---------------------------------------------------------------
Pair    | 0.0033852  | 0.15507    | 0.89838    |  62.3 |  4.43
Bond    | 0.0010422  | 0.19806    | 1.4072     |  71.5 |  5.66
Neigh   | 0.0080351  | 0.008906   | 0.0097384  |   0.4 |  0.25
Comm    | 1.0803     | 2.5786     | 3.1922     |  42.7 | 73.73
Output  | 0.0022098  | 0.0035436  | 0.0049959  |   1.5 |  0.10
Modify  | 0.11377    | 0.44104    | 1.8065     |  90.2 | 12.61
Other   |            | 0.1123     |            |       |  3.21

Nlocal:        10.0208 ave          50 max           0 min
Histogram: 22 13 4 1 0 2 0 3 1 2
Nghost:        1818.88 ave        2348 max        1173 min
Histogram: 8 0 0 0 24 0 0 0 0 16
Neighs:              0 ave           0 max           0 min
Histogram: 48 0 0 0 0 0 0 0 0 0

Total # of neighbors = 0
Ave neighs/atom = 0
Ave special neighs/atom = 15.567568
Neighbor list builds = 20
Dangerous builds = 0
fix             myat1 all ave/time 1000 10 10000 v_zave v_zdes file simulation_data/abpot/${cpt}.dat
fix             myat1 all ave/time 1000 10 10000 v_zave v_zdes file simulation_data/abpot/2.dat
run             50000
Generated 0 of 1 mixed pair_coeff terms from geometric mixing rule
Per MPI rank memory allocation (min/avg/max) = 13.32 | 13.72 | 14.98 Mbytes
   Step          Temp          E_pair         E_mol          TotEng         Press     
     90000   302.97679      356.41879      18589.086      19379.001     -508.50813    
     91000   305.99616      366.77089      18571.234      19375.82      -294.40342    
     92000   297.37668      386.95669      18546.696      19359.136      205.85355    
     93000   294.40042      395.57773      18522.952      19339.755      402.15094    
     94000   300.94675      365.27604      18531.103      19326.97      -376.27796    
     95000   289.68083      363.72777      18547.933      19326.133     -371.04454    
     96000   281.44811      375.61819      18552.103      19330.414     -70.492194    
     97000   294.99029      392.86432      18536.635      19351.568      353.74325    
     98000   303.04881      382.97854      18561.092      19377.669      206.28262    
     99000   303.55743      359.68757      18597.937      19391.952     -493.54626    
    100000   314.44015      375.99358      18568.66       19394.551     -110.96387    
    101000   299.53369      388.78626      18564.953      19382.309      189.37682    
    102000   302.71371      387.06722      18542.024      19362.211      284.92353    
    103000   291.82734      377.25159      18551.297      19346.092     -106.5218     
    104000   289.46399      363.1145       18560.54       19337.816     -396.41349    
    105000   295.31061      374.70621      18536.756      19333.989     -61.380594    
    106000   298.55319      390.67236      18515.696      19333.535      307.23413    
    107000   301.34336      376.40095      18526.299      19333.859      43.320505    
    108000   303.59635      368.15641      18536.551      19339.089     -201.30908    
    109000   295.70476      369.24841      18562.797      19355.137     -255.80179    
    110000   307.26644      387.25189      18554.22       19381.106      282.62068    
    111000   319.7494       387.28785      18547.99       19392.772      153.53144    
    112000   300.93225      372.44326      18589.083      19392.097     -235.36051    
    113000   312.23785      367.03304      18568.238      19382.017     -254.09332    
    114000   298.64162      381.17236      18559.534      19367.999     -18.842701    
    115000   289.88652      380.45714      18559.99       19355.214      37.173997    
    116000   303.22233      376.77263      18542.851      19353.471     -112.07004    
    117000   280.81409      374.55749      18578.442      19354.785     -43.330338    
    118000   314.74635      366.92095      18537.245      19354.501     -241.33357    
    119000   295.93904      369.43876      18555.95       19348.815     -233.84249    
    120000   305.98203      386.39531      18524.374      19348.565      249.08233    
    121000   296.95583      378.35545      18548.371      19351.608     -35.312711    
    122000   299.55132      371.92076      18561.805      19362.32      -100.2639     
    123000   288.26145      377.74723      18583.975      19374.163     -59.953414    
    124000   317.60773      376.19118      18554.383      19385.004      106.3434     
    125000   316.89566      378.42112      18553.607      19385.439      34.22096     
    126000   297.26033      378.26369      18575.089      19378.669     -106.94083    
    127000   307.87312      372.67618      18553.092      19366.27      -89.750518    
    128000   293.84454      372.69221      18551.645      19344.767     -45.886243    
    129000   290.44689      376.14575      18543.879      19335.593     -58.76818     
    130000   309.31403      378.85367      18515.646      19337.063      95.78199     
    131000   291.16212      375.20842      18545.996      19337.796     -105.8443     
    132000   292.85042      373.39253      18546.271      19338.67      -222.52182    
    133000   294.15566      374.33431      18551.335      19346.544      9.9077331    
    134000   301.74416      376.84382      18552.827      19361.403      48.901628    
    135000   318.24853      374.49176      18551.134      19380.972     -126.9666     
    136000   315.53903      378.04372      18576.768      19406.282      3.6618688    
    137000   309.27577      372.51572      18598.66       19413.684     -274.85836    
    138000   315.81049      371.97824      18576.439      19400.276     -169.4944     
    139000   311.74356      389.41305      18554.989      19390.441      280.30736    
    140000   313.86439      378.12015      18552.043      19379.237      73.562518    
Loop time of 15.6503 on 48 procs for 50000 steps with 481 atoms

Performance: 13.802 ns/day, 1.739 hours/ns, 3194.835 timesteps/s, 1.537 Matom-step/s
100.0% CPU use with 48 MPI tasks x 1 OpenMP threads

MPI task timing breakdown:
Section |  min time  |  avg time  |  max time  |%varavg| %total
---------------------------------------------------------------
Pair    | 0.016902   | 0.73902    | 4.6685     | 136.5 |  4.72
Bond    | 0.0052314  | 0.94515    | 4.9734     | 149.9 |  6.04
Neigh   | 0.024007   | 0.027046   | 0.030039   |   1.0 |  0.17
Comm    | 5.0659     | 11.51      | 14.108     |  86.8 | 73.55
Output  | 0.0083482  | 0.014415   | 0.020579   |   3.3 |  0.09
Modify  | 0.54957    | 1.8633     | 7.4852     | 178.9 | 11.91
Other   |            | 0.5512     |            |       |  3.52

Nlocal:        10.0208 ave          50 max           0 min
Histogram: 23 11 6 0 0 1 1 2 1 3
Nghost:        1818.35 ave        2348 max        1174 min
Histogram: 8 0 0 0 24 0 0 0 0 16
Neighs:              0 ave           0 max           0 min
Histogram: 48 0 0 0 0 0 0 0 0 0

Total # of neighbors = 0
Ave neighs/atom = 0
Ave special neighs/atom = 15.567568
Neighbor list builds = 75
Dangerous builds = 0
unfix           myat1
next            cpt
jump            SELF loop
variable        zdes equal  -15+0.60*(${cpt}-1)
variable        zdes equal  -15+0.60*(3-1)
variable        zave equal xcm(H2,z)
fix             mytth2 H2 spring tether ${k1} 2.5 2.5 ${zdes} 0
fix             mytth2 H2 spring tether 0.5 2.5 2.5 ${zdes} 0
fix             mytth2 H2 spring tether 0.5 2.5 2.5 -13.8 0
run             10000
Generated 0 of 1 mixed pair_coeff terms from geometric mixing rule
Per MPI rank memory allocation (min/avg/max) = 13.32 | 13.73 | 14.98 Mbytes
   Step          Temp          E_pair         E_mol          TotEng         Press     
    140000   313.86439      378.12015      18552.043      19379.237      73.562518    
    141000   303.31107      367.29983      18562.152      19363.426     -265.67043    
    142000   313.19607      373.42975      18533.582      19355.129     -137.7505     
    143000   305.94418      380.88257      18529.718      19348.342      167.31011    
    144000   294.94584      388.95903      18525.567      19336.531      284.31621    
    145000   297.71942      370.65679      18537.338      19333.969     -131.47597    
    146000   301.31705      372.72047      18535.477      19339.318     -103.84418    
    147000   287.60305      378.51219      18559.169      19349.18      -75.41281     
    148000   286.49194      378.03535      18581.224      19369.169      56.954608    
    149000   307.81743      378.50971      18569.636      19388.568      18.444333    
    150000   323.94514      380.04255      18553.503      19397.043     -177.37059    
Loop time of 3.17665 on 48 procs for 10000 steps with 481 atoms

Performance: 13.599 ns/day, 1.765 hours/ns, 3147.967 timesteps/s, 1.514 Matom-step/s
100.0% CPU use with 48 MPI tasks x 1 OpenMP threads

MPI task timing breakdown:
Section |  min time  |  avg time  |  max time  |%varavg| %total
---------------------------------------------------------------
Pair    | 0.0033926  | 0.14849    | 0.95742    |  61.4 |  4.67
Bond    | 0.0010285  | 0.18863    | 1.0248     |  67.4 |  5.94
Neigh   | 0.0046687  | 0.0054282  | 0.0060643  |   0.5 |  0.17
Comm    | 1.0088     | 2.3459     | 2.8874     |  38.9 | 73.85
Output  | 0.0017055  | 0.0028465  | 0.0040505  |   1.4 |  0.09
Modify  | 0.11633    | 0.36056    | 1.5514     |  80.7 | 11.35
Other   |            | 0.1248     |            |       |  3.93

Nlocal:        10.0208 ave          48 max           0 min
Histogram: 22 12 6 0 0 0 4 0 0 4
Nghost:        1818.35 ave        2347 max        1176 min
Histogram: 8 0 0 0 24 0 0 0 0 16
Neighs:              0 ave           0 max           0 min
Histogram: 48 0 0 0 0 0 0 0 0 0

Total # of neighbors = 0
Ave neighs/atom = 0
Ave special neighs/atom = 15.567568
Neighbor list builds = 15
Dangerous builds = 0
fix             myat1 all ave/time 1000 10 10000 v_zave v_zdes file simulation_data/abpot/${cpt}.dat
fix             myat1 all ave/time 1000 10 10000 v_zave v_zdes file simulation_data/abpot/3.dat
run             50000
Generated 0 of 1 mixed pair_coeff terms from geometric mixing rule
Per MPI rank memory allocation (min/avg/max) = 13.32 | 13.73 | 14.98 Mbytes
   Step          Temp          E_pair         E_mol          TotEng         Press     
    150000   323.94514      380.04255      18553.503      19397.043     -177.37059    
    151000   322.15558      377.42434      18554.577      19392.938      6.2452018    
    152000   316.02551      376.73594      18549.833      19378.735     -47.429252    
    153000   297.69651      377.9957       18560.992      19364.929     -50.461213    
    154000   290.09693      369.13294      18570.515      19354.715     -83.979368    
    155000   295.21983      374.10154      18555.83       19352.328     -49.632482    
    156000   306.26682      379.22648      18537.64       19355.07       46.27463     
    157000   302.51746      372.43077      18548.867      19354.136     -22.896047    
    158000   292.42877      374.79296      18559.621      19352.818     -154.32158    
    159000   310.00973      375.26022      18536.393      19355.212      19.85847     
    160000   291.98959      378.44852      18562.114      19358.338     -46.260192    
    161000   300.94182      380.72166      18560.846      19372.152     -45.209023    
    162000   314.87834      376.35815      18566.077      19392.96      -10.37171     
    163000   315.35866      370.56495      18580.259      19402.035     -200.37646    
    164000   316.23627      372.77836      18571.16       19396.406     -50.878127    
    165000   316.32861      386.1223       18536.384      19375.106      251.56852    
    166000   294.83341      372.08947      18559.96       19353.893     -169.32606    
    167000   306.26692      370.10029      18539.985      19348.289     -157.59775    
    168000   306.34093      367.16721      18537.891      19343.367     -107.45365    
    169000   301.33508      382.46496      18528.431      19342.043      183.78428    
    170000   286.50256      377.72903      18557.399      19345.052      136.28544    
    171000   284.58144      367.10255      18574.996      19349.274     -301.1263     
    172000   304.88755      373.62746      18551.324      19361.181     -124.19288    
    173000   297.65134      382.80316      18572.175      19380.855      128.67456    
    174000   316.63387      388.46609      18553.901      19395.404      187.38502    
    175000   304.05997      367.8562       18599.153      19402.055     -481.37917    
    176000   312.32258      371.85123      18572.389      19391.108     -74.623744    
    177000   293.49343      378.58143      18561.025      19359.533     -125.12163    
    178000   302.97925      376.48519      18532.999      19342.984     -47.972859    
    179000   302.44654      375.02257      18532.114      19339.873     -35.50425     
    180000   295.5248       368.12104      18546.851      19337.806     -217.39075    
    181000   287.89805      373.56811      18552.293      19337.782     -173.53891    
    182000   297.84798      385.86858      18531.588      19343.614      268.53151    
    183000   304.07128      376.18718      18539.391      19350.64      -102.62515    
    184000   313.52386      368.20367      18536.148      19352.938     -171.16902    
    185000   311.29918      373.09676      18530.229      19348.73      -42.758795    
    186000   296.07209      376.00815      18546.67       19346.295      63.032753    
    187000   296.19798      384.89147      18538.289      19346.977      268.00347    
    188000   301.85724      375.92509      18537.727      19345.546     -38.563835    
    189000   294.00972      364.16494      18557.341      19342.171     -262.23593    
    190000   306.2339       374.57286      18521.84       19334.569     -82.470054    
    191000   292.35314      386.85133      18522.923      19328.07       179.82928    
    192000   295.78909      374.69797      18528.956      19326.866     -23.082796    
    193000   294.31974      368.43763      18543.239      19332.786     -228.40635    
    194000   293.40822      372.19311      18552.683      19344.682     -264.97707    
    195000   305.08325      380.13427      18543.568      19360.212      36.012522    
    196000   318.26565      387.15433      18529.143      19371.668      138.03085    
    197000   313.07296      382.9101       18550.262      19381.114      135.30998    
    198000   305.27804      373.2602       18568.233      19378.282     -138.86519    
    199000   315.38579      375.62964      18540.503      19367.383      1.6313125    
    200000   289.60399      376.35552      18559.034      19349.751     -58.478636    
Loop time of 15.7097 on 48 procs for 50000 steps with 481 atoms

Performance: 13.749 ns/day, 1.746 hours/ns, 3182.742 timesteps/s, 1.531 Matom-step/s
100.0% CPU use with 48 MPI tasks x 1 OpenMP threads

MPI task timing breakdown:
Section |  min time  |  avg time  |  max time  |%varavg| %total
---------------------------------------------------------------
Pair    | 0.017042   | 0.73129    | 4.7852     | 137.7 |  4.65
Bond    | 0.0051712  | 0.93343    | 4.9444     | 150.5 |  5.94
Neigh   | 0.028138   | 0.03198    | 0.03527    |   1.0 |  0.20
Comm    | 5.2764     | 11.549     | 14.16      |  88.8 | 73.51
Output  | 0.0081722  | 0.013725   | 0.01932    |   3.0 |  0.09
Modify  | 0.54202    | 1.9033     | 8.0219     | 184.2 | 12.12
Other   |            | 0.5473     |            |       |  3.48

Nlocal:        10.0208 ave          44 max           0 min
Histogram: 20 11 9 0 0 0 0 1 4 3
Nghost:        1818.88 ave        2346 max        1180 min
Histogram: 8 0 0 0 24 0 0 0 0 16
Neighs:              0 ave           0 max           0 min
Histogram: 48 0 0 0 0 0 0 0 0 0

Total # of neighbors = 0
Ave neighs/atom = 0
Ave special neighs/atom = 15.567568
Neighbor list builds = 87
Dangerous builds = 0
unfix           myat1
next            cpt
jump            SELF loop
variable        zdes equal  -15+0.60*(${cpt}-1)
variable        zdes equal  -15+0.60*(4-1)
variable        zave equal xcm(H2,z)
fix             mytth2 H2 spring tether ${k1} 2.5 2.5 ${zdes} 0
fix             mytth2 H2 spring tether 0.5 2.5 2.5 ${zdes} 0
fix             mytth2 H2 spring tether 0.5 2.5 2.5 -13.2 0
run             10000
Generated 0 of 1 mixed pair_coeff terms from geometric mixing rule
Per MPI rank memory allocation (min/avg/max) = 13.32 | 13.73 | 14.98 Mbytes
   Step          Temp          E_pair         E_mol          TotEng         Press     
    200000   289.60399      376.35552      18559.034      19349.751     -58.478636    
    201000   295.9329       378.42901      18529.505      19331.352     -100.79312    
    202000   294.49588      377.8437       18525.744      19324.949     -48.14858     
    203000   295.47029      379.63682      18524.209      19326.602      49.038459    
    204000   300.37109      370.23755      18529.319      19329.324     -214.20363    
    205000   298.69371      374.15871      18530.202      19331.728     -125.55266    
    206000   294.83559      378.83106      18540.479      19341.158      57.456689    
    207000   295.03352      382.50823      18551.276      19355.914      31.43589     
    208000   301.21749      379.62546      18558.052      19368.656     -9.1377752    
    209000   302.02848      369.57248      18571.692      19373.403     -285.70072    
    210000   313.088        374.15991      18547.756      19369.879     -70.763857    
Loop time of 3.07467 on 48 procs for 10000 steps with 481 atoms

Performance: 14.050 ns/day, 1.708 hours/ns, 3252.378 timesteps/s, 1.564 Matom-step/s
100.0% CPU use with 48 MPI tasks x 1 OpenMP threads

MPI task timing breakdown:
Section |  min time  |  avg time  |  max time  |%varavg| %total
---------------------------------------------------------------
Pair    | 0.0033964  | 0.14587    | 0.91362    |  61.2 |  4.74
Bond    | 0.0010313  | 0.1857     | 1.0727     |  67.9 |  6.04
Neigh   | 0.0081166  | 0.0090257  | 0.0098512  |   0.5 |  0.29
Comm    | 0.99629    | 2.2491     | 2.7931     |  40.5 | 73.15
Output  | 0.0016766  | 0.0027367  | 0.0038401  |   1.3 |  0.09
Modify  | 0.10973    | 0.37603    | 1.6468     |  83.4 | 12.23
Other   |            | 0.1062     |            |       |  3.45

Nlocal:        10.0208 ave          46 max           0 min
Histogram: 23 9 7 1 0 0 0 4 1 3
Nghost:        1818.35 ave        2348 max        1177 min
Histogram: 8 0 0 0 24 0 0 0 0 16
Neighs:              0 ave           0 max           0 min
Histogram: 48 0 0 0 0 0 0 0 0 0

Total # of neighbors = 0
Ave neighs/atom = 0
Ave special neighs/atom = 15.567568
Neighbor list builds = 24
Dangerous builds = 0
fix             myat1 all ave/time 1000 10 10000 v_zave v_zdes file simulation_data/abpot/${cpt}.dat
fix             myat1 all ave/time 1000 10 10000 v_zave v_zdes file simulation_data/abpot/4.dat
run             50000
Generated 0 of 1 mixed pair_coeff terms from geometric mixing rule
Per MPI rank memory allocation (min/avg/max) = 13.32 | 13.73 | 14.98 Mbytes
   Step          Temp          E_pair         E_mol          TotEng         Press     
    210000   313.088        374.15991      18547.756      19369.879     -70.763857    
    211000   305.55159      382.89612      18538.132      19358.207      191.59203    
    212000   290.84642      385.44051      18532.597      19334.177      226.33355    
    213000   304.22411      368.57702      18516.719      19320.576     -138.61856    
    214000   296.42463      370.71099      18519.296      19314.128     -243.48858    
    215000   293.64094      382.38656      18510.371      19312.896      173.57669    
    216000   291.44942      379.60556      18521.293      19317.901      96.186104    
    217000   297.17451      378.01188      18527.597      19330.803      11.81423     
    218000   289.89846      371.83465      18565.677      19352.295     -200.83674    
    219000   308.84779      380.73633      18543.377      19366.009     -16.942734    
    220000   301.32631      387.25953      18544.869      19363.263      159.54991    
    221000   303.48683      382.56408      18542.507      19359.297      81.246687    
    222000   306.31871      367.65953      18549.931      19355.867     -305.32426    
    223000   314.82685      368.53582      18534.515      19353.502     -281.59589    
    224000   305.82553      381.97698      18525.263      19344.812      48.839829    
    225000   298.60861      383.8286       18527.127      19338.201      133.89905    
    226000   295.50724      375.97271      18534.747      19333.528     -31.527492    
    227000   286.44287      365.5797       18554.963      19330.382     -305.48341    
    228000   282.37563      375.1843       18546.722      19325.927     -6.7839892    
    229000   281.01004      380.57314      18533.929      19316.568     -61.324117    
    230000   294.11543      379.72437      18516.825      19317.367      31.705737    
    231000   301.63271      368.79119      18523.078      19323.442     -245.302      
    232000   275.54642      369.46228      18567.093      19330.804     -193.72141    
    233000   301.68818      378.68045      18537.506      19347.838      34.616364    
    234000   312.62137      380.1216       18537.693      19365.11       76.739429    
    235000   307.39102      380.04527      18552.392      19372.249      54.861269    
    236000   309.7704       373.11872      18553.895      19370.23      -28.528394    
    237000   300.90803      369.90997      18559.428      19359.874     -269.85707    
    238000   292.81452      382.5801       18543.436      19344.972      27.798843    
    239000   295.78814      375.77177      18523.985      19322.967     -38.607089    
    240000   296.2224       375.25219      18511.246      19310.33      -85.206104    
    241000   285.2328       375.60484      18526.007      19309.72      -18.977966    
    242000   290.62519      375.60266      18525.327      19316.752      78.41717     
    243000   279.15723      379.50219      18544.029      19322.946     -67.893805    
    244000   297.03298      380.82236      18523.639      19329.453     -96.081047    
    245000   307.13936      371.8808       18525.235      19336.567     -87.494647    
    246000   298.45046      378.25635      18541.819      19347.094     -35.450216    
    247000   303.5065       373.94528      18550.053      19358.252     -7.6234249    
    248000   310.22971      380.90258      18541.052      19365.828      100.02798    
    249000   315.50718      379.14077      18532.604      19363.169     -55.047424    
    250000   301.42253      371.69044      18545.775      19348.738     -49.601726    
    251000   289.88398      373.10119      18529.252      19317.116      8.4804801    
    252000   279.38377      377.06355      18520.041      19296.843     -26.015487    
    253000   283.04093      380.39214      18512.158      19297.522      72.42322     
    254000   286.64801      377.50019      18524.042      19311.675     -121.66209    
    255000   301.78918      372.5628       18524.939      19329.299     -152.15239    
    256000   299.38975      370.34096      18542.778      19341.483     -231.77601    
    257000   295.43909      382.89751      18542.414      19348.022      85.803728    
    258000   292.80307      382.41996      18552.975      19354.334      215.72371    
    259000   312.4218       369.02654      18546.03       19362.066     -252.19866    
    260000   312.90848      367.76686      18547.815      19363.288     -209.10198    
Loop time of 15.2115 on 48 procs for 50000 steps with 481 atoms

Performance: 14.200 ns/day, 1.690 hours/ns, 3286.992 timesteps/s, 1.581 Matom-step/s
100.0% CPU use with 48 MPI tasks x 1 OpenMP threads

MPI task timing breakdown:
Section |  min time  |  avg time  |  max time  |%varavg| %total
---------------------------------------------------------------
Pair    | 0.016629   | 0.72626    | 4.5665     | 137.0 |  4.77
Bond    | 0.0052152  | 0.92616    | 5.0154     | 151.2 |  6.09
Neigh   | 0.023511   | 0.026346   | 0.028854   |   0.8 |  0.17
Comm    | 5.0064     | 11.113     | 13.762     |  90.0 | 73.06
Output  | 0.0082533  | 0.013464   | 0.018627   |   2.8 |  0.09
Modify  | 0.5715     | 1.8666     | 8.0885     | 183.2 | 12.27
Other   |            | 0.5397     |            |       |  3.55

Nlocal:        10.0208 ave          50 max           0 min
Histogram: 24 9 7 0 0 1 2 1 2 2
Nghost:        1818.35 ave        2348 max        1173 min
Histogram: 8 0 0 0 24 0 0 0 0 16
Neighs:              0 ave           0 max           0 min
Histogram: 48 0 0 0 0 0 0 0 0 0

Total # of neighbors = 0
Ave neighs/atom = 0
Ave special neighs/atom = 15.567568
Neighbor list builds = 72
Dangerous builds = 0
unfix           myat1
next            cpt
jump            SELF loop
variable        zdes equal  -15+0.60*(${cpt}-1)
variable        zdes equal  -15+0.60*(5-1)
variable        zave equal xcm(H2,z)
fix             mytth2 H2 spring tether ${k1} 2.5 2.5 ${zdes} 0
fix             mytth2 H2 spring tether 0.5 2.5 2.5 ${zdes} 0
fix             mytth2 H2 spring tether 0.5 2.5 2.5 -12.6 0
run             10000
Generated 0 of 1 mixed pair_coeff terms from geometric mixing rule
Per MPI rank memory allocation (min/avg/max) = 13.32 | 13.73 | 14.98 Mbytes
   Step          Temp          E_pair         E_mol          TotEng         Press     
    260000   312.90848      367.76686      18547.815      19363.288     -209.10198    
    261000   306.48258      382.57623      18537.469      19358.557      152.24151    
    262000   287.23144      386.00881      18551.243      19348.22       181.07594    
    263000   301.26234      378.98831      18517.854      19327.885     -28.810009    
    264000   279.8436       367.2763       18530.775      19298.449     -286.27459    
    265000   287.93113      371.40124      18510.711      19294.081     -104.89515    
    266000   273.93733      385.25001      18520.792      19297.988      299.20592    
    267000   276.00241      388.56797      18530.307      19313.776      320.9429     
    268000   290.68519      366.17259      18544.946      19327.028     -340.66785    
    269000   298.40079      370.80486      18537.168      19334.921     -235.0481     
    270000   287.19195      378.67764      18552.871      19342.459     -4.4216132    
Loop time of 3.00451 on 48 procs for 10000 steps with 481 atoms

Performance: 14.378 ns/day, 1.669 hours/ns, 3328.325 timesteps/s, 1.601 Matom-step/s
100.0% CPU use with 48 MPI tasks x 1 OpenMP threads

MPI task timing breakdown:
Section |  min time  |  avg time  |  max time  |%varavg| %total
---------------------------------------------------------------
Pair    | 0.0033617  | 0.14536    | 0.89135    |  60.9 |  4.84
Bond    | 0.001036   | 0.18539    | 0.96471    |  67.2 |  6.17
Neigh   | 0.0047982  | 0.0054003  | 0.0059012  |   0.4 |  0.18
Comm    | 1.0138     | 2.1844     | 2.7308     |  39.5 | 72.71
Output  | 0.0015637  | 0.0025899  | 0.0036159  |   1.3 |  0.09
Modify  | 0.11682    | 0.37323    | 1.5711     |  79.4 | 12.42
Other   |            | 0.1081     |            |       |  3.60

Nlocal:        10.0208 ave          49 max           0 min
Histogram: 23 9 8 0 0 2 1 1 1 3
Nghost:        1818.35 ave        2348 max        1174 min
Histogram: 8 0 0 0 24 0 0 0 0 16
Neighs:              0 ave           0 max           0 min
Histogram: 48 0 0 0 0 0 0 0 0 0

Total # of neighbors = 0
Ave neighs/atom = 0
Ave special neighs/atom = 15.567568
Neighbor list builds = 15
Dangerous builds = 0
fix             myat1 all ave/time 1000 10 10000 v_zave v_zdes file simulation_data/abpot/${cpt}.dat
fix             myat1 all ave/time 1000 10 10000 v_zave v_zdes file simulation_data/abpot/5.dat
run             50000
Generated 0 of 1 mixed pair_coeff terms from geometric mixing rule
Per MPI rank memory allocation (min/avg/max) = 13.32 | 13.73 | 14.98 Mbytes
   Step          Temp          E_pair         E_mol          TotEng         Press     
    270000   287.19195      378.67764      18552.871      19342.459     -4.4216132    
    271000   308.25772      382.76437      18526.22       19350.036      52.07481     
    272000   308.29538      384.6769       18529.877      19355.659      270.94339    
    273000   303.08965      361.16017      18564.838      19359.656     -316.56349    
    274000   297.7488       371.13169      18553.261      19350.408     -20.156927    
    275000   306.91854      379.70186      18508.769      19327.606      190.9598     
    276000   289.60119      380.88306      18509.339      19304.581      159.86296    
    277000   291.33389      371.80553      18510.197      19298.839     -94.984254    
    278000   284.53552      361.85772      18537.614      19306.582     -364.58748    
    279000   288.52547      379.21539      18528.68       19320.714      147.30213    
    280000   302.1422       379.79018      18524.706      19336.798      209.17374    
    281000   314.77668      371.93565      18524.188      19346.502     -56.981483    
    282000   300.28515      372.96141      18545.25       19347.856     -93.418218    
    283000   313.36463      371.59778      18527.667      19347.623     -99.964172    
    284000   295.687        387.22594      18536.792      19347.084      263.69255    
    285000   294.5386       374.34983      18555.981      19351.754     -7.4038658    
    286000   291.61284      365.42252      18565.832      19348.491     -411.30878    
    287000   290.98051      379.83401      18540.543      19336.709     -27.658961    
    288000   288.34619      382.13684      18520.383      19315.082      269.84961    
    289000   280.66189      379.00413      18513.472      19294.044      18.898353    
    290000   283.84097      368.90408      18512.676      19287.697     -167.15035    
    291000   282.25524      366.78113      18520.809      19291.437     -249.93859    
    292000   284.62387      381.24528      18518.206      19306.688      31.070366    
    293000   286.07292      379.60845      18534.291      19323.21       137.37712    
    294000   293.9357       369.54682      18539.139      19329.245     -111.42617    
    295000   297.06818      365.57388      18542.282      19332.898     -279.15447    
    296000   285.24947      378.7515       18558.009      19344.893      99.487389    
    297000   312.34439      377.68937      18529.191      19353.779      12.144788    
    298000   293.90001      377.28138      18557.724      19355.514     -70.009903    
    299000   296.15725      372.67077      18561.456      19357.865     -106.76992    
    300000   316.37178      374.09155      18529.752      19356.505     -54.605258    
    301000   287.89381      377.61612      18556.096      19345.628      111.28242    
    302000   295.42636      380.72675      18525.889      19329.308      79.785625    
    303000   297.71285      370.98851      18519.816      19316.768     -157.07914    
    304000   299.38374      370.76854      18508.308      19307.431     -70.262382    
    305000   291.90486      378.48738      18509.546      19305.687     -21.492773    
    306000   288.0402       374.35713      18524.08       19310.562     -54.5162      
    307000   304.79945      376.73655      18516.714      19329.554      27.465238    
    308000   302.70424      370.88186      18543.466      19347.454     -114.08068    
    309000   309.65455      378.52658      18533.397      19354.974      138.83864    
    310000   307.09952      378.42401      18540.476      19358.295      53.157985    
    311000   331.47436      369.11188      18513.332      19356.714      10.395005    
    312000   297.96959      371.64371      18546.467      19344.442     -152.68944    
    313000   291.87585      377.80066      18538.275      19333.689     -15.365139    
    314000   290.78322      377.18626      18531.586      19324.821      26.61352     
    315000   301.41924      375.0297       18514.667      19320.964      12.684934    
    316000   298.73876      373.91471      18514.244      19315.591     -166.06983    
    317000   293.25536      375.86425      18523.076      19318.526      47.741035    
    318000   295.27363      378.67852      18532.826      19333.979      69.782786    
    319000   292.41957      375.00705      18559.03       19352.427     -131.78511    
    320000   298.47758      376.18447      18561.661      19364.904     -143.75963    
Loop time of 15.6539 on 48 procs for 50000 steps with 481 atoms

Performance: 13.798 ns/day, 1.739 hours/ns, 3194.095 timesteps/s, 1.536 Matom-step/s
100.0% CPU use with 48 MPI tasks x 1 OpenMP threads

MPI task timing breakdown:
Section |  min time  |  avg time  |  max time  |%varavg| %total
---------------------------------------------------------------
Pair    | 0.016291   | 0.7166     | 4.7107     | 136.2 |  4.58
Bond    | 0.0050415  | 0.91219    | 4.7594     | 149.3 |  5.83
Neigh   | 0.031394   | 0.035049   | 0.038436   |   1.0 |  0.22
Comm    | 5.5543     | 11.429     | 14.22      |  90.0 | 73.01
Output  | 0.0082099  | 0.013459   | 0.018546   |   2.8 |  0.09
Modify  | 0.58182    | 2.0051     | 8.5506     | 187.4 | 12.81
Other   |            | 0.5422     |            |       |  3.46

Nlocal:        10.0208 ave          46 max           0 min
Histogram: 22 12 6 0 0 0 1 1 4 2
Nghost:        1818.35 ave        2348 max        1183 min
Histogram: 8 0 0 0 24 0 0 0 0 16
Neighs:              0 ave           0 max           0 min
Histogram: 48 0 0 0 0 0 0 0 0 0

Total # of neighbors = 0
Ave neighs/atom = 0
Ave special neighs/atom = 15.567568
Neighbor list builds = 97
Dangerous builds = 0
unfix           myat1
next            cpt
jump            SELF loop
variable        zdes equal  -15+0.60*(${cpt}-1)
variable        zdes equal  -15+0.60*(6-1)
variable        zave equal xcm(H2,z)
fix             mytth2 H2 spring tether ${k1} 2.5 2.5 ${zdes} 0
fix             mytth2 H2 spring tether 0.5 2.5 2.5 ${zdes} 0
fix             mytth2 H2 spring tether 0.5 2.5 2.5 -12 0
run             10000
Generated 0 of 1 mixed pair_coeff terms from geometric mixing rule
Per MPI rank memory allocation (min/avg/max) = 13.32 | 13.73 | 14.98 Mbytes
   Step          Temp          E_pair         E_mol          TotEng         Press     
    320000   298.47758      376.18447      18561.661      19364.904     -143.75963    
    321000   313.24379      373.15583      18552.053      19373.394     -83.071185    
    322000   303.04056      377.05604      18566.104      19376.747     -27.91013     
    323000   299.44403      380.14799      18557.371      19365.96       82.118837    
    324000   296.48113      369.76683      18553.476      19347.445     -146.56731    
    325000   289.93348      373.76591      18543.482      19332.082     -168.62699    
    326000   274.91199      378.09458      18552.146      19323.582     -10.860361    
    327000   298.16311      377.34167      18519.284      19323.234      95.484517    
    328000   283.13944      377.8502       18543.499      19326.462     -28.854201    
    329000   306.08101      366.14949      18530.648      19334.735     -212.39717    
    330000   293.09996      376.30125      18547.507      19343.172      56.656117    
Loop time of 3.10154 on 48 procs for 10000 steps with 481 atoms

Performance: 13.929 ns/day, 1.723 hours/ns, 3224.200 timesteps/s, 1.551 Matom-step/s
100.0% CPU use with 48 MPI tasks x 1 OpenMP threads

MPI task timing breakdown:
Section |  min time  |  avg time  |  max time  |%varavg| %total
---------------------------------------------------------------
Pair    | 0.003283   | 0.14262    | 0.963      |  61.3 |  4.60
Bond    | 0.00099445 | 0.18219    | 0.93526    |  66.4 |  5.87
Neigh   | 0.0071187  | 0.00789    | 0.0086613  |   0.5 |  0.25
Comm    | 1.0524     | 2.2654     | 2.8181     |  40.0 | 73.04
Output  | 0.0016094  | 0.0026511  | 0.003785   |   1.3 |  0.09
Modify  | 0.10656    | 0.39228    | 1.6733     |  82.8 | 12.65
Other   |            | 0.1085     |            |       |  3.50

Nlocal:        10.0208 ave          49 max           0 min
Histogram: 22 11 7 0 0 2 1 2 0 3
Nghost:        1818.35 ave        2347 max        1174 min
Histogram: 8 0 0 0 24 0 0 0 0 16
Neighs:              0 ave           0 max           0 min
Histogram: 48 0 0 0 0 0 0 0 0 0

Total # of neighbors = 0
Ave neighs/atom = 0
Ave special neighs/atom = 15.567568
Neighbor list builds = 22
Dangerous builds = 0
fix             myat1 all ave/time 1000 10 10000 v_zave v_zdes file simulation_data/abpot/${cpt}.dat
fix             myat1 all ave/time 1000 10 10000 v_zave v_zdes file simulation_data/abpot/6.dat
run             50000
Generated 0 of 1 mixed pair_coeff terms from geometric mixing rule
Per MPI rank memory allocation (min/avg/max) = 13.32 | 13.73 | 14.98 Mbytes
   Step          Temp          E_pair         E_mol          TotEng         Press     
    330000   293.09996      376.30125      18547.507      19343.172      56.656117    
    331000   289.14587      377.57684      18556.826      19348.109      56.254132    
    332000   291.36907      373.18325      18563.362      19353.433     -58.87442     
    333000   300.50774      369.02358      18567.487      19366.474     -42.631282    
    334000   312.41261      366.20144      18575.616      19388.814     -302.12444    
    335000   322.61088      381.90135      18561.457      19404.946      164.03722    
    336000   324.38214      383.21387      18558.547      19405.883      180.66795    
    337000   325.54162      369.59653      18555.053      19390.431     -81.519156    
    338000   298.69229      365.91149      18577.762      19371.039     -279.1196     
    339000   292.21744      378.31878      18560.865      19357.285     -53.080756    
    340000   304.43168      390.5689       18526.25       19352.396      481.47418    
    341000   299.05786      376.07922      18544.402      19348.37      -34.381843    
    342000   292.55143      361.79082      18564.885      19345.256     -317.06423    
    343000   281.25294      375.59973      18565.151      19343.165     -122.72931    
    344000   292.13387      380.96617      18541.742      19340.69       221.17807    
    345000   299.87167      381.63315      18527.46       19338.146      235.70155    
    346000   304.58606      360.63013      18546.051      19342.48      -299.97682    
    347000   311.47281      364.47192      18537.851      19347.975     -232.89453    
    348000   307.32256      381.68541      18535.982      19357.381      145.99632    
    349000   313.04075      377.94966      18541.884      19367.729      144.47448    
    350000   309.76424      373.19964      18557.733      19374.14      -165.86763    
    351000   310.75555      365.85585      18567.106      19377.587     -237.78426    
    352000   311.4628       376.0119       18546.391      19368.04      -13.873303    
    353000   299.79997      381.35613      18533.831      19344.138      116.59752    
    354000   281.89138      380.56077      18542.844      19326.732      78.314593    
    355000   275.18287      372.62539      18555.117      19321.471     -111.93046    
    356000   286.82001      376.81741      18539.848      19327.044      15.452485    
    357000   271.44807      376.35484      18569.5        19334.239     -64.692212    
    358000   300.23745      377.60017      18538.39       19345.566      39.429118    
    359000   309.97025      374.50205      18532.966      19350.97       30.830574    
    360000   301.00055      375.01711      18550.103      19355.788     -10.39347     
    361000   298.32352      371.67111      18558.894      19357.403     -244.51098    
    362000   295.46643      381.54061      18550.884      19355.174      73.344846    
    363000   311.33658      374.7728       18533.242      19353.471     -67.321503    
    364000   304.5796       380.01945      18532.666      19348.475      78.292713    
    365000   309.34919      371.49377      18531.568      19345.675     -6.5880642    
    366000   294.0071       373.16838      18547.66       19341.491     -68.118608    
    367000   308.37298      377.41663      18517.154      19335.787      18.859175    
    368000   293.65027      374.81425      18529.166      19324.132     -34.416091    
    369000   288.97468      376.62232      18523.019      19313.103      102.64158    
    370000   292.39385      373.06625      18511.014      19302.434      2.1418228    
    371000   277.89156      369.31473      18524.519      19291.438     -51.409038    
    372000   281.28383      372.37589      18511.75       19286.584     -0.50115583   
    373000   274.81472      375.75236      18522.171      19291.125      87.769262    
    374000   286.64967      377.0406       18521.307      19308.483      95.330501    
    375000   298.8951       372.32654      18529.117      19329.099     -32.787       
    376000   294.52637      366.81839      18553.031      19341.255     -190.78675    
    377000   308.52508      372.44829      18533.573      19347.456     -15.557596    
    378000   312.76784      376.77295      18521.237      19345.515      119.1787     
    379000   298.24282      376.05085      18538.865      19341.638     -20.020988    
    380000   290.27635      368.73928      18553.125      19337.189     -218.58201    
Loop time of 15.6625 on 48 procs for 50000 steps with 481 atoms

Performance: 13.791 ns/day, 1.740 hours/ns, 3192.341 timesteps/s, 1.536 Matom-step/s
100.0% CPU use with 48 MPI tasks x 1 OpenMP threads

MPI task timing breakdown:
Section |  min time  |  avg time  |  max time  |%varavg| %total
---------------------------------------------------------------
Pair    | 0.01646    | 0.71496    | 4.8268     | 136.6 |  4.56
Bond    | 0.0050443  | 0.91224    | 4.4247     | 148.1 |  5.82
Neigh   | 0.028      | 0.030966   | 0.034057   |   0.9 |  0.20
Comm    | 5.3945     | 11.433     | 14.182     |  89.7 | 72.99
Output  | 0.0079295  | 0.013133   | 0.018304   |   2.9 |  0.08
Modify  | 0.55598    | 2.0178     | 8.5605     | 187.4 | 12.88
Other   |            | 0.5408     |            |       |  3.45

Nlocal:        10.0208 ave          46 max           0 min
Histogram: 23 11 4 2 0 0 1 2 1 4
Nghost:        1818.35 ave        2346 max        1180 min
Histogram: 8 0 0 0 24 0 0 0 0 16
Neighs:              0 ave           0 max           0 min
Histogram: 48 0 0 0 0 0 0 0 0 0

Total # of neighbors = 0
Ave neighs/atom = 0
Ave special neighs/atom = 15.567568
Neighbor list builds = 86
Dangerous builds = 0
unfix           myat1
next            cpt
jump            SELF loop
variable        zdes equal  -15+0.60*(${cpt}-1)
variable        zdes equal  -15+0.60*(7-1)
variable        zave equal xcm(H2,z)
fix             mytth2 H2 spring tether ${k1} 2.5 2.5 ${zdes} 0
fix             mytth2 H2 spring tether 0.5 2.5 2.5 ${zdes} 0
fix             mytth2 H2 spring tether 0.5 2.5 2.5 -11.4 0
run             10000
Generated 0 of 1 mixed pair_coeff terms from geometric mixing rule
Per MPI rank memory allocation (min/avg/max) = 13.32 | 13.74 | 14.98 Mbytes
   Step          Temp          E_pair         E_mol          TotEng         Press     
    380000   290.27635      368.73928      18553.125      19337.189     -218.58201    
    381000   304.20606      367.56293      18529.774      19332.592     -126.34733    
    382000   297.14317      377.66179      18518.4        19321.211      21.846504    
    383000   315.1596       379.30408      18479.972      19310.203      248.69672    
    384000   296.57564      371.78786      18504.045      19300.17       13.065595    
    385000   286.54767      365.30765      18518.624      19293.921     -290.17657    
    386000   289.87221      374.46541      18503.751      19292.963     -37.630013    
    387000   292.7806       380.38785      18515.255      19314.55       130.09482    
    388000   280.12832      379.142        18555.512      19335.458     -132.79086    
    389000   295.29846      364.43713      18562.91       19349.857     -195.59369    
    390000   320.24968      372.79334      18523.189      19354.192     -184.54435    
Loop time of 3.02247 on 48 procs for 10000 steps with 481 atoms

Performance: 14.293 ns/day, 1.679 hours/ns, 3308.554 timesteps/s, 1.591 Matom-step/s
100.0% CPU use with 48 MPI tasks x 1 OpenMP threads

MPI task timing breakdown:
Section |  min time  |  avg time  |  max time  |%varavg| %total
---------------------------------------------------------------
Pair    | 0.0032538  | 0.14247    | 0.902      |  59.6 |  4.71
Bond    | 0.0010143  | 0.18224    | 0.96454    |  66.1 |  6.03
Neigh   | 0.00463    | 0.0051401  | 0.0056978  |   0.4 |  0.17
Comm    | 1.0786     | 2.1993     | 2.7444     |  39.0 | 72.77
Output  | 0.0018242  | 0.0028965  | 0.0039965  |   1.3 |  0.10
Modify  | 0.10766    | 0.38106    | 1.5947     |  79.7 | 12.61
Other   |            | 0.1094     |            |       |  3.62

Nlocal:        10.0208 ave          45 max           0 min
Histogram: 24 8 7 1 0 0 1 3 1 3
Nghost:        1818.35 ave        2348 max        1178 min
Histogram: 8 0 0 0 24 0 0 0 0 16
Neighs:              0 ave           0 max           0 min
Histogram: 48 0 0 0 0 0 0 0 0 0

Total # of neighbors = 0
Ave neighs/atom = 0
Ave special neighs/atom = 15.567568
Neighbor list builds = 15
Dangerous builds = 0
fix             myat1 all ave/time 1000 10 10000 v_zave v_zdes file simulation_data/abpot/${cpt}.dat
fix             myat1 all ave/time 1000 10 10000 v_zave v_zdes file simulation_data/abpot/7.dat
run             50000
Generated 0 of 1 mixed pair_coeff terms from geometric mixing rule
Per MPI rank memory allocation (min/avg/max) = 13.32 | 13.74 | 14.98 Mbytes
   Step          Temp          E_pair         E_mol          TotEng         Press     
    390000   320.24968      372.79334      18523.189      19354.192     -184.54435    
    391000   310.80024      377.2665       18531.496      19353.452      2.2004388    
    392000   301.96283      377.94362      18534.084      19344.073      121.58715    
    393000   300.26677      371.08144      18532.544      19333.244     -119.83328    
    394000   293.5358       366.03676      18538.625      19324.65      -156.71014    
    395000   295.81899      373.06858      18523.256      19319.579     -23.893336    
    396000   291.55283      375.89636      18520.557      19313.604     -9.4758906    
    397000   291.02982      378.36382      18514.441      19309.207      101.04932    
    398000   297.90696      366.68379      18516.744      19309.67       21.406941    
    399000   305.40144      369.69845      18519.496      19326.16      -64.619281    
    400000   300.61823      378.79918      18534.94       19343.86       148.97991    
    401000   321.27086      375.53781      18525.634      19360.842     -104.96018    
    402000   322.12765      368.02249      18538.985      19367.904     -227.20463    
    403000   306.05131      370.34886      18558.659      19366.902     -103.80309    
    404000   313.31265      374.28348      18538.794      19361.362     -30.602913    
    405000   313.85178      375.67854      18523.921      19348.656      86.310687    
    406000   296.3047       370.22025      18535.855      19330.025     -102.3431     
    407000   289.13582      368.2196       18534.419      19316.331     -125.42049    
    408000   289.45629      379.50144      18514.548      19308.2        175.95111    
    409000   292.12446      370.67252      18521.366      19310.007      2.6741475    
    410000   301.18865      375.08915      18520.628      19326.655     -109.02181    
    411000   295.27054      373.61002      18567.446      19363.526     -26.838428    
    412000   318.86578      372.55632      18547.203      19375.988      20.066211    
    413000   316.96836      375.07254      18543.665      19372.252     -88.342195    
    414000   313.53249      372.9622       18542.782      19364.343      30.889893    
    415000   313.00522      376.716        18527.464      19352.025      29.308124    
    416000   298.08727      364.39605      18550.012      19340.908     -324.38225    
    417000   287.77205      371.02568      18542.773      19325.539     -99.510592    
    418000   295.132        377.66652      18517.484      19317.422      98.538443    
    419000   279.3804       374.06211      18542.558      19316.355      63.974958    
    420000   294.42858      362.96221      18537.304      19321.532     -281.63172    
    421000   309.8108       375.23445      18520.016      19338.525      36.790913    
    422000   309.36246      376.12174      18539.499      19358.253     -59.580568    
    423000   317.43588      373.13991      18548.335      19375.659     -109.06716    
    424000   309.62519      375.22473      18565.328      19383.561     -13.469559    
    425000   322.93799      370.99977      18543.805      19376.861     -96.640397    
    426000   308.20336      380.24184      18550.233      19371.449      147.61786    
    427000   301.16378      376.7642       18552.581      19360.247      69.720682    
    428000   308.396        375.08701      18529.304      19345.641     -43.428916    
    429000   308.79417      368.79181      18523.004      19333.615     -143.09166    
    430000   294.7303       375.46999      18526.852      19324.019     -8.6188121    
    431000   300.25096      373.13887      18518.987      19321.722     -98.54351     
    432000   290.19694      373.62649      18534.15       19322.987     -23.880663    
    433000   287.3329       371.38871      18543.835      19326.336     -116.79306    
    434000   304.95902      368.2475       18540.291      19344.871     -108.86779    
    435000   320.47295      377.11022      18537.57       19373.209      75.967089    
    436000   313.55737      375.04774      18558.393      19382.075      9.3440341    
    437000   311.00772      373.76232      18557.309      19376.058     -2.8404707    
    438000   309.22697      369.86717      18549.795      19362.101     -165.00834    
    439000   305.14853      377.43808      18533.631      19347.672      3.4602129    
    440000   302.42216      376.71336      18524.243      19333.659      120.43414    
Loop time of 15.2679 on 48 procs for 50000 steps with 481 atoms

Performance: 14.147 ns/day, 1.696 hours/ns, 3274.851 timesteps/s, 1.575 Matom-step/s
100.0% CPU use with 48 MPI tasks x 1 OpenMP threads

MPI task timing breakdown:
Section |  min time  |  avg time  |  max time  |%varavg| %total
---------------------------------------------------------------
Pair    | 0.016439   | 0.71689    | 4.7688     | 136.5 |  4.70
Bond    | 0.0050701  | 0.91439    | 4.5971     | 148.8 |  5.99
Neigh   | 0.020906   | 0.023209   | 0.025455   |   0.8 |  0.15
Comm    | 5.1953     | 11.117     | 13.739     |  88.4 | 72.81
Output  | 0.0078343  | 0.013154   | 0.018406   |   2.9 |  0.09
Modify  | 0.53147    | 1.9394     | 8.0989     | 180.1 | 12.70
Other   |            | 0.5437     |            |       |  3.56

Nlocal:        10.0208 ave          49 max           0 min
Histogram: 21 14 5 0 0 1 2 1 1 3
Nghost:        1818.35 ave        2348 max        1175 min
Histogram: 8 0 0 0 24 0 0 0 0 16
Neighs:              0 ave           0 max           0 min
Histogram: 48 0 0 0 0 0 0 0 0 0

Total # of neighbors = 0
Ave neighs/atom = 0
Ave special neighs/atom = 15.567568
Neighbor list builds = 66
Dangerous builds = 0
unfix           myat1
next            cpt
jump            SELF loop
variable        zdes equal  -15+0.60*(${cpt}-1)
variable        zdes equal  -15+0.60*(8-1)
variable        zave equal xcm(H2,z)
fix             mytth2 H2 spring tether ${k1} 2.5 2.5 ${zdes} 0
fix             mytth2 H2 spring tether 0.5 2.5 2.5 ${zdes} 0
fix             mytth2 H2 spring tether 0.5 2.5 2.5 -10.8 0
run             10000
Generated 0 of 1 mixed pair_coeff terms from geometric mixing rule
Per MPI rank memory allocation (min/avg/max) = 13.32 | 13.74 | 14.98 Mbytes
   Step          Temp          E_pair         E_mol          TotEng         Press     
    440000   302.42216      376.71336      18524.243      19333.659      120.43414    
    441000   287.20802      369.62638      18548.55       19329.11      -164.54607    
    442000   291.12414      370.6624       18542.16       19329.359     -69.876428    
    443000   292.04949      377.42953      18535.55       19330.841      63.28617     
    444000   303.11995      377.59395      18518.871      19330.166      157.62761    
    445000   300.11839      374.8859       18525.074      19329.366      3.3208542    
    446000   309.1264       375.87049      18521.29       19339.455      31.736852    
    447000   292.16747      371.70915      18566.018      19355.757     -154.50468    
    448000   321.05398      372.40993      18539.377      19371.147     -68.583012    
    449000   319.40528      373.96049      18548.216      19379.178      106.87278    
    450000   313.23892      377.72944      18549.225      19375.134      143.40375    
Loop time of 3.1108 on 48 procs for 10000 steps with 481 atoms

Performance: 13.887 ns/day, 1.728 hours/ns, 3214.609 timesteps/s, 1.546 Matom-step/s
100.0% CPU use with 48 MPI tasks x 1 OpenMP threads

MPI task timing breakdown:
Section |  min time  |  avg time  |  max time  |%varavg| %total
---------------------------------------------------------------
Pair    | 0.0032962  | 0.1427     | 0.98711    |  61.3 |  4.59
Bond    | 0.0010133  | 0.1825     | 0.94637    |  66.8 |  5.87
Neigh   | 0.0047685  | 0.0052884  | 0.0058196  |   0.4 |  0.17
Comm    | 1.0188     | 2.2682     | 2.8016     |  40.2 | 72.91
Output  | 0.0015857  | 0.0026203  | 0.0037304  |   1.3 |  0.08
Modify  | 0.10185    | 0.40104    | 1.6895     |  83.1 | 12.89
Other   |            | 0.1085     |            |       |  3.49

Nlocal:        10.0208 ave          50 max           0 min
Histogram: 23 11 6 0 1 0 1 2 2 2
Nghost:        1818.88 ave        2348 max        1177 min
Histogram: 8 0 0 0 24 0 0 0 0 16
Neighs:              0 ave           0 max           0 min
Histogram: 48 0 0 0 0 0 0 0 0 0

Total # of neighbors = 0
Ave neighs/atom = 0
Ave special neighs/atom = 15.567568
Neighbor list builds = 15
Dangerous builds = 0
fix             myat1 all ave/time 1000 10 10000 v_zave v_zdes file simulation_data/abpot/${cpt}.dat
fix             myat1 all ave/time 1000 10 10000 v_zave v_zdes file simulation_data/abpot/8.dat
run             50000
Generated 0 of 1 mixed pair_coeff terms from geometric mixing rule
Per MPI rank memory allocation (min/avg/max) = 13.32 | 13.74 | 14.98 Mbytes
   Step          Temp          E_pair         E_mol          TotEng         Press     
    450000   313.23892      377.72944      18549.225      19375.134      143.40375    
    451000   301.10789      376.42922      18552.279      19359.53      -88.086148    
    452000   300.08188      370.36362      18538.712      19338.429     -55.806978    
    453000   288.04148      372.45642      18541.432      19326.015     -155.22307    
    454000   286.17353      376.9663       18532.713      19319.133     -38.108605    
    455000   300.36619      375.74065      18518.393      19323.894      148.99668    
    456000   287.57054      371.23846      18546.192      19328.884     -82.738335    
    457000   289.23875      367.01222      18553.787      19334.638     -167.25683    
    458000   315.87004      381.76844      18509.865      19343.577      139.12706    
    459000   296.09883      373.33191      18557.166      19354.153     -116.34366    
    460000   317.70091      381.02542      18528.024      19363.613      142.92948    
    461000   321.62001      365.72091      18552.329      19378.22      -229.56881    
    462000   308.34543      366.80307      18589.392      19397.372     -139.20485    
    463000   329.71608      376.92512      18562.155      19410.834      130.75918    
    464000   326.58787      385.71291      18551.219      19404.21       235.83146    
    465000   324.55841      372.5308       18541.619      19378.524      37.320897    
    466000   306.73523      371.32242      18550.234      19360.43      -58.941226    
    467000   299.20202      368.84922      18549.526      19346.47      -181.60642    
    468000   295.75156      371.35388      18545.773      19340.285     -76.344282    
[...]
   2951000   312.04028      391.52589      18524.82       19362.809      409.77692    
   2952000   309.13173      370.96957      18525.625      19338.897     -149.04233    
   2953000   301.91057      366.88918      18529.66       19328.52      -108.79191    
   2954000   289.0859       370.1496       18536.189      19319.959     -148.09918    
   2955000   289.1771       384.50614      18519.131      19317.389      193.52936    
   2956000   290.89161      381.59216      18516.049      19313.846      104.9565     
   2957000   292.26332      370.69568      18526.885      19315.748     -124.62148    
   2958000   298.52986      364.33162      18528.821      19320.286     -284.77807    
   2959000   302.15203      372.02424      18523.072      19327.412      108.67611    
   2960000   310.21754      382.39385      18515.554      19341.803      274.26044    
Loop time of 18.1049 on 48 procs for 50000 steps with 481 atoms

Performance: 11.930 ns/day, 2.012 hours/ns, 2761.689 timesteps/s, 1.328 Matom-step/s
100.0% CPU use with 48 MPI tasks x 1 OpenMP threads

MPI task timing breakdown:
Section |  min time  |  avg time  |  max time  |%varavg| %total
---------------------------------------------------------------
Pair    | 0.019231   | 0.82524    | 4.2532     | 134.6 |  4.56
Bond    | 0.005558   | 1.023      | 5.8549     | 152.1 |  5.65
Neigh   | 0.032751   | 0.036435   | 0.0404     |   1.1 |  0.20
Comm    | 6.7151     | 13.168     | 16.183     |  82.8 | 72.73
Output  | 0.010086   | 0.016108   | 0.021897   |   2.9 |  0.09
Modify  | 0.67602    | 2.3551     | 8.2379     | 165.9 | 13.01
Other   |            | 0.681      |            |       |  3.76

Nlocal:        10.0208 ave          55 max           0 min
Histogram: 26 7 7 0 2 0 2 1 1 2
Nghost:        1818.35 ave        2347 max        1168 min
Histogram: 8 0 0 0 24 0 0 0 0 16
Neighs:              0 ave           0 max           0 min
Histogram: 48 0 0 0 0 0 0 0 0 0

Total # of neighbors = 0
Ave neighs/atom = 0
Ave special neighs/atom = 15.567568
Neighbor list builds = 79
Dangerous builds = 0
unfix           myat1
next            cpt
jump            SELF loop
variable        zdes equal  -15+0.60*(${cpt}-1)
variable        zdes equal  -15+0.60*(50-1)
variable        zave equal xcm(H2,z)
fix             mytth2 H2 spring tether ${k1} 2.5 2.5 ${zdes} 0
fix             mytth2 H2 spring tether 0.5 2.5 2.5 ${zdes} 0
fix             mytth2 H2 spring tether 0.5 2.5 2.5 14.4 0
run             10000
Generated 0 of 1 mixed pair_coeff terms from geometric mixing rule
Per MPI rank memory allocation (min/avg/max) = 13.32 | 13.82 | 14.98 Mbytes
   Step          Temp          E_pair         E_mol          TotEng         Press     
   2960000   310.21754      382.39385      18515.554      19341.803      274.26044    
   2961000   329.31745      369.68388      18518.783      19359.651     -142.33634    
   2962000   312.29226      366.00699      18552.881      19365.712     -371.54795    
   2963000   310.57225      373.17219      18543.493      19361.029      14.325748    
   2964000   315.62182      379.65512      18509.96       19341.204      62.436804    
   2965000   299.28647      376.22462      18512.104      19316.545      168.6821     
   2966000   292.79434      361.05441      18525.324      19305.305     -259.67947    
   2967000   293.91229      368.23812      18516.103      19304.868     -123.57855    
   2968000   280.53289      381.72609      18525.128      19308.238      226.4557     
   2969000   291.40222      381.12636      18515.34       19313.402      164.42236    
   2970000   295.86727      367.20603      18531.581      19322.11      -153.80604    
Loop time of 3.30898 on 48 procs for 10000 steps with 481 atoms

Performance: 13.055 ns/day, 1.838 hours/ns, 3022.075 timesteps/s, 1.454 Matom-step/s
100.0% CPU use with 48 MPI tasks x 1 OpenMP threads

MPI task timing breakdown:
Section |  min time  |  avg time  |  max time  |%varavg| %total
---------------------------------------------------------------
Pair    | 0.0038142  | 0.15921    | 0.95715    |  59.4 |  4.81
Bond    | 0.0010736  | 0.19834    | 1.0179     |  64.9 |  5.99
Neigh   | 0.0043946  | 0.0050575  | 0.0058508  |   0.6 |  0.15
Comm    | 1.0776     | 2.4112     | 2.9476     |  34.4 | 72.87
Output  | 0.0018519  | 0.0030345  | 0.004213   |   1.3 |  0.09
Modify  | 0.14368    | 0.39783    | 1.3568     |  66.3 | 12.02
Other   |            | 0.1343     |            |       |  4.06

Nlocal:        10.0208 ave          50 max           0 min
Histogram: 22 13 5 0 0 1 1 2 3 1
Nghost:        1818.35 ave        2347 max        1182 min
Histogram: 8 0 0 0 24 0 0 0 0 16
Neighs:              0 ave           0 max           0 min
Histogram: 48 0 0 0 0 0 0 0 0 0

Total # of neighbors = 0
Ave neighs/atom = 0
Ave special neighs/atom = 15.567568
Neighbor list builds = 14
Dangerous builds = 0
fix             myat1 all ave/time 1000 10 10000 v_zave v_zdes file simulation_data/abpot/${cpt}.dat
fix             myat1 all ave/time 1000 10 10000 v_zave v_zdes file simulation_data/abpot/50.dat
run             50000
Generated 0 of 1 mixed pair_coeff terms from geometric mixing rule
Per MPI rank memory allocation (min/avg/max) = 13.32 | 13.82 | 14.98 Mbytes
   Step          Temp          E_pair         E_mol          TotEng         Press     
   2970000   295.86727      367.20603      18531.581      19322.11      -153.80604    
   2971000   305.32214      365.17136      18532.154      19334.177     -174.93812    
   2972000   321.79621      372.07708      18512.931      19345.43      -18.279948    
   2973000   307.97567      385.73504      18528.983      19355.366      322.73256    
   2974000   307.84053      373.44102      18547.76       19361.656     -3.4103306    
   2975000   325.11801      366.50671      18538.633      19370.315     -179.17855    
   2976000   322.99575      370.26976      18533.232      19365.64      -170.35702    
   2977000   298.23352      378.83633      18535.402      19340.948      62.319048    
   2978000   298.36936      386.50009      18508.441      19321.845      313.4378     
   2979000   294.41856      373.70809      18515.886      19310.845     -65.68969     
   2980000   289.68917      365.76492      18525.81       19306.059     -104.27661    
   2981000   284.29255      373.54834      18523.025      19303.336     -53.724371    
   2982000   290.51172      380.78004      18505.274      19301.715      164.57119    
   2983000   299.78649      379.72322      18499.566      19308.22       140.32041    
   2984000   312.7279       361.65616      18516.621      19325.724     -292.37365    
   2985000   316.1001       369.81035      18523.852      19345.935     -98.921592    
   2986000   319.0102       379.96432      18520.2        19356.6        175.00835    
   2987000   296.20386      381.30173      18550.343      19355.45      -61.632355    
   2988000   316.01748      375.03163      18518.727      19345.913      110.79363    
   2989000   310.39835      364.01869      18527.488      19335.621     -289.20754    
   2990000   305.1542       370.00231      18522.735      19329.348     -85.120451    
   2991000   310.17948      374.97496      18507.961      19326.737      98.288234    
   2992000   308.1597       374.89494      18508.013      19323.82       60.089022    
   2993000   281.77359      369.5913       18550.4        19323.15      -143.65804    
   2994000   302.71427      366.40213      18523.815      19323.338     -135.74361    
   2995000   293.93234      375.14888      18528.449      19324.153      8.3559047    
   2996000   297.17708      368.68282      18533.358      19327.238     -155.09853    
   2997000   309.3894       373.33308      18513.752      19329.756      61.399048    
   2998000   311.60129      373.66215      18515.621      19335.119     -113.67694    
   2999000   307.90879      382.40141      18522.927      19345.881      289.22607    
   3000000   307.35015      372.04221      18539.264      19351.059     -77.025973    
   3001000   307.28445      365.08738      18541.58       19346.326     -162.17847    
   3002000   303.9896       373.55894      18522.193      19330.697      128.54359    
   3003000   295.17041      372.897        18513.942      19309.166     -70.538951    
   3004000   293.3502       374.81513      18500.847      19295.384      51.437598    
   3005000   299.45305      369.08643      18499.446      19296.986     -34.401086    
   3006000   288.92625      371.82163      18514.566      19299.78      -27.449581    
   3007000   288.61907      370.34936      18530.04       19313.343     -5.8839031    
   3008000   312.27709      369.80004      18508.668      19325.271     -100.03658    
   3009000   303.78443      375.0424       18523.864      19333.558      111.3779     
   3010000   301.02731      371.35494      18537.064      19339.125     -5.5353082    
   3011000   295.76514      374.66125      18544.188      19342.027     -1.2901288    
   3012000   306.75641      370.86269      18531.36       19341.126     -184.08978    
   3013000   307.74469      369.38624      18524.556      19334.26      -53.407189    
   3014000   301.77058      383.68865      18506.177      19321.636      94.273818    
   3015000   297.26721      374.91909      18512.443      19312.689     -19.080534    
   3016000   293.94702      373.52003      18514.584      19308.681     -67.049732    
   3017000   284.74051      370.87644      18527.299      19305.579     -42.916326    
   3018000   296.7398       367.23588      18506.778      19298.586     -251.35054    
   3019000   280.82456      381.25793      18508.58       19291.638      91.560716    
   3020000   280.18833      375.8179       18516.831      19293.539      101.15936    
Loop time of 17.0896 on 48 procs for 50000 steps with 481 atoms

Performance: 12.639 ns/day, 1.899 hours/ns, 2925.762 timesteps/s, 1.407 Matom-step/s
100.0% CPU use with 48 MPI tasks x 1 OpenMP threads

MPI task timing breakdown:
Section |  min time  |  avg time  |  max time  |%varavg| %total
---------------------------------------------------------------
Pair    | 0.0177     | 0.80588    | 4.3597     | 132.1 |  4.72
Bond    | 0.0053621  | 1.0119     | 5.0889     | 150.4 |  5.92
Neigh   | 0.021774   | 0.024624   | 0.027612   |   1.0 |  0.14
Comm    | 6.2965     | 12.377     | 15.243     |  80.6 | 72.42
Output  | 0.010197   | 0.016205   | 0.021993   |   2.9 |  0.09
Modify  | 0.73254    | 2.1855     | 7.7019     | 158.9 | 12.79
Other   |            | 0.6688     |            |       |  3.91

Nlocal:        10.0208 ave          45 max           0 min
Histogram: 23 8 8 1 0 0 0 3 2 3
Nghost:        1818.35 ave        2346 max        1178 min
Histogram: 8 0 0 0 24 0 0 0 0 16
Neighs:              0 ave           0 max           0 min
Histogram: 48 0 0 0 0 0 0 0 0 0

Total # of neighbors = 0
Ave neighs/atom = 0
Ave special neighs/atom = 15.567568
Neighbor list builds = 59
Dangerous builds = 0
unfix           myat1
next            cpt
jump            SELF loop
variable        zdes equal  -15+0.60*(${cpt}-1)
variable        zdes equal  -15+0.60*(51-1)
variable        zave equal xcm(H2,z)
fix             mytth2 H2 spring tether ${k1} 2.5 2.5 ${zdes} 0
fix             mytth2 H2 spring tether 0.5 2.5 2.5 ${zdes} 0
fix             mytth2 H2 spring tether 0.5 2.5 2.5 15 0
run             10000
Generated 0 of 1 mixed pair_coeff terms from geometric mixing rule
Per MPI rank memory allocation (min/avg/max) = 13.32 | 13.82 | 14.98 Mbytes
   Step          Temp          E_pair         E_mol          TotEng         Press     
   3020000   280.18833      375.8179       18516.831      19293.539      101.15936    
   3021000   302.82682      369.79806      18502.979      19306.058     -148.29787    
   3022000   298.05944      370.0694       18531.368      19327.897     -136.40768    
   3023000   315.10387      373.86727      18516.474      19341.188     -88.310182    
   3024000   308.64419      382.6379       18518.288      19342.531      217.27383    
   3025000   307.31037      376.67028      18528.722      19345.088     -0.56431963   
   3026000   296.30049      364.2108       18553.609      19341.763     -227.82577    
   3027000   295.36397      372.90586      18536.016      19331.526      23.37357     
   3028000   288.65047      379.54349      18517.653      19310.195      122.4657     
   3029000   288.11027      376.85457      18500.498      19289.577      89.515902    
   3030000   286.02888      371.35094      18504.562      19285.16      -22.919984    
Loop time of 4.04022 on 48 procs for 10000 steps with 481 atoms

Performance: 10.692 ns/day, 2.245 hours/ns, 2475.110 timesteps/s, 1.191 Matom-step/s
100.0% CPU use with 48 MPI tasks x 1 OpenMP threads

MPI task timing breakdown:
Section |  min time  |  avg time  |  max time  |%varavg| %total
---------------------------------------------------------------
Pair    | 0.0035843  | 0.17406    | 0.91005    |  63.0 |  4.31
Bond    | 0.0010736  | 0.2164     | 1.2771     |  73.0 |  5.36
Neigh   | 0.0085109  | 0.0096105  | 0.010414   |   0.5 |  0.24
Comm    | 1.5382     | 2.9206     | 3.6343     |  41.6 | 72.29
Output  | 0.0024119  | 0.0036337  | 0.0048372  |   1.3 |  0.09
Modify  | 0.15254    | 0.56545    | 2.0358     |  86.8 | 14.00
Other   |            | 0.1505     |            |       |  3.73

Nlocal:        10.0208 ave          56 max           0 min
Histogram: 23 15 2 1 0 1 2 3 0 1
Nghost:        1818.35 ave        2346 max        1180 min
Histogram: 8 0 0 0 24 0 0 0 0 16
Neighs:              0 ave           0 max           0 min
Histogram: 48 0 0 0 0 0 0 0 0 0

Total # of neighbors = 0
Ave neighs/atom = 0
Ave special neighs/atom = 15.567568
Neighbor list builds = 18
Dangerous builds = 0
fix             myat1 all ave/time 1000 10 10000 v_zave v_zdes file simulation_data/abpot/${cpt}.dat
fix             myat1 all ave/time 1000 10 10000 v_zave v_zdes file simulation_data/abpot/51.dat
run             50000
Generated 0 of 1 mixed pair_coeff terms from geometric mixing rule
Per MPI rank memory allocation (min/avg/max) = 13.32 | 13.82 | 14.98 Mbytes
   Step          Temp          E_pair         E_mol          TotEng         Press     
   3030000   286.02888      371.35094      18504.562      19285.16      -22.919984    
   3031000   299.95677      367.97396      18493.27       19290.419     -155.15317    
   3032000   284.27495      373.92783      18516.833      19297.498      81.480156    
   3033000   281.09937      378.72881      18529.446      19310.369      32.295001    
   3034000   308.77418      371.14716      18506.724      19319.662     -79.945812    
   3035000   297.24764      371.47509      18524.595      19321.368     -198.79705    
   3036000   314.65631      373.25561      18501.976      19325.438      10.550341    
   3037000   291.34302      373.38941      18535.214      19325.454      17.979441    
   3038000   311.18681      374.89542      18506.744      19326.882      52.177833    
   3039000   302.25344      373.32405      18521.912      19327.697     -15.605593    
   3040000   299.99957      370.05293      18521.906      19321.195     -95.956537    
   3041000   276.16729      376.9725       18522.027      19294.136      31.287865    
   3042000   290.78428      372.30057      18485.121      19273.473      23.378178    
   3043000   278.29231      374.64494      18499.858      19272.681      78.939934    
   3044000   276.61097      368.51042      18514.33       19278.613     -149.33741    
   3045000   283.69892      376.59509      18511.793      19294.301      78.969277    
   3046000   295.94768      376.39662      18512.727      19312.562      164.55167    
   3047000   298.25112      369.58487      18526.183      19322.502     -89.011151    
   3048000   311.16931      372.62334      18509.197      19327.037      12.0297      
   3049000   299.75965      371.44495      18530.414      19330.751     -102.28685    
   3050000   298.3192       383.73296      18522.642      19333.207      234.29121    
   3051000   314.00061      370.71938      18510.848      19330.836     -90.735788    
   3052000   303.97155      371.64606      18509.815      19316.38      -82.518887    
   3053000   296.57475      372.80034      18502.083      19299.219      86.954488    
   3054000   280.98882      373.42583      18504.273      19279.735     -130.915      
   3055000   281.9999       379.3222       18488.31       19271.114      185.09024    
   3056000   296.40246      365.95087      18484.986      19275.026     -112.44579    
   3057000   293.88283      368.07733      18496.68       19285.241     -149.32684    
   3058000   289.51182      380.91992      18510.991      19306.141      224.83529    
   3059000   296.51208      368.98093      18525.126      19318.353     -85.391386    
   3060000   308.28754      370.85862      18510.62       19322.573     -32.899648    
   3061000   291.25699      373.05652      18534.368      19324.151     -41.425706    
   3062000   311.48625      378.20819      18503.71       19327.589      95.485346    
   3063000   301.89915      370.65644      18520.656      19323.267     -141.77806    
   3064000   305.31927      369.06052      18515.298      19321.206     -56.166051    
   3065000   289.12995      374.91363      18535.814      19324.411     -36.815717    
   3066000   306.02475      377.6105       18510.946      19326.413      122.30247    
   3067000   309.15257      380.35115      18504.142      19326.826     -25.322541    
   3068000   304.67583      364.2097       18520.211      19320.348     -283.71151    
   3069000   298.90243      374.7957       18510.516      19312.977      84.48081     
   3070000   300.21134      375.25925      18507.187      19311.985     -7.5295117    
   3071000   294.33236      371.20531      18519.454      19311.786     -58.688576    
   3072000   292.39063      367.78188      18527.329      19313.46       19.024132    
   3073000   311.66682      368.00776      18493.868      19307.806     -118.4879     
   3074000   290.7338       372.1493       18516.839      19304.967     -44.963094    
   3075000   292.24875      380.96061      18516.737      19315.844      279.57222    
   3076000   286.78224      371.96194      18550.056      19332.343     -80.09679     
   3077000   312.99373      363.63092      18539.881      19351.34      -241.71545    
   3078000   320.61359      376.40527      18522.583      19357.718      158.64233    
   3079000   318.82189      378.76719      18515.51       19350.444      185.67546    
   3080000   303.35453      374.93206      18527.278      19336.246      62.25932     
Loop time of 17.8163 on 48 procs for 50000 steps with 481 atoms

Performance: 12.124 ns/day, 1.980 hours/ns, 2806.425 timesteps/s, 1.350 Matom-step/s
100.0% CPU use with 48 MPI tasks x 1 OpenMP threads

MPI task timing breakdown:
Section |  min time  |  avg time  |  max time  |%varavg| %total
---------------------------------------------------------------
Pair    | 0.01795    | 0.82415    | 4.4416     | 133.0 |  4.63
Bond    | 0.0053819  | 1.0352     | 5.9754     | 153.6 |  5.81
Neigh   | 0.031094   | 0.034951   | 0.039053   |   1.2 |  0.20
Comm    | 6.623      | 12.865     | 15.788     |  81.4 | 72.21
Output  | 0.011205   | 0.017315   | 0.023191   |   2.9 |  0.10
Modify  | 0.74399    | 2.2946     | 7.8752     | 159.6 | 12.88
Other   |            | 0.7454     |            |       |  4.18

Nlocal:        10.0208 ave          54 max           0 min
Histogram: 25 12 3 0 1 3 0 0 2 2
Nghost:        1818.35 ave        2347 max        1169 min
Histogram: 8 0 0 0 24 0 0 0 0 16
Neighs:              0 ave           0 max           0 min
Histogram: 48 0 0 0 0 0 0 0 0 0

Total # of neighbors = 0
Ave neighs/atom = 0
Ave special neighs/atom = 15.567568
Neighbor list builds = 78
Dangerous builds = 0
unfix           myat1
next            cpt
jump            SELF loop

Total wall time: 0:17:59
