# --- log file ---

variable pre equal 112 # desired pressure (Atm)
variable tem equal 300 # desired temperature (K)

variable k1 equal 4 # spring constant
variable k2 equal 3.5 # spring constant

units real
atom_style molecular
boundary p p p
neighbor 1.0 bin
neigh_modify delay 3 one 6000
bond_style harmonic
angle_style harmonic
dihedral_style opls
improper_style harmonic
pair_style hybrid lj/cut 14 sg 15 cb 30 # Fluid-fluid interactions have a cutoff of 15 Å, fluid-solid interactions have a cutoff of 30 Å
# *--* C-C parameters *--*
bond_style harmonic
angle_style harmonic
dihedral_style opls
improper_style harmonic
# *--* C-C parameters *--*


# 2. Read the graphite platelet data file and define potentials parameters
read_data       ../geometry/carbonPlatelets/simulation_data/abpot_sys.data  extra/atom/types 1
Reading data file ...
  orthogonal box = (-30 -30 -30) to (30 30 30)
  3 by 4 by 4 MPI processor grid
  reading atoms ...
  480 atoms
  reading velocities ...
  480 velocities
  scanning bonds ...
  2 = max bonds/atom
  scanning angles ...
  3 = max angles/atom
  scanning dihedrals ...
  8 = max dihedrals/atom
  scanning impropers ...
  2 = max impropers/atom
  orthogonal box = (-30 -30 -30) to (30 30 30)
  3 by 4 by 4 MPI processor grid
  reading bonds ...
  676 bonds
  reading angles ...
  1268 angles
  reading dihedrals ...
  2394 dihedrals
  reading impropers ...
  396 impropers
Finding 1-2 1-3 1-4 neighbors ...
  special bond factors lj:    0        0        0       
  special bond factors coul:  0        0        0       
     3 = max # of 1-2 neighbors
     6 = max # of 1-3 neighbors
    18 = max # of 1-4 neighbors
    18 = max # of special neighbors
  special bonds CPU = 0.002 seconds
  read_data CPU = 0.050 seconds
include         PARM.lammps

#////////////////////////////////////////////////////////////////////////////////////////////////////////////////////////////////
#//     Filename: PARM.lammps
#//     File Type: LAMMPS input script
#//     Description: This script defines the parameters for the simulation of hydrogen absorption in graphite platelets.
#//     Author: Edoardo Cabiati
#//     Date: 2024-07-27
#////////////////////////////////////////////////////////////////////////////////////////////////////////////////////////////////

mass 2 2.016 # For now at least, in accordance with the paper by Wang and Johnson,
             # 1998, the hydrogen atoms are regarded as simple spherical atoms

# //////////////////////////////////////    C-C potentials    //////////////////////////////////////
pair_coeff 1 1 lj/cut 0.066 3.4
bond_coeff 1 469 1.4
angle_coeff 1 63 120
dihedral_coeff 1 0 7.25 0 0
improper_coeff 1 5 180
special_bonds lj 0.0 0.0 0.5
Finding 1-2 1-3 1-4 neighbors ...
  special bond factors lj:    0        0        0.5     
  special bond factors coul:  0        0        0       
     3 = max # of 1-2 neighbors
     6 = max # of 1-3 neighbors
    18 = max # of 1-4 neighbors
    18 = max # of special neighbors
  special bonds CPU = 0.001 seconds
# //////////////////////////////////////    C-C potentials    //////////////////////////////////////
# -------------------------------------------------------------------------------------------------
# //////////////////////////////////////    H-H potentials    //////////////////////////////////////
variable alpha equal 1.713          #|
variable sigma equal 1.567          #|
variable gamma equal 0.00993        #|
variable c6 equal 12.14             #|      The parameters are all in atomic units, the conversion to kcal/mol
variable c8 equal 215.2             #|      is performed in the pair_sg.cpp file
variable c9 equal 143.1             #|
variable c10 equal 4813.9           #|
variable rc equal 8.321             #|
pair_coeff 2 2 sg ${alpha} ${sigma} ${gamma} ${c6} ${c8} ${c9} ${c10} ${rc} # H-H potentials
pair_coeff 2 2 sg 1.713 ${sigma} ${gamma} ${c6} ${c8} ${c9} ${c10} ${rc} 
pair_coeff 2 2 sg 1.713 1.567 ${gamma} ${c6} ${c8} ${c9} ${c10} ${rc} 
pair_coeff 2 2 sg 1.713 1.567 0.00993 ${c6} ${c8} ${c9} ${c10} ${rc} 
pair_coeff 2 2 sg 1.713 1.567 0.00993 12.14 ${c8} ${c9} ${c10} ${rc} 
pair_coeff 2 2 sg 1.713 1.567 0.00993 12.14 215.2 ${c9} ${c10} ${rc} 
pair_coeff 2 2 sg 1.713 1.567 0.00993 12.14 215.2 143.1 ${c10} ${rc} 
pair_coeff 2 2 sg 1.713 1.567 0.00993 12.14 215.2 143.1 4813.9 ${rc} 
pair_coeff 2 2 sg 1.713 1.567 0.00993 12.14 215.2 143.1 4813.9 8.321 
#pair_coeff 2 2 sg 1.713 1.567 0.00993 12.14 215.2 143.1 4813.9 8.321 # H-H potentials
# //////////////////////////////////////    H-H potentials    //////////////////////////////////////
# -------------------------------------------------------------------------------------------------
# //////////////////////////////////////    C-H potentials    //////////////////////////////////////
variable sigma_CC equal 3.43 # Å
variable sigma_HH equal 3.075 # Å
variable sigma_CH_geo equal sqrt(${sigma_CC}*${sigma_HH}) # Å
variable sigma_CH_geo equal sqrt(3.43*${sigma_HH}) 
variable sigma_CH_geo equal sqrt(3.43*3.075) 
variable sigma_CH_arit equal 0.5*(${sigma_CC}+${sigma_HH}) # Å
variable sigma_CH_arit equal 0.5*(3.43+${sigma_HH}) 
variable sigma_CH_arit equal 0.5*(3.43+3.075) 

variable P_par equal 0.57 # Å^3
variable P_perp equal 1.995 # Å^3
variable P_h equal 0.81 # Å^3
variable E_h equal 2.337e5*(1/503.23) # K * 1/503.23 kcal/mol/K = kcal/mol
variable E_c equal 1.39254e5*(1/503.23) # K * 1/503.23 kcal/mol/K = kcal/mol

variable epsilon equal 4*v_E_h*v_E_c*v_P_h*(v_P_par+v_P_perp/2)/(v_sigma_CH_geo^6*(v_E_h+v_E_c)) # kcal/mol

pair_coeff 1 2 cb ${epsilon} ${sigma_CH_geo} ${P_par} ${P_perp} # C-H potential
pair_coeff 1 2 cb 0.750549668586509 ${sigma_CH_geo} ${P_par} ${P_perp} 
pair_coeff 1 2 cb 0.750549668586509 3.24765299870537 ${P_par} ${P_perp} 
pair_coeff 1 2 cb 0.750549668586509 3.24765299870537 0.57 ${P_perp} 
pair_coeff 1 2 cb 0.750549668586509 3.24765299870537 0.57 1.995 
#pair_coeff 1 2 lj/cut 0.3025 2.065
# //////////////////////////////////////    C-H potentials    //////////////////////////////////////

# 3. Add a single hydrogen molecule to the system, close to the center of the first platelet
create_atoms    2 single 0 0 -2
Created 1 atoms
  using lattice units in orthogonal box = (-30 -30 -30) to (30 30 30)
  create_atoms CPU = 0.000 seconds

group           C type 1
480 atoms in group C
group           H2 type 2
1 atoms in group H2

# 4. Equilibration
timestep        0.05
fix             mytth1 C spring/self ${k2} # Apply a spring force to the carbon atoms
fix             mytth1 C spring/self 3.5 
velocity        all create ${tem} 48 rot yes mom yes dist gaussian # Initialize velocities
velocity        all create 300 48 rot yes mom yes dist gaussian 
fix             mynpt all npt temp ${tem} ${tem} 100 x ${pre} ${pre} 1000 y ${pre} ${pre} 1000 # Apply NPT ensemble to the system
fix             mynpt all npt temp 300 ${tem} 100 x ${pre} ${pre} 1000 y ${pre} ${pre} 1000 
fix             mynpt all npt temp 300 300 100 x ${pre} ${pre} 1000 y ${pre} ${pre} 1000 
fix             mynpt all npt temp 300 300 100 x 112 ${pre} 1000 y ${pre} ${pre} 1000 
fix             mynpt all npt temp 300 300 100 x 112 112 1000 y ${pre} ${pre} 1000 
fix             mynpt all npt temp 300 300 100 x 112 112 1000 y 112 ${pre} 1000 
fix             mynpt all npt temp 300 300 100 x 112 112 1000 y 112 112 1000 

thermo          10000
dump            dump all atom 1000 simulation_data/absorption_pot.lammpstrj

run             20000

CITE-CITE-CITE-CITE-CITE-CITE-CITE-CITE-CITE-CITE-CITE-CITE-CITE

Your simulation uses code contributions which should be cited:

- Type Label Framework: https://doi.org/10.1021/acs.jpcb.3c08419

@Article{Gissinger24,
 author = {Jacob R. Gissinger, Ilia Nikiforov, Yaser Afshar, Brendon Waters, Moon-ki Choi, Daniel S. Karls, Alexander Stukowski, Wonpil Im, Hendrik Heinz, Axel Kohlmeyer, and Ellad B. Tadmor},
 title = {Type Label Framework for Bonded Force Fields in LAMMPS},
 journal = {J. Phys. Chem. B},
 year =    2024,
 volume =  128,
 number =  13,
 pages =   {3282–-3297}
}

CITE-CITE-CITE-CITE-CITE-CITE-CITE-CITE-CITE-CITE-CITE-CITE-CITE

Generated 0 of 1 mixed pair_coeff terms from geometric mixing rule
Neighbor list info ...
  update: every = 1 steps, delay = 3 steps, check = yes
  max neighbors/atom: 6000, page size: 100000
  master list distance cutoff = 31
  ghost atom cutoff = 31
  binsize = 15.5, bins = 4 4 4
  4 neighbor lists, perpetual/occasional/extra = 4 0 0
  (1) pair lj/cut, perpetual, skip trim from (4)
      attributes: half, newton on, cut 15
      pair build: skip/trim
      stencil: none
      bin: none
  (2) pair sg, perpetual, skip trim from (4)
      attributes: half, newton on, cut 16
      pair build: skip/trim
      stencil: none
      bin: none
  (3) pair cb, perpetual, skip from (4)
      attributes: half, newton on
      pair build: skip
      stencil: none
      bin: none
  (4) neighbor class addition, perpetual
      attributes: half, newton on
      pair build: half/bin/newton
      stencil: half/bin/3d
      bin: standard
Per MPI rank memory allocation (min/avg/max) = 13.28 | 13.37 | 13.93 Mbytes
   Step          Temp          E_pair         E_mol          TotEng         Press          Volume    
         0   300            308.43814      19603.922      20341.597     -432.48369      216000       
     10000   308.72719      373.58236      18568.419      19383.724     -313.9945       172136.64    
     20000   322.02648      371.05675      18538.378      19370.187     -418.66256      126544.33    
Loop time of 7.99443 on 48 procs for 20000 steps with 481 atoms

Performance: 10.808 ns/day, 2.221 hours/ns, 2501.742 timesteps/s, 1.203 Matom-step/s
99.9% CPU use with 48 MPI tasks x 1 OpenMP threads

MPI task timing breakdown:
Section |  min time  |  avg time  |  max time  |%varavg| %total
---------------------------------------------------------------
Pair    | 0.13519    | 0.46583    | 2.5165     |  79.1 |  5.83
Bond    | 0.0038232  | 0.42621    | 2.3331     | 113.0 |  5.33
Neigh   | 0.019931   | 0.022671   | 0.025145   |   1.0 |  0.28
Comm    | 2.1504     | 4.5183     | 6.552      |  70.8 | 56.52
Output  | 0.0035944  | 0.0089882  | 0.014961   |   4.0 |  0.11
Modify  | 0.72056    | 2.27       | 4.9763     | 107.7 | 28.39
Other   |            | 0.2825     |            |       |  3.53

Nlocal:        10.0208 ave          42 max           0 min
Histogram: 21 4 10 5 0 1 0 3 3 1
Nghost:        1907.85 ave        2370 max        1332 min
Histogram: 8 0 0 0 24 0 0 0 0 16
Neighs:              0 ave           0 max           0 min
Histogram: 48 0 0 0 0 0 0 0 0 0

Total # of neighbors = 0
Ave neighs/atom = 0
Ave special neighs/atom = 15.567568
Neighbor list builds = 55
Dangerous builds = 0
unfix           mynpt
unfix           mytth1

# 5. Umbrella sampling
fix             mynvt all nvt temp ${tem} ${tem} 100
fix             mynvt all nvt temp 300 ${tem} 100
fix             mynvt all nvt temp 300 300 100
fix             mytth1 C spring/self ${k2}
fix             mytth1 C spring/self 3.5

variable        cpt loop 51
label           loop
variable        zdes equal  -15+0.60*(${cpt}-1)
variable        zdes equal  -15+0.60*(1-1)
variable        zave equal xcm(H2,z)
fix             mytth2 H2 spring tether ${k1} 2.5 2.5 ${zdes} 0
fix             mytth2 H2 spring tether 4 2.5 2.5 ${zdes} 0
fix             mytth2 H2 spring tether 4 2.5 2.5 -15 0
run             10000
Generated 0 of 1 mixed pair_coeff terms from geometric mixing rule
Per MPI rank memory allocation (min/avg/max) = 13.32 | 13.74 | 14.98 Mbytes
   Step          Temp          E_pair         E_mol          TotEng         Press     
     20000   322.02648      371.05675      18538.378      19370.187     -418.66256    
     30000   292.0618       340.79691      18603.348      19362.024     -1062.6509    
Loop time of 3.11238 on 48 procs for 10000 steps with 481 atoms

Performance: 13.880 ns/day, 1.729 hours/ns, 3212.974 timesteps/s, 1.545 Matom-step/s
100.0% CPU use with 48 MPI tasks x 1 OpenMP threads

MPI task timing breakdown:
Section |  min time  |  avg time  |  max time  |%varavg| %total
---------------------------------------------------------------
Pair    | 0.0030898  | 0.14561    | 0.77723    |  54.8 |  4.68
Bond    | 0.0010252  | 0.18237    | 0.77092    |  55.9 |  5.86
Neigh   | 0.03706    | 0.0408     | 0.044379   |   1.0 |  1.31
Comm    | 1.2869     | 2.2529     | 2.7846     |  33.6 | 72.39
Output  | 0.0011595  | 0.002906   | 0.0048587  |   2.2 |  0.09
Modify  | 0.12344    | 0.37241    | 1.5041     |  73.9 | 11.97
Other   |            | 0.1154     |            |       |  3.71

Nlocal:        10.0208 ave          41 max           0 min
Histogram: 22 7 4 6 1 1 0 2 3 2
Nghost:           1915 ave        2388 max        1333 min
Histogram: 8 0 0 0 24 0 0 0 0 16
Neighs:              0 ave           0 max           0 min
Histogram: 48 0 0 0 0 0 0 0 0 0

Total # of neighbors = 0
Ave neighs/atom = 0
Ave special neighs/atom = 15.567568
Neighbor list builds = 116
Dangerous builds = 0
fix             myat1 all ave/time 1000 10 10000 v_zave v_zdes file simulation_data/abpot/${cpt}.dat
fix             myat1 all ave/time 1000 10 10000 v_zave v_zdes file simulation_data/abpot/1.dat
run             50000
Generated 0 of 1 mixed pair_coeff terms from geometric mixing rule
Per MPI rank memory allocation (min/avg/max) = 13.32 | 13.78 | 14.98 Mbytes
   Step          Temp          E_pair         E_mol          TotEng         Press     
     30000   292.0618       340.79691      18603.348      19362.024     -1062.6509    
     40000   296.95994      398.82815      18522.901      19346.616      395.88307    
     50000   269.09031      377.59155      18589.444      19352.047     -142.18366    
     60000   299.79175      356.24415      18600.073      19385.255     -529.8496     
     70000   304.26634      372.43766      18582.161      19389.94      -84.886774    
     80000   309.19314      394.54361      18541.237      19378.17       488.98739    
Loop time of 14.9339 on 48 procs for 50000 steps with 481 atoms

Performance: 14.464 ns/day, 1.659 hours/ns, 3348.098 timesteps/s, 1.610 Matom-step/s
100.0% CPU use with 48 MPI tasks x 1 OpenMP threads

MPI task timing breakdown:
Section |  min time  |  avg time  |  max time  |%varavg| %total
---------------------------------------------------------------
Pair    | 0.015909   | 0.7246     | 3.6703     | 120.6 |  4.85
Bond    | 0.0051051  | 0.91321    | 3.8254     | 125.0 |  6.12
Neigh   | 0.03791    | 0.042217   | 0.04598    |   1.1 |  0.28
Comm    | 6.4542     | 10.889     | 13.292     |  72.8 | 72.91
Output  | 0.0055805  | 0.012667   | 0.020171   |   4.1 |  0.08
Modify  | 0.6095     | 1.7705     | 7.0651     | 156.2 | 11.86
Other   |            | 0.5817     |            |       |  3.90

Nlocal:        10.0208 ave          41 max           0 min
Histogram: 21 3 14 2 0 0 1 3 3 1
Nghost:         1934.1 ave        2414 max        1332 min
Histogram: 8 0 0 0 24 0 0 0 0 16
Neighs:              0 ave           0 max           0 min
Histogram: 48 0 0 0 0 0 0 0 0 0

Total # of neighbors = 0
Ave neighs/atom = 0
Ave special neighs/atom = 15.567568
Neighbor list builds = 119
Dangerous builds = 0
unfix           myat1
next            cpt
jump            SELF loop
variable        zdes equal  -15+0.60*(${cpt}-1)
variable        zdes equal  -15+0.60*(2-1)
variable        zave equal xcm(H2,z)
fix             mytth2 H2 spring tether ${k1} 2.5 2.5 ${zdes} 0
fix             mytth2 H2 spring tether 4 2.5 2.5 ${zdes} 0
fix             mytth2 H2 spring tether 4 2.5 2.5 -14.4 0
run             10000
Generated 0 of 1 mixed pair_coeff terms from geometric mixing rule
Per MPI rank memory allocation (min/avg/max) = 13.32 | 13.83 | 14.98 Mbytes
   Step          Temp          E_pair         E_mol          TotEng         Press     
     80000   309.19314      394.54361      18541.237      19378.17       488.98739    
     90000   276.8108       363.61253      18577.309      19336.979     -306.08105    
Loop time of 3.03534 on 48 procs for 10000 steps with 481 atoms

Performance: 14.232 ns/day, 1.686 hours/ns, 3294.524 timesteps/s, 1.585 Matom-step/s
100.0% CPU use with 48 MPI tasks x 1 OpenMP threads

MPI task timing breakdown:
Section |  min time  |  avg time  |  max time  |%varavg| %total
---------------------------------------------------------------
Pair    | 0.0030283  | 0.14479    | 0.72779    |  53.9 |  4.77
Bond    | 0.0010203  | 0.1827     | 0.78761    |  56.0 |  6.02
Neigh   | 0.0037862  | 0.0042568  | 0.0046772  |   0.4 |  0.14
Comm    | 1.2845     | 2.2239     | 2.7213     |  33.0 | 73.27
Output  | 0.0011476  | 0.0023765  | 0.0036381  |   1.6 |  0.08
Modify  | 0.11939    | 0.36112    | 1.4579     |  72.4 | 11.90
Other   |            | 0.1162     |            |       |  3.83

Nlocal:        10.0208 ave          40 max           0 min
Histogram: 19 6 7 8 0 0 2 1 2 3
Nghost:        1927.85 ave        2405 max        1334 min
Histogram: 8 0 0 0 24 0 0 0 0 16
Neighs:              0 ave           0 max           0 min
Histogram: 48 0 0 0 0 0 0 0 0 0

Total # of neighbors = 0
Ave neighs/atom = 0
Ave special neighs/atom = 15.567568
Neighbor list builds = 12
Dangerous builds = 0
fix             myat1 all ave/time 1000 10 10000 v_zave v_zdes file simulation_data/abpot/${cpt}.dat
fix             myat1 all ave/time 1000 10 10000 v_zave v_zdes file simulation_data/abpot/2.dat
run             50000
Generated 0 of 1 mixed pair_coeff terms from geometric mixing rule
Per MPI rank memory allocation (min/avg/max) = 13.32 | 13.83 | 14.98 Mbytes
   Step          Temp          E_pair         E_mol          TotEng         Press     
     90000   276.8108       363.61253      18577.309      19336.979     -306.08105    
    100000   286.1398       363.30992      18590.112      19362.828     -370.30269    
    110000   301.39931      382.90021      18549.35       19363.489      141.20271    
    120000   293.17398      380.45297      18531.435      19331.358      213.81934    
    130000   294.00747      370.8132       18581.678      19373.154     -99.14187     
    140000   305.80262      363.00871      18593.622      19394.17      -361.78811    
Loop time of 14.73 on 48 procs for 50000 steps with 481 atoms

Performance: 14.664 ns/day, 1.637 hours/ns, 3394.443 timesteps/s, 1.633 Matom-step/s
100.0% CPU use with 48 MPI tasks x 1 OpenMP threads

MPI task timing breakdown:
Section |  min time  |  avg time  |  max time  |%varavg| %total
---------------------------------------------------------------
Pair    | 0.015519   | 0.72284    | 3.6925     | 120.5 |  4.91
Bond    | 0.0051266  | 0.91165    | 3.708      | 124.6 |  6.19
Neigh   | 0.025622   | 0.028524   | 0.031102   |   0.9 |  0.19
Comm    | 6.2215     | 10.746     | 13.253     |  72.3 | 72.95
Output  | 0.005502   | 0.011159   | 0.016738   |   3.4 |  0.08
Modify  | 0.60001    | 1.7332     | 6.9044     | 153.0 | 11.77
Other   |            | 0.577      |            |       |  3.92

Nlocal:        10.0208 ave          42 max           0 min
Histogram: 22 6 5 7 0 1 0 2 4 1
Nghost:         1931.1 ave        2412 max        1337 min
Histogram: 8 0 0 0 24 0 0 0 0 16
Neighs:              0 ave           0 max           0 min
Histogram: 48 0 0 0 0 0 0 0 0 0

Total # of neighbors = 0
Ave neighs/atom = 0
Ave special neighs/atom = 15.567568
Neighbor list builds = 79
Dangerous builds = 0
unfix           myat1
next            cpt
jump            SELF loop
variable        zdes equal  -15+0.60*(${cpt}-1)
variable        zdes equal  -15+0.60*(3-1)
variable        zave equal xcm(H2,z)
fix             mytth2 H2 spring tether ${k1} 2.5 2.5 ${zdes} 0
fix             mytth2 H2 spring tether 4 2.5 2.5 ${zdes} 0
fix             mytth2 H2 spring tether 4 2.5 2.5 -13.8 0
run             10000
Generated 0 of 1 mixed pair_coeff terms from geometric mixing rule
Per MPI rank memory allocation (min/avg/max) = 13.32 | 13.84 | 14.98 Mbytes
   Step          Temp          E_pair         E_mol          TotEng         Press     
    140000   305.80262      363.00871      18593.622      19394.17      -361.78811    
    150000   285.83722      375.22315      18564.387      19348.583      34.120046    
Loop time of 2.97478 on 48 procs for 10000 steps with 481 atoms

Performance: 14.522 ns/day, 1.653 hours/ns, 3361.592 timesteps/s, 1.617 Matom-step/s
100.0% CPU use with 48 MPI tasks x 1 OpenMP threads

MPI task timing breakdown:
Section |  min time  |  avg time  |  max time  |%varavg| %total
---------------------------------------------------------------
Pair    | 0.0030542  | 0.1449     | 0.77323    |  54.6 |  4.87
Bond    | 0.0010199  | 0.18239    | 0.7369     |  55.7 |  6.13
Neigh   | 0.0034143  | 0.0038655  | 0.0042697  |   0.4 |  0.13
Comm    | 1.2139     | 2.1731     | 2.6745     |  32.6 | 73.05
Output  | 0.0011133  | 0.0021877  | 0.0032528  |   1.4 |  0.07
Modify  | 0.12129    | 0.35242    | 1.4022     |  69.2 | 11.85
Other   |            | 0.1159     |            |       |  3.90

Nlocal:        10.0208 ave          43 max           0 min
Histogram: 20 10 3 7 0 2 2 0 2 2
Nghost:        1933.35 ave        2416 max        1330 min
Histogram: 8 0 0 0 24 0 0 0 0 16
Neighs:              0 ave           0 max           0 min
Histogram: 48 0 0 0 0 0 0 0 0 0

Total # of neighbors = 0
Ave neighs/atom = 0
Ave special neighs/atom = 15.567568
Neighbor list builds = 11
Dangerous builds = 0
fix             myat1 all ave/time 1000 10 10000 v_zave v_zdes file simulation_data/abpot/${cpt}.dat
fix             myat1 all ave/time 1000 10 10000 v_zave v_zdes file simulation_data/abpot/3.dat
run             50000
Generated 0 of 1 mixed pair_coeff terms from geometric mixing rule
Per MPI rank memory allocation (min/avg/max) = 13.32 | 13.84 | 14.98 Mbytes
   Step          Temp          E_pair         E_mol          TotEng         Press     
    150000   285.83722      375.22315      18564.387      19348.583      34.120046    
    160000   304.99428      372.99721      18559.242      19368.621      8.222432     
    170000   312.08306      360.69187      18584.462      19391.678     -465.75661    
    180000   288.21934      370.67399      18555.734      19338.789     -122.60757    
    190000   285.91159      380.29947      18540.559      19329.937      115.87926    
    200000   290.99015      368.89922      18533.298      19318.543     -25.20688     
Loop time of 15.1092 on 48 procs for 50000 steps with 481 atoms

Performance: 14.296 ns/day, 1.679 hours/ns, 3309.247 timesteps/s, 1.592 Matom-step/s
100.0% CPU use with 48 MPI tasks x 1 OpenMP threads

MPI task timing breakdown:
Section |  min time  |  avg time  |  max time  |%varavg| %total
---------------------------------------------------------------
Pair    | 0.015318   | 0.72334    | 3.8173     | 121.2 |  4.79
Bond    | 0.0051087  | 0.91089    | 3.8919     | 124.7 |  6.03
Neigh   | 0.030016   | 0.033259   | 0.036227   |   0.9 |  0.22
Comm    | 6.3624     | 11.043     | 13.491     |  73.6 | 73.09
Output  | 0.0055024  | 0.010868   | 0.016105   |   3.2 |  0.07
Modify  | 0.6001     | 1.8105     | 7.3057     | 159.9 | 11.98
Other   |            | 0.5776     |            |       |  3.82

Nlocal:        10.0208 ave          39 max           0 min
Histogram: 19 4 9 7 1 0 2 0 3 3
Nghost:        1926.73 ave        2400 max        1338 min
Histogram: 8 0 0 0 24 0 0 0 0 16
Neighs:              0 ave           0 max           0 min
Histogram: 48 0 0 0 0 0 0 0 0 0

Total # of neighbors = 0
Ave neighs/atom = 0
Ave special neighs/atom = 15.567568
Neighbor list builds = 92
Dangerous builds = 0
unfix           myat1
next            cpt
jump            SELF loop
variable        zdes equal  -15+0.60*(${cpt}-1)
variable        zdes equal  -15+0.60*(4-1)
variable        zave equal xcm(H2,z)
fix             mytth2 H2 spring tether ${k1} 2.5 2.5 ${zdes} 0
fix             mytth2 H2 spring tether 4 2.5 2.5 ${zdes} 0
fix             mytth2 H2 spring tether 4 2.5 2.5 -13.2 0
run             10000
Generated 0 of 1 mixed pair_coeff terms from geometric mixing rule
Per MPI rank memory allocation (min/avg/max) = 13.32 | 13.85 | 14.98 Mbytes
   Step          Temp          E_pair         E_mol          TotEng         Press     
    200000   290.99015      368.89922      18533.298      19318.543     -25.20688     
    210000   304.45645      364.89014      18560.957      19361.46      -160.65966    
Loop time of 3.02256 on 48 procs for 10000 steps with 481 atoms

Performance: 14.293 ns/day, 1.679 hours/ns, 3308.451 timesteps/s, 1.591 Matom-step/s
100.0% CPU use with 48 MPI tasks x 1 OpenMP threads

MPI task timing breakdown:
Section |  min time  |  avg time  |  max time  |%varavg| %total
---------------------------------------------------------------
Pair    | 0.0032222  | 0.14472    | 0.82041    |  54.7 |  4.79
Bond    | 0.001031   | 0.18215    | 0.79765    |  55.9 |  6.03
Neigh   | 0.0060745  | 0.0067431  | 0.0073383  |   0.4 |  0.22
Comm    | 1.169      | 2.2083     | 2.6978     |  32.6 | 73.06
Output  | 0.0010963  | 0.0021728  | 0.0033253  |   1.5 |  0.07
Modify  | 0.11804    | 0.36323    | 1.4613     |  70.2 | 12.02
Other   |            | 0.1152     |            |       |  3.81

Nlocal:        10.0208 ave          42 max           0 min
Histogram: 21 5 11 3 0 0 1 3 3 1
Nghost:        1926.23 ave        2412 max        1331 min
Histogram: 8 0 0 0 24 0 0 0 0 16
Neighs:              0 ave           0 max           0 min
Histogram: 48 0 0 0 0 0 0 0 0 0

Total # of neighbors = 0
Ave neighs/atom = 0
Ave special neighs/atom = 15.567568
Neighbor list builds = 18
Dangerous builds = 0
fix             myat1 all ave/time 1000 10 10000 v_zave v_zdes file simulation_data/abpot/${cpt}.dat
fix             myat1 all ave/time 1000 10 10000 v_zave v_zdes file simulation_data/abpot/4.dat
run             50000
Generated 0 of 1 mixed pair_coeff terms from geometric mixing rule
Per MPI rank memory allocation (min/avg/max) = 13.32 | 13.85 | 14.98 Mbytes
   Step          Temp          E_pair         E_mol          TotEng         Press     
    210000   304.45645      364.89014      18560.957      19361.46      -160.65966    
    220000   304.02771      370.9851       18558.521      19364.506     -100.78799    
    230000   302.50856      376.12112      18533.123      19342.07      -176.22237    
    240000   288.62559      372.29724      18549.901      19335.16      -111.40884    
    250000   307.21162      372.01378      18543.366      19354.934     -26.848372    
    260000   300.91405      376.64409      18554.566      19361.754      131.04211    
Loop time of 15.1116 on 48 procs for 50000 steps with 481 atoms

Performance: 14.294 ns/day, 1.679 hours/ns, 3308.709 timesteps/s, 1.591 Matom-step/s
100.0% CPU use with 48 MPI tasks x 1 OpenMP threads

MPI task timing breakdown:
Section |  min time  |  avg time  |  max time  |%varavg| %total
---------------------------------------------------------------
Pair    | 0.015358   | 0.72585    | 3.9157     | 122.3 |  4.80
Bond    | 0.0051121  | 0.91258    | 3.8095     | 125.0 |  6.04
Neigh   | 0.032961   | 0.036654   | 0.040072   |   1.0 |  0.24
Comm    | 6.2347     | 11.064     | 13.561     |  73.4 | 73.22
Output  | 0.0056149  | 0.010943   | 0.016124   |   3.2 |  0.07
Modify  | 0.59835    | 1.7833     | 7.1625     | 158.7 | 11.80
Other   |            | 0.5781     |            |       |  3.83

Nlocal:        10.0208 ave          44 max           0 min
Histogram: 22 6 7 4 1 1 3 1 2 1
Nghost:        1926.85 ave        2401 max        1329 min
Histogram: 8 0 0 0 24 0 0 0 0 16
Neighs:              0 ave           0 max           0 min
Histogram: 48 0 0 0 0 0 0 0 0 0

Total # of neighbors = 0
Ave neighs/atom = 0
Ave special neighs/atom = 15.567568
Neighbor list builds = 101
Dangerous builds = 0
unfix           myat1
next            cpt
jump            SELF loop
variable        zdes equal  -15+0.60*(${cpt}-1)
variable        zdes equal  -15+0.60*(5-1)
variable        zave equal xcm(H2,z)
fix             mytth2 H2 spring tether ${k1} 2.5 2.5 ${zdes} 0
fix             mytth2 H2 spring tether 4 2.5 2.5 ${zdes} 0
fix             mytth2 H2 spring tether 4 2.5 2.5 -12.6 0
run             10000
Generated 0 of 1 mixed pair_coeff terms from geometric mixing rule
Per MPI rank memory allocation (min/avg/max) = 13.32 | 13.85 | 14.98 Mbytes
   Step          Temp          E_pair         E_mol          TotEng         Press     
    260000   300.91405      376.64409      18554.566      19361.754      131.04211    
    270000   291.89574      367.34951      18568.163      19353.154     -268.03592    
Loop time of 3.02901 on 48 procs for 10000 steps with 481 atoms

Performance: 14.262 ns/day, 1.683 hours/ns, 3301.409 timesteps/s, 1.588 Matom-step/s
100.0% CPU use with 48 MPI tasks x 1 OpenMP threads

MPI task timing breakdown:
Section |  min time  |  avg time  |  max time  |%varavg| %total
---------------------------------------------------------------
Pair    | 0.0030681  | 0.14531    | 0.75611    |  54.3 |  4.80
Bond    | 0.0010214  | 0.18285    | 0.8144     |  56.1 |  6.04
Neigh   | 0.0046029  | 0.0051082  | 0.0055875  |   0.4 |  0.17
Comm    | 1.3058     | 2.2166     | 2.7217     |  32.8 | 73.18
Output  | 0.0011192  | 0.0021759  | 0.0032129  |   1.4 |  0.07
Modify  | 0.11898    | 0.36095    | 1.4536     |  71.9 | 11.92
Other   |            | 0.116      |            |       |  3.83

Nlocal:        10.0208 ave          49 max           0 min
Histogram: 21 8 9 2 1 1 4 1 0 1
Nghost:        1925.98 ave        2401 max        1324 min
Histogram: 8 0 0 0 24 0 0 0 0 16
Neighs:              0 ave           0 max           0 min
Histogram: 48 0 0 0 0 0 0 0 0 0

Total # of neighbors = 0
Ave neighs/atom = 0
Ave special neighs/atom = 15.567568
Neighbor list builds = 14
Dangerous builds = 0
fix             myat1 all ave/time 1000 10 10000 v_zave v_zdes file simulation_data/abpot/${cpt}.dat
fix             myat1 all ave/time 1000 10 10000 v_zave v_zdes file simulation_data/abpot/5.dat
run             50000
Generated 0 of 1 mixed pair_coeff terms from geometric mixing rule
Per MPI rank memory allocation (min/avg/max) = 13.32 | 13.85 | 14.98 Mbytes
   Step          Temp          E_pair         E_mol          TotEng         Press     
    270000   291.89574      367.34951      18568.163      19353.154     -268.03592    
    280000   294.67827      377.01972      18534.545      19333.187      72.827387    
    290000   308.95845      378.25249      18542.968      19363.275     -36.013177    
    300000   315.18438      379.63133      18551.275      19381.869      42.611548    
    310000   288.8871       371.17949      18537.153      19321.669      22.402257    
    320000   306.3645       374.7126       18515.411      19328.467      81.105575    
Loop time of 15.6033 on 48 procs for 50000 steps with 481 atoms

Performance: 13.843 ns/day, 1.734 hours/ns, 3204.445 timesteps/s, 1.541 Matom-step/s
100.0% CPU use with 48 MPI tasks x 1 OpenMP threads

MPI task timing breakdown:
Section |  min time  |  avg time  |  max time  |%varavg| %total
---------------------------------------------------------------
Pair    | 0.015263   | 0.72511    | 3.9912     | 122.9 |  4.65
Bond    | 0.0050964  | 0.91133    | 3.5963     | 124.7 |  5.84
Neigh   | 0.027765   | 0.030888   | 0.033661   |   0.9 |  0.20
Comm    | 6.6752     | 11.49      | 14.033     |  75.5 | 73.64
Output  | 0.0055751  | 0.010861   | 0.016083   |   3.2 |  0.07
Modify  | 0.59439    | 1.8568     | 7.7317     | 169.4 | 11.90
Other   |            | 0.578      |            |       |  3.70

Nlocal:        10.0208 ave          39 max           0 min
Histogram: 21 5 7 6 1 0 0 3 4 1
Nghost:        1926.35 ave        2401 max        1334 min
Histogram: 8 0 0 0 24 0 0 0 0 16
Neighs:              0 ave           0 max           0 min
Histogram: 48 0 0 0 0 0 0 0 0 0

Total # of neighbors = 0
Ave neighs/atom = 0
Ave special neighs/atom = 15.567568
Neighbor list builds = 83
Dangerous builds = 0
unfix           myat1
next            cpt
jump            SELF loop
variable        zdes equal  -15+0.60*(${cpt}-1)
variable        zdes equal  -15+0.60*(6-1)
variable        zave equal xcm(H2,z)
fix             mytth2 H2 spring tether ${k1} 2.5 2.5 ${zdes} 0
fix             mytth2 H2 spring tether 4 2.5 2.5 ${zdes} 0
fix             mytth2 H2 spring tether 4 2.5 2.5 -12 0
run             10000
Generated 0 of 1 mixed pair_coeff terms from geometric mixing rule
Per MPI rank memory allocation (min/avg/max) = 13.32 | 13.85 | 14.98 Mbytes
   Step          Temp          E_pair         E_mol          TotEng         Press     
    320000   306.3645       374.7126       18515.411      19328.467      81.105575    
    330000   315.93456      382.76279      18548.658      19383.457      306.64342    
Loop time of 3.11744 on 48 procs for 10000 steps with 481 atoms

Performance: 13.858 ns/day, 1.732 hours/ns, 3207.757 timesteps/s, 1.543 Matom-step/s
100.0% CPU use with 48 MPI tasks x 1 OpenMP threads

MPI task timing breakdown:
Section |  min time  |  avg time  |  max time  |%varavg| %total
---------------------------------------------------------------
Pair    | 0.0030379  | 0.14497    | 0.77194    |  55.2 |  4.65
Bond    | 0.0010191  | 0.18211    | 0.78876    |  56.1 |  5.84
Neigh   | 0.0087077  | 0.0097227  | 0.01057    |   0.5 |  0.31
Comm    | 1.2985     | 2.2871     | 2.8133     |  34.2 | 73.36
Output  | 0.0011535  | 0.0022125  | 0.0034423  |   1.4 |  0.07
Modify  | 0.12055    | 0.37474    | 1.5583     |  76.1 | 12.02
Other   |            | 0.1166     |            |       |  3.74

Nlocal:        10.0208 ave          38 max           0 min
Histogram: 20 5 8 6 1 0 0 2 2 4
Nghost:        1932.75 ave        2423 max        1337 min
Histogram: 8 0 0 0 24 0 0 0 0 16
Neighs:              0 ave           0 max           0 min
Histogram: 48 0 0 0 0 0 0 0 0 0

Total # of neighbors = 0
Ave neighs/atom = 0
Ave special neighs/atom = 15.567568
Neighbor list builds = 26
Dangerous builds = 0
fix             myat1 all ave/time 1000 10 10000 v_zave v_zdes file simulation_data/abpot/${cpt}.dat
fix             myat1 all ave/time 1000 10 10000 v_zave v_zdes file simulation_data/abpot/6.dat
run             50000
Generated 0 of 1 mixed pair_coeff terms from geometric mixing rule
Per MPI rank memory allocation (min/avg/max) = 13.32 | 13.85 | 14.98 Mbytes
   Step          Temp          E_pair         E_mol          TotEng         Press     
    330000   315.93456      382.76279      18548.658      19383.457      306.64342    
    340000   329.55102      365.35404      18540.85       19377.722     -263.40777    
    350000   313.80451      380.47755      18537.795      19367.261      381.56901    
    360000   283.81313      371.80383      18538.643      19316.523     -173.5076     
    370000   302.51426      366.34737      18544.962      19344.143     -169.58148    
    380000   294.42059      370.70218      18543.048      19335.004     -61.264197    
Loop time of 15.8641 on 48 procs for 50000 steps with 481 atoms

Performance: 13.616 ns/day, 1.763 hours/ns, 3151.769 timesteps/s, 1.516 Matom-step/s
100.0% CPU use with 48 MPI tasks x 1 OpenMP threads

MPI task timing breakdown:
Section |  min time  |  avg time  |  max time  |%varavg| %total
---------------------------------------------------------------
Pair    | 0.015373   | 0.72559    | 3.8072     | 122.5 |  4.57
Bond    | 0.005095   | 0.9113     | 3.7241     | 125.0 |  5.74
Neigh   | 0.034701   | 0.038701   | 0.042252   |   1.1 |  0.24
Comm    | 7.1156     | 11.662     | 14.127     |  76.6 | 73.51
Output  | 0.0056142  | 0.010877   | 0.016325   |   3.2 |  0.07
Modify  | 0.59057    | 1.9377     | 8.0295     | 173.9 | 12.21
Other   |            | 0.5776     |            |       |  3.64

Nlocal:        10.0208 ave          42 max           0 min
Histogram: 20 9 5 5 1 1 3 0 1 3
Nghost:        1925.48 ave        2404 max        1333 min
Histogram: 8 0 0 0 24 0 0 0 0 16
Neighs:              0 ave           0 max           0 min
Histogram: 48 0 0 0 0 0 0 0 0 0

Total # of neighbors = 0
Ave neighs/atom = 0
Ave special neighs/atom = 15.567568
Neighbor list builds = 103
Dangerous builds = 0
unfix           myat1
next            cpt
jump            SELF loop
variable        zdes equal  -15+0.60*(${cpt}-1)
variable        zdes equal  -15+0.60*(7-1)
variable        zave equal xcm(H2,z)
fix             mytth2 H2 spring tether ${k1} 2.5 2.5 ${zdes} 0
fix             mytth2 H2 spring tether 4 2.5 2.5 ${zdes} 0
fix             mytth2 H2 spring tether 4 2.5 2.5 -11.4 0
run             10000
Generated 0 of 1 mixed pair_coeff terms from geometric mixing rule
Per MPI rank memory allocation (min/avg/max) = 13.32 | 13.85 | 14.98 Mbytes
   Step          Temp          E_pair         E_mol          TotEng         Press     
    380000   294.42059      370.70218      18543.048      19335.004     -61.264197    
    390000   279.14681      365.54687      18539.357      19304.304     -102.38041    
Loop time of 3.09822 on 48 procs for 10000 steps with 481 atoms

Performance: 13.943 ns/day, 1.721 hours/ns, 3227.658 timesteps/s, 1.553 Matom-step/s
100.0% CPU use with 48 MPI tasks x 1 OpenMP threads

MPI task timing breakdown:
Section |  min time  |  avg time  |  max time  |%varavg| %total
---------------------------------------------------------------
Pair    | 0.0030764  | 0.14515    | 0.74914    |  54.8 |  4.69
Bond    | 0.0010128  | 0.18237    | 0.80165    |  56.3 |  5.89
Neigh   | 0.006437   | 0.0072608  | 0.0079663  |   0.5 |  0.23
Comm    | 1.3317     | 2.2701     | 2.7749     |  33.8 | 73.27
Output  | 0.0011276  | 0.0021528  | 0.0031755  |   1.4 |  0.07
Modify  | 0.11866    | 0.3755     | 1.5363     |  74.8 | 12.12
Other   |            | 0.1157     |            |       |  3.73

Nlocal:        10.0208 ave          39 max           0 min
Histogram: 21 3 9 7 0 0 1 1 4 2
Nghost:        1930.23 ave        2409 max        1338 min
Histogram: 8 0 0 0 24 0 0 0 0 16
Neighs:              0 ave           0 max           0 min
Histogram: 48 0 0 0 0 0 0 0 0 0

Total # of neighbors = 0
Ave neighs/atom = 0
Ave special neighs/atom = 15.567568
Neighbor list builds = 20
Dangerous builds = 0
fix             myat1 all ave/time 1000 10 10000 v_zave v_zdes file simulation_data/abpot/${cpt}.dat
fix             myat1 all ave/time 1000 10 10000 v_zave v_zdes file simulation_data/abpot/7.dat
run             50000
Generated 0 of 1 mixed pair_coeff terms from geometric mixing rule
Per MPI rank memory allocation (min/avg/max) = 13.32 | 13.85 | 14.98 Mbytes
   Step          Temp          E_pair         E_mol          TotEng         Press     
    390000   279.14681      365.54687      18539.357      19304.304     -102.38041    
    400000   281.74755      373.8384       18529.829      19306.789      17.378257    
    410000   304.19199      367.46329      18530.801      19333.499     -249.70054    
    420000   303.22441      380.60382      18530.189      19344.643      246.23931    
    430000   306.34574      376.1472       18538.107      19352.571     -0.3413902    
    440000   297.08978      364.4264       18553.883      19343.383     -229.73402    
Loop time of 15.632 on 48 procs for 50000 steps with 481 atoms

Performance: 13.818 ns/day, 1.737 hours/ns, 3198.568 timesteps/s, 1.539 Matom-step/s
100.0% CPU use with 48 MPI tasks x 1 OpenMP threads

MPI task timing breakdown:
Section |  min time  |  avg time  |  max time  |%varavg| %total
---------------------------------------------------------------
Pair    | 0.01526    | 0.7261     | 3.9834     | 123.2 |  4.64
Bond    | 0.0050802  | 0.91068    | 3.8008     | 125.2 |  5.83
Neigh   | 0.022067   | 0.024668   | 0.027012   |   0.8 |  0.16
Comm    | 6.6376     | 11.482     | 13.931     |  76.1 | 73.46
Output  | 0.005674   | 0.010849   | 0.016156   |   3.1 |  0.07
Modify  | 0.59854    | 1.899      | 7.8558     | 169.8 | 12.15
Other   |            | 0.5782     |            |       |  3.70

Nlocal:        10.0208 ave          43 max           0 min
Histogram: 22 3 13 2 0 0 3 1 3 1
Nghost:        1924.12 ave        2400 max        1330 min
Histogram: 8 0 0 0 24 0 0 0 0 16
Neighs:              0 ave           0 max           0 min
Histogram: 48 0 0 0 0 0 0 0 0 0

Total # of neighbors = 0
Ave neighs/atom = 0
Ave special neighs/atom = 15.567568
Neighbor list builds = 66
Dangerous builds = 0
unfix           myat1
next            cpt
jump            SELF loop
variable        zdes equal  -15+0.60*(${cpt}-1)
variable        zdes equal  -15+0.60*(8-1)
variable        zave equal xcm(H2,z)
fix             mytth2 H2 spring tether ${k1} 2.5 2.5 ${zdes} 0
fix             mytth2 H2 spring tether 4 2.5 2.5 ${zdes} 0
fix             mytth2 H2 spring tether 4 2.5 2.5 -10.8 0
run             10000
Generated 0 of 1 mixed pair_coeff terms from geometric mixing rule
Per MPI rank memory allocation (min/avg/max) = 13.32 | 13.85 | 14.98 Mbytes
   Step          Temp          E_pair         E_mol          TotEng         Press     
    440000   297.08978      364.4264       18553.883      19343.383     -229.73402    
    450000   295.08879      383.56247      18526.828      19332.6        254.86276    
Loop time of 3.00503 on 48 procs for 10000 steps with 481 atoms

Performance: 14.376 ns/day, 1.669 hours/ns, 3327.751 timesteps/s, 1.601 Matom-step/s
100.0% CPU use with 48 MPI tasks x 1 OpenMP threads

MPI task timing breakdown:
Section |  min time  |  avg time  |  max time  |%varavg| %total
---------------------------------------------------------------
Pair    | 0.003032   | 0.14503    | 0.82182    |  55.2 |  4.83
Bond    | 0.0010134  | 0.18164    | 0.80363    |  55.9 |  6.04
Neigh   | 0.0061736  | 0.0068933  | 0.0075381  |   0.4 |  0.23
Comm    | 1.1859     | 2.2003     | 2.7082     |  32.9 | 73.22
Output  | 0.0011132  | 0.0021457  | 0.0031751  |   1.4 |  0.07
Modify  | 0.11939    | 0.35362    | 1.4245     |  70.8 | 11.77
Other   |            | 0.1154     |            |       |  3.84

Nlocal:        10.0208 ave          46 max           0 min
Histogram: 21 7 10 2 1 0 3 2 1 1
Nghost:        1933.48 ave        2417 max        1327 min
Histogram: 8 0 0 0 24 0 0 0 0 16
Neighs:              0 ave           0 max           0 min
Histogram: 48 0 0 0 0 0 0 0 0 0

Total # of neighbors = 0
Ave neighs/atom = 0
Ave special neighs/atom = 15.567568
Neighbor list builds = 19
Dangerous builds = 0
fix             myat1 all ave/time 1000 10 10000 v_zave v_zdes file simulation_data/abpot/${cpt}.dat
fix             myat1 all ave/time 1000 10 10000 v_zave v_zdes file simulation_data/abpot/8.dat
run             50000
Generated 0 of 1 mixed pair_coeff terms from geometric mixing rule
Per MPI rank memory allocation (min/avg/max) = 13.32 | 13.85 | 14.98 Mbytes
   Step          Temp          E_pair         E_mol          TotEng         Press     
    450000   295.08879      383.56247      18526.828      19332.6        254.86276    
    460000   284.24535      375.6071       18539.852      19322.155      25.920045    
    470000   297.13186      360.79193      18540.347      19326.271     -394.7873     
    480000   310.14624      380.74529      18518.886      19343.385      202.01047    
    490000   317.85632      373.61663      18546.678      19375.08      -101.34092    
    500000   299.224        366.34619      18567.137      19361.609     -248.14266    
Loop time of 15.5497 on 48 procs for 50000 steps with 481 atoms

Performance: 13.891 ns/day, 1.728 hours/ns, 3215.488 timesteps/s, 1.547 Matom-step/s
100.0% CPU use with 48 MPI tasks x 1 OpenMP threads

MPI task timing breakdown:
Section |  min time  |  avg time  |  max time  |%varavg| %total
---------------------------------------------------------------
Pair    | 0.015429   | 0.72622    | 4.1904     | 124.4 |  4.67
Bond    | 0.005068   | 0.90972    | 4.0782     | 126.2 |  5.85
Neigh   | 0.035365   | 0.039289   | 0.042844   |   1.0 |  0.25
Comm    | 6.2632     | 11.412     | 13.842     |  75.6 | 73.39
Output  | 0.0059414  | 0.011221   | 0.016449   |   3.1 |  0.07
Modify  | 0.5993     | 1.8748     | 7.7055     | 167.5 | 12.06
Other   |            | 0.5768     |            |       |  3.71

Nlocal:        10.0208 ave          42 max           0 min
Histogram: 21 8 4 6 1 1 1 3 2 1
Nghost:        1923.62 ave        2399 max        1336 min
Histogram: 8 0 0 0 24 0 0 0 0 16
Neighs:              0 ave           0 max           0 min
Histogram: 48 0 0 0 0 0 0 0 0 0

Total # of neighbors = 0
Ave neighs/atom = 0
Ave special neighs/atom = 15.567568
Neighbor list builds = 104
Dangerous builds = 0
unfix           myat1
next            cpt
jump            SELF loop
variable        zdes equal  -15+0.60*(${cpt}-1)
variable        zdes equal  -15+0.60*(9-1)
variable        zave equal xcm(H2,z)
fix             mytth2 H2 spring tether ${k1} 2.5 2.5 ${zdes} 0
fix             mytth2 H2 spring tether 4 2.5 2.5 ${zdes} 0
fix             mytth2 H2 spring tether 4 2.5 2.5 -10.2 0
run             10000
Generated 0 of 1 mixed pair_coeff terms from geometric mixing rule
Per MPI rank memory allocation (min/avg/max) = 13.32 | 13.85 | 14.98 Mbytes
   Step          Temp          E_pair         E_mol          TotEng         Press     
    500000   299.224        366.34619      18567.137      19361.609     -248.14266    
    510000   302.0242       379.60698      18519.033      19330.773      142.87473    
Loop time of 3.10222 on 48 procs for 10000 steps with 481 atoms

Performance: 13.926 ns/day, 1.723 hours/ns, 3223.500 timesteps/s, 1.551 Matom-step/s
100.0% CPU use with 48 MPI tasks x 1 OpenMP threads

MPI task timing breakdown:
Section |  min time  |  avg time  |  max time  |%varavg| %total
---------------------------------------------------------------
Pair    | 0.0030369  | 0.14507    | 0.81084    |  55.5 |  4.68
Bond    | 0.0010039  | 0.18151    | 0.84405    |  56.7 |  5.85
Neigh   | 0.0083042  | 0.0091692  | 0.0099497  |   0.5 |  0.30
Comm    | 1.2735     | 2.2769     | 2.7808     |  33.8 | 73.40
Output  | 0.0012053  | 0.0022451  | 0.0032783  |   1.4 |  0.07
Modify  | 0.12021    | 0.37207    | 1.5412     |  74.3 | 11.99
Other   |            | 0.1152     |            |       |  3.71

Nlocal:        10.0208 ave          39 max           0 min
Histogram: 19 7 7 5 2 0 1 0 6 1
Nghost:        1933.98 ave        2422 max        1339 min
Histogram: 8 0 0 0 24 0 0 0 0 16
Neighs:              0 ave           0 max           0 min
Histogram: 48 0 0 0 0 0 0 0 0 0

Total # of neighbors = 0
Ave neighs/atom = 0
Ave special neighs/atom = 15.567568
Neighbor list builds = 24
Dangerous builds = 0
fix             myat1 all ave/time 1000 10 10000 v_zave v_zdes file simulation_data/abpot/${cpt}.dat
fix             myat1 all ave/time 1000 10 10000 v_zave v_zdes file simulation_data/abpot/9.dat
run             50000
Generated 0 of 1 mixed pair_coeff terms from geometric mixing rule
Per MPI rank memory allocation (min/avg/max) = 13.32 | 13.85 | 14.98 Mbytes
   Step          Temp          E_pair         E_mol          TotEng         Press     
    510000   302.0242       379.60698      18519.033      19330.773      142.87473    
    520000   275.7232       379.1829       18530.832      19304.517      3.3084373    
    530000   291.85704      365.89868      18511.802      19295.286     -170.31441    
    540000   295.46605      376.71593      18534.556      19334.022      117.10827    
    550000   296.75858      379.63002      18534.61       19338.838      120.73882    
    560000   295.17144      368.81383      18529.5        19320.641     -80.47429     
Loop time of 15.3949 on 48 procs for 50000 steps with 481 atoms

Performance: 14.031 ns/day, 1.711 hours/ns, 3247.833 timesteps/s, 1.562 Matom-step/s
100.0% CPU use with 48 MPI tasks x 1 OpenMP threads

MPI task timing breakdown:
Section |  min time  |  avg time  |  max time  |%varavg| %total
---------------------------------------------------------------
Pair    | 0.015382   | 0.72632    | 4.186      | 124.5 |  4.72
Bond    | 0.0051066  | 0.91025    | 4.0078     | 126.0 |  5.91
Neigh   | 0.037788   | 0.041961   | 0.045784   |   1.0 |  0.27
Comm    | 6.0321     | 11.289     | 13.888     |  75.3 | 73.33
Output  | 0.005746   | 0.011033   | 0.016463   |   3.2 |  0.07
Modify  | 0.60042    | 1.8392     | 7.5166     | 164.4 | 11.95
Other   |            | 0.5769     |            |       |  3.75

Nlocal:        10.0208 ave          42 max           0 min
Histogram: 22 6 5 6 1 2 1 1 1 3
Nghost:         1931.1 ave        2416 max        1331 min
Histogram: 8 0 0 0 24 0 0 0 0 16
Neighs:              0 ave           0 max           0 min
Histogram: 48 0 0 0 0 0 0 0 0 0

Total # of neighbors = 0
Ave neighs/atom = 0
Ave special neighs/atom = 15.567568
Neighbor list builds = 112
Dangerous builds = 0
unfix           myat1
next            cpt
jump            SELF loop
variable        zdes equal  -15+0.60*(${cpt}-1)
variable        zdes equal  -15+0.60*(10-1)
variable        zave equal xcm(H2,z)
fix             mytth2 H2 spring tether ${k1} 2.5 2.5 ${zdes} 0
fix             mytth2 H2 spring tether 4 2.5 2.5 ${zdes} 0
fix             mytth2 H2 spring tether 4 2.5 2.5 -9.6 0
run             10000
Generated 0 of 1 mixed pair_coeff terms from geometric mixing rule
Per MPI rank memory allocation (min/avg/max) = 13.32 | 13.85 | 14.98 Mbytes
   Step          Temp          E_pair         E_mol          TotEng         Press     
    560000   295.17144      368.81383      18529.5        19320.641     -80.47429     
    570000   282.83726      374.75004      18510.925      19290.355      162.84692    
Loop time of 3.06535 on 48 procs for 10000 steps with 481 atoms

Performance: 14.093 ns/day, 1.703 hours/ns, 3262.266 timesteps/s, 1.569 Matom-step/s
100.0% CPU use with 48 MPI tasks x 1 OpenMP threads

MPI task timing breakdown:
Section |  min time  |  avg time  |  max time  |%varavg| %total
---------------------------------------------------------------
Pair    | 0.0030467  | 0.14542    | 0.84026    |  55.9 |  4.74
Bond    | 0.0010138  | 0.1821     | 0.80113    |  56.4 |  5.94
Neigh   | 0.0076422  | 0.0085024  | 0.0092625  |   0.5 |  0.28
Comm    | 1.1669     | 2.2456     | 2.7704     |  33.2 | 73.26
Output  | 0.0011185  | 0.0021558  | 0.0032942  |   1.4 |  0.07
Modify  | 0.11875    | 0.36616    | 1.4658     |  71.9 | 11.94
Other   |            | 0.1154     |            |       |  3.76

Nlocal:        10.0208 ave          42 max           0 min
Histogram: 23 3 8 5 1 0 2 2 2 2
Nghost:        1934.23 ave        2414 max        1331 min
Histogram: 8 0 0 0 24 0 0 0 0 16
Neighs:              0 ave           0 max           0 min
Histogram: 48 0 0 0 0 0 0 0 0 0

Total # of neighbors = 0
Ave neighs/atom = 0
Ave special neighs/atom = 15.567568
Neighbor list builds = 23
Dangerous builds = 0
fix             myat1 all ave/time 1000 10 10000 v_zave v_zdes file simulation_data/abpot/${cpt}.dat
fix             myat1 all ave/time 1000 10 10000 v_zave v_zdes file simulation_data/abpot/10.dat
run             50000
Generated 0 of 1 mixed pair_coeff terms from geometric mixing rule
Per MPI rank memory allocation (min/avg/max) = 13.32 | 13.85 | 14.98 Mbytes
   Step          Temp          E_pair         E_mol          TotEng         Press     
    570000   282.83726      374.75004      18510.925      19290.355      162.84692    
    580000   293.19916      383.89315      18518.548      19321.948      48.586598    
    590000   302.93325      359.50991      18537.147      19330.09      -469.77454    
    600000   302.81713      374.46726      18558.357      19366.091     -142.54706    
    610000   330.28806      382.63403      18522.658      19377.865      112.9688     
    620000   292.27733      374.47869      18540.339      19333.005     -109.09885    
Loop time of 15.4 on 48 procs for 50000 steps with 481 atoms

Performance: 14.026 ns/day, 1.711 hours/ns, 3246.759 timesteps/s, 1.562 Matom-step/s
100.0% CPU use with 48 MPI tasks x 1 OpenMP threads

MPI task timing breakdown:
Section |  min time  |  avg time  |  max time  |%varavg| %total
---------------------------------------------------------------
Pair    | 0.015361   | 0.729      | 4.1479     | 124.4 |  4.73
Bond    | 0.0051061  | 0.91136    | 4.0449     | 125.9 |  5.92
Neigh   | 0.029717   | 0.033011   | 0.035944   |   0.9 |  0.21
Comm    | 6.0886     | 11.327     | 13.901     |  74.4 | 73.55
Output  | 0.0056845  | 0.010897   | 0.016111   |   3.1 |  0.07
Modify  | 0.59509    | 1.8113     | 7.363      | 162.5 | 11.76
Other   |            | 0.5773     |            |       |  3.75

Nlocal:        10.0208 ave          48 max           0 min
Histogram: 23 4 10 3 1 0 5 1 0 1
Nghost:        1931.23 ave        2416 max        1325 min
Histogram: 8 0 0 0 24 0 0 0 0 16
Neighs:              0 ave           0 max           0 min
Histogram: 48 0 0 0 0 0 0 0 0 0

Total # of neighbors = 0
Ave neighs/atom = 0
Ave special neighs/atom = 15.567568
Neighbor list builds = 89
Dangerous builds = 0
unfix           myat1
next            cpt
jump            SELF loop
variable        zdes equal  -15+0.60*(${cpt}-1)
variable        zdes equal  -15+0.60*(11-1)
variable        zave equal xcm(H2,z)
fix             mytth2 H2 spring tether ${k1} 2.5 2.5 ${zdes} 0
fix             mytth2 H2 spring tether 4 2.5 2.5 ${zdes} 0
fix             mytth2 H2 spring tether 4 2.5 2.5 -9 0
run             10000
Generated 0 of 1 mixed pair_coeff terms from geometric mixing rule
Per MPI rank memory allocation (min/avg/max) = 13.32 | 13.85 | 14.98 Mbytes
   Step          Temp          E_pair         E_mol          TotEng         Press     
    620000   292.27733      374.47869      18540.339      19333.005     -109.09885    
    630000   303.7462       378.91699      18511.796      19325.31       104.55035    
Loop time of 3.11723 on 48 procs for 10000 steps with 481 atoms

Performance: 13.858 ns/day, 1.732 hours/ns, 3207.980 timesteps/s, 1.543 Matom-step/s
100.0% CPU use with 48 MPI tasks x 1 OpenMP threads

MPI task timing breakdown:
Section |  min time  |  avg time  |  max time  |%varavg| %total
---------------------------------------------------------------
Pair    | 0.003072   | 0.14622    | 0.83542    |  56.1 |  4.69
Bond    | 0.0010251  | 0.18278    | 0.85141    |  57.1 |  5.86
Neigh   | 0.0037036  | 0.0041101  | 0.00449    |   0.3 |  0.13
Comm    | 1.25       | 2.2895     | 2.7905     |  33.8 | 73.45
Output  | 0.0011537  | 0.0021941  | 0.0032283  |   1.4 |  0.07
Modify  | 0.11943    | 0.37651    | 1.5164     |  74.2 | 12.08
Other   |            | 0.1159     |            |       |  3.72

Nlocal:        10.0208 ave          39 max           0 min
Histogram: 21 3 11 4 1 0 0 2 4 2
Nghost:         1928.6 ave        2411 max        1334 min
Histogram: 8 0 0 0 24 0 0 0 0 16
Neighs:              0 ave           0 max           0 min
Histogram: 48 0 0 0 0 0 0 0 0 0

Total # of neighbors = 0
Ave neighs/atom = 0
Ave special neighs/atom = 15.567568
Neighbor list builds = 11
Dangerous builds = 0
fix             myat1 all ave/time 1000 10 10000 v_zave v_zdes file simulation_data/abpot/${cpt}.dat
fix             myat1 all ave/time 1000 10 10000 v_zave v_zdes file simulation_data/abpot/11.dat
run             50000
Generated 0 of 1 mixed pair_coeff terms from geometric mixing rule
Per MPI rank memory allocation (min/avg/max) = 13.32 | 13.85 | 14.98 Mbytes
   Step          Temp          E_pair         E_mol          TotEng         Press     
    630000   303.7462       378.91699      18511.796      19325.31       104.55035    
    640000   302.76236      381.16413      18499.529      19313.882      83.940792    
    650000   310.6395       365.86193      18534.549      19344.871     -253.6298     
    660000   318.03189      371.82261      18539.482      19366.341     -86.218909    
    670000   293.84168      379.23475      18541.773      19341.433      126.58977    
    680000   310.40262      370.1701       18518.944      19333.234     -148.22537    
Loop time of 16.0626 on 48 procs for 50000 steps with 481 atoms

Performance: 13.447 ns/day, 1.785 hours/ns, 3112.827 timesteps/s, 1.497 Matom-step/s
100.0% CPU use with 48 MPI tasks x 1 OpenMP threads

MPI task timing breakdown:
Section |  min time  |  avg time  |  max time  |%varavg| %total
---------------------------------------------------------------
Pair    | 0.015513   | 0.72786    | 4.0517     | 124.0 |  4.53
Bond    | 0.0051198  | 0.91084    | 4.5313     | 127.8 |  5.67
Neigh   | 0.027812   | 0.030936   | 0.03382    |   0.9 |  0.19
Comm    | 6.3804     | 11.837     | 14.357     |  77.1 | 73.70
Output  | 0.0058388  | 0.011135   | 0.016541   |   3.1 |  0.07
Modify  | 0.59734    | 1.9657     | 8.0362     | 173.7 | 12.24
Other   |            | 0.5787     |            |       |  3.60

Nlocal:        10.0208 ave          52 max           0 min
Histogram: 24 7 6 5 1 1 0 2 1 1
Nghost:         1929.6 ave        2410 max        1321 min
Histogram: 8 0 0 0 24 0 0 0 0 16
Neighs:              0 ave           0 max           0 min
Histogram: 48 0 0 0 0 0 0 0 0 0

Total # of neighbors = 0
Ave neighs/atom = 0
Ave special neighs/atom = 15.567568
Neighbor list builds = 81
Dangerous builds = 0
unfix           myat1
next            cpt
jump            SELF loop
variable        zdes equal  -15+0.60*(${cpt}-1)
variable        zdes equal  -15+0.60*(12-1)
variable        zave equal xcm(H2,z)
fix             mytth2 H2 spring tether ${k1} 2.5 2.5 ${zdes} 0
fix             mytth2 H2 spring tether 4 2.5 2.5 ${zdes} 0
fix             mytth2 H2 spring tether 4 2.5 2.5 -8.4 0
run             10000
Generated 0 of 1 mixed pair_coeff terms from geometric mixing rule
Per MPI rank memory allocation (min/avg/max) = 13.32 | 13.86 | 14.98 Mbytes
   Step          Temp          E_pair         E_mol          TotEng         Press     
    680000   310.40262      370.1701       18518.944      19333.234     -148.22537    
    690000   317.21829      385.3566       18539.074      19378.303     -147.19497    
Loop time of 3.16151 on 48 procs for 10000 steps with 481 atoms

Performance: 13.664 ns/day, 1.756 hours/ns, 3163.047 timesteps/s, 1.521 Matom-step/s
100.0% CPU use with 48 MPI tasks x 1 OpenMP threads

MPI task timing breakdown:
Section |  min time  |  avg time  |  max time  |%varavg| %total
---------------------------------------------------------------
Pair    | 0.0032859  | 0.14669    | 0.81288    |  55.7 |  4.64
Bond    | 0.0010198  | 0.18213    | 0.84531    |  56.5 |  5.76
Neigh   | 0.011421   | 0.012658   | 0.013805   |   0.6 |  0.40
Comm    | 1.3194     | 2.3271     | 2.8592     |  34.1 | 73.61
Output  | 0.0011169  | 0.0021428  | 0.0031757  |   1.4 |  0.07
Modify  | 0.11846    | 0.37538    | 1.5494     |  76.4 | 11.87
Other   |            | 0.1154     |            |       |  3.65

Nlocal:        10.0208 ave          47 max           0 min
Histogram: 23 7 7 1 4 2 0 0 2 2
Nghost:        1925.23 ave        2402 max        1326 min
Histogram: 8 0 0 0 24 0 0 0 0 16
Neighs:              0 ave           0 max           0 min
Histogram: 48 0 0 0 0 0 0 0 0 0

Total # of neighbors = 0
Ave neighs/atom = 0
Ave special neighs/atom = 15.567568
Neighbor list builds = 34
Dangerous builds = 0
fix             myat1 all ave/time 1000 10 10000 v_zave v_zdes file simulation_data/abpot/${cpt}.dat
fix             myat1 all ave/time 1000 10 10000 v_zave v_zdes file simulation_data/abpot/12.dat
run             50000
Generated 0 of 1 mixed pair_coeff terms from geometric mixing rule
Per MPI rank memory allocation (min/avg/max) = 13.32 | 13.86 | 14.98 Mbytes
   Step          Temp          E_pair         E_mol          TotEng         Press     
    690000   317.21829      385.3566       18539.074      19378.303     -147.19497    
    700000   306.28184      384.26304      18545.763      19368.251      33.144344    
    710000   301.41093      395.33912      18544.44       19371.034      59.52048     
    720000   294.25032      359.69934      18511.041      19291.751     -296.7106     
    730000   282.53039      385.03754      18560.848      19350.127     -175.57622    
    740000   302.64877      383.42982      18532.683      19349.14       244.20318    
Loop time of 15.9731 on 48 procs for 50000 steps with 481 atoms

Performance: 13.523 ns/day, 1.775 hours/ns, 3130.259 timesteps/s, 1.506 Matom-step/s
100.0% CPU use with 48 MPI tasks x 1 OpenMP threads

MPI task timing breakdown:
Section |  min time  |  avg time  |  max time  |%varavg| %total
---------------------------------------------------------------
Pair    | 0.015444   | 0.73417    | 4.1511     | 125.9 |  4.60
Bond    | 0.0051181  | 0.91189    | 4.0831     | 127.0 |  5.71
Neigh   | 0.062313   | 0.068964   | 0.075161   |   1.3 |  0.43
Comm    | 6.4056     | 11.77      | 14.446     |  77.2 | 73.68
Output  | 0.0058831  | 0.011187   | 0.016552   |   3.1 |  0.07
Modify  | 0.59881    | 1.9011     | 7.9715     | 173.1 | 11.90
Other   |            | 0.5761     |            |       |  3.61

Nlocal:        10.0208 ave          44 max           0 min
Histogram: 21 5 11 3 0 1 3 2 1 1
Nghost:        1936.48 ave        2419 max        1329 min
Histogram: 8 0 0 0 24 0 0 0 0 16
Neighs:              0 ave           0 max           0 min
Histogram: 48 0 0 0 0 0 0 0 0 0

Total # of neighbors = 0
Ave neighs/atom = 0
Ave special neighs/atom = 15.567568
Neighbor list builds = 178
Dangerous builds = 0
unfix           myat1
next            cpt
jump            SELF loop
variable        zdes equal  -15+0.60*(${cpt}-1)
variable        zdes equal  -15+0.60*(13-1)
variable        zave equal xcm(H2,z)
fix             mytth2 H2 spring tether ${k1} 2.5 2.5 ${zdes} 0
fix             mytth2 H2 spring tether 4 2.5 2.5 ${zdes} 0
fix             mytth2 H2 spring tether 4 2.5 2.5 -7.8 0
run             10000
Generated 0 of 1 mixed pair_coeff terms from geometric mixing rule
Per MPI rank memory allocation (min/avg/max) = 13.32 | 13.86 | 14.98 Mbytes
   Step          Temp          E_pair         E_mol          TotEng         Press     
    740000   302.64877      383.42982      18532.683      19349.14       244.20318    
    750000   315.31473      389.18757      18540.768      19381.105     -56.511535    
Loop time of 3.2008 on 48 procs for 10000 steps with 481 atoms

Performance: 13.497 ns/day, 1.778 hours/ns, 3124.218 timesteps/s, 1.503 Matom-step/s
100.0% CPU use with 48 MPI tasks x 1 OpenMP threads

MPI task timing breakdown:
Section |  min time  |  avg time  |  max time  |%varavg| %total
---------------------------------------------------------------
Pair    | 0.0030646  | 0.14683    | 0.83591    |  56.7 |  4.59
Bond    | 0.0010196  | 0.18203    | 0.79043    |  56.5 |  5.69
Neigh   | 0.016014   | 0.017653   | 0.019186   |   0.6 |  0.55
Comm    | 1.2988     | 2.356      | 2.8991     |  35.0 | 73.61
Output  | 0.0011591  | 0.0022059  | 0.003343   |   1.4 |  0.07
Modify  | 0.11802    | 0.38117    | 1.6335     |  78.9 | 11.91
Other   |            | 0.1149     |            |       |  3.59

Nlocal:        10.0208 ave          43 max           0 min
Histogram: 21 7 7 5 0 1 1 4 0 2
Nghost:        1923.85 ave        2399 max        1330 min
Histogram: 8 0 0 0 24 0 0 0 0 16
Neighs:              0 ave           0 max           0 min
Histogram: 48 0 0 0 0 0 0 0 0 0

Total # of neighbors = 0
Ave neighs/atom = 0
Ave special neighs/atom = 15.567568
Neighbor list builds = 46
Dangerous builds = 0
fix             myat1 all ave/time 1000 10 10000 v_zave v_zdes file simulation_data/abpot/${cpt}.dat
fix             myat1 all ave/time 1000 10 10000 v_zave v_zdes file simulation_data/abpot/13.dat
run             50000
Generated 0 of 1 mixed pair_coeff terms from geometric mixing rule
Per MPI rank memory allocation (min/avg/max) = 13.32 | 13.86 | 14.98 Mbytes
   Step          Temp          E_pair         E_mol          TotEng         Press     
    750000   315.31473      389.18757      18540.768      19381.105     -56.511535    
    760000   315.62616      385.18243      18542.272      19379.049     -148.95906    
    770000   310.02622      395.16647      18512.516      19351.264      103.55243    
    780000   294.07561      389.33891      18521.479      19331.578     -128.25309    
    790000   292.64438      388.12304      18542.381      19349.216     -263.84372    
    800000   313.24871      400.39727      18547.177      19395.767      374.43221    
Loop time of 15.5599 on 48 procs for 50000 steps with 481 atoms

Performance: 13.882 ns/day, 1.729 hours/ns, 3213.379 timesteps/s, 1.546 Matom-step/s
100.0% CPU use with 48 MPI tasks x 1 OpenMP threads

MPI task timing breakdown:
Section |  min time  |  avg time  |  max time  |%varavg| %total
---------------------------------------------------------------
Pair    | 0.015267   | 0.73547    | 4.1388     | 125.6 |  4.73
Bond    | 0.0051125  | 0.91013    | 3.9944     | 125.8 |  5.85
Neigh   | 0.074717   | 0.082696   | 0.090171   |   1.4 |  0.53
Comm    | 6.3338     | 11.405     | 14.101     |  75.6 | 73.29
Output  | 0.005702   | 0.011017   | 0.016231   |   3.2 |  0.07
Modify  | 0.5924     | 1.8428     | 7.6732     | 166.7 | 11.84
Other   |            | 0.5732     |            |       |  3.68

Nlocal:        10.0208 ave          41 max           0 min
Histogram: 22 5 9 3 1 0 3 0 2 3
Nghost:        1935.75 ave        2414 max        1333 min
Histogram: 8 0 0 0 24 0 0 0 0 16
Neighs:              0 ave           0 max           0 min
Histogram: 48 0 0 0 0 0 0 0 0 0

Total # of neighbors = 0
Ave neighs/atom = 0
Ave special neighs/atom = 15.567568
Neighbor list builds = 223
Dangerous builds = 0
unfix           myat1
next            cpt
jump            SELF loop
variable        zdes equal  -15+0.60*(${cpt}-1)
variable        zdes equal  -15+0.60*(14-1)
variable        zave equal xcm(H2,z)
fix             mytth2 H2 spring tether ${k1} 2.5 2.5 ${zdes} 0
fix             mytth2 H2 spring tether 4 2.5 2.5 ${zdes} 0
fix             mytth2 H2 spring tether 4 2.5 2.5 -7.2 0
run             10000
Generated 0 of 1 mixed pair_coeff terms from geometric mixing rule
Per MPI rank memory allocation (min/avg/max) = 13.32 | 13.86 | 14.98 Mbytes
   Step          Temp          E_pair         E_mol          TotEng         Press     
    800000   313.24871      400.39727      18547.177      19395.767      374.43221    
    810000   299.94144      383.49286      18557.012      19369.658     -146.28095    
Loop time of 3.10626 on 48 procs for 10000 steps with 481 atoms

Performance: 13.907 ns/day, 1.726 hours/ns, 3219.310 timesteps/s, 1.548 Matom-step/s
100.0% CPU use with 48 MPI tasks x 1 OpenMP threads

MPI task timing breakdown:
Section |  min time  |  avg time  |  max time  |%varavg| %total
---------------------------------------------------------------
Pair    | 0.0031361  | 0.14706    | 0.85389    |  56.6 |  4.73
Bond    | 0.0010147  | 0.18193    | 0.79553    |  56.6 |  5.86
Neigh   | 0.017975   | 0.019906   | 0.021732   |   0.7 |  0.64
Comm    | 1.1864     | 2.2745     | 2.8148     |  33.9 | 73.22
Output  | 0.0011377  | 0.0021803  | 0.003237   |   1.4 |  0.07
Modify  | 0.1182     | 0.36614    | 1.5117     |  74.3 | 11.79
Other   |            | 0.1145     |            |       |  3.69

Nlocal:        10.0208 ave          40 max           0 min
Histogram: 20 7 4 6 3 0 0 3 3 2
Nghost:        1925.23 ave        2405 max        1333 min
Histogram: 8 0 0 0 24 0 0 0 0 16
Neighs:              0 ave           0 max           0 min
Histogram: 48 0 0 0 0 0 0 0 0 0

Total # of neighbors = 0
Ave neighs/atom = 0
Ave special neighs/atom = 15.567568
Neighbor list builds = 54
Dangerous builds = 0
fix             myat1 all ave/time 1000 10 10000 v_zave v_zdes file simulation_data/abpot/${cpt}.dat
fix             myat1 all ave/time 1000 10 10000 v_zave v_zdes file simulation_data/abpot/14.dat
run             50000
Generated 0 of 1 mixed pair_coeff terms from geometric mixing rule
Per MPI rank memory allocation (min/avg/max) = 13.32 | 13.86 | 14.98 Mbytes
   Step          Temp          E_pair         E_mol          TotEng         Press     
    810000   299.94144      383.49286      18557.012      19369.658     -146.28095    
    820000   297.45283      389.28263      18538.692      19353.566     -18.626331    
    830000   305.01229      394.72392      18522.326      19353.458     -31.898527    
    840000   316.75322      399.67259      18524.855      19377.735      228.79052    
    850000   305.35164      388.69485      18534.42       19360.008      33.693448    
    860000   299.53968      388.07608      18538.204      19354.858     -49.049901    
Loop time of 15.3609 on 48 procs for 50000 steps with 481 atoms

Performance: 14.062 ns/day, 1.707 hours/ns, 3255.013 timesteps/s, 1.566 Matom-step/s
100.0% CPU use with 48 MPI tasks x 1 OpenMP threads

MPI task timing breakdown:
Section |  min time  |  avg time  |  max time  |%varavg| %total
---------------------------------------------------------------
Pair    | 0.01525    | 0.73615    | 4.1605     | 126.2 |  4.79
Bond    | 0.0051514  | 0.91046    | 3.8233     | 125.6 |  5.93
Neigh   | 0.088699   | 0.098407   | 0.10733    |   1.6 |  0.64
Comm    | 6.0589     | 11.22      | 13.903     |  75.2 | 73.05
Output  | 0.0055893  | 0.010912   | 0.016101   |   3.2 |  0.07
Modify  | 0.59116    | 1.8125     | 7.4787     | 163.5 | 11.80
Other   |            | 0.572      |            |       |  3.72

Nlocal:        10.0208 ave          40 max           0 min
Histogram: 18 6 10 5 1 0 2 1 1 4
Nghost:        1929.48 ave        2407 max        1333 min
Histogram: 8 0 0 0 24 0 0 0 0 16
Neighs:              0 ave           0 max           0 min
Histogram: 48 0 0 0 0 0 0 0 0 0

Total # of neighbors = 0
Ave neighs/atom = 0
Ave special neighs/atom = 15.567568
Neighbor list builds = 269
Dangerous builds = 0
unfix           myat1
next            cpt
jump            SELF loop
variable        zdes equal  -15+0.60*(${cpt}-1)
variable        zdes equal  -15+0.60*(15-1)
variable        zave equal xcm(H2,z)
fix             mytth2 H2 spring tether ${k1} 2.5 2.5 ${zdes} 0
fix             mytth2 H2 spring tether 4 2.5 2.5 ${zdes} 0
fix             mytth2 H2 spring tether 4 2.5 2.5 -6.6 0
run             10000
Generated 0 of 1 mixed pair_coeff terms from geometric mixing rule
Per MPI rank memory allocation (min/avg/max) = 13.32 | 13.86 | 14.98 Mbytes
   Step          Temp          E_pair         E_mol          TotEng         Press     
    860000   299.53968      388.07608      18538.204      19354.858     -49.049901    
    870000   279.10328      390.44432      18521.125      19310.907     -38.932285    
Loop time of 3.06234 on 48 procs for 10000 steps with 481 atoms

Performance: 14.107 ns/day, 1.701 hours/ns, 3265.481 timesteps/s, 1.571 Matom-step/s
100.0% CPU use with 48 MPI tasks x 1 OpenMP threads

MPI task timing breakdown:
Section |  min time  |  avg time  |  max time  |%varavg| %total
---------------------------------------------------------------
Pair    | 0.0030468  | 0.1472     | 0.82787    |  56.5 |  4.81
Bond    | 0.0010121  | 0.18198    | 0.76761    |  56.3 |  5.94
Neigh   | 0.016161   | 0.017899   | 0.019525   |   0.7 |  0.58
Comm    | 1.1961     | 2.2331     | 2.7731     |  33.5 | 72.92
Output  | 0.0011099  | 0.0021527  | 0.0031942  |   1.4 |  0.07
Modify  | 0.1172     | 0.36558    | 1.5022     |  72.5 | 11.94
Other   |            | 0.1144     |            |       |  3.74

Nlocal:        10.0208 ave          41 max           0 min
Histogram: 21 7 8 3 1 1 2 0 2 3
Nghost:         1931.5 ave        2409 max        1332 min
Histogram: 8 0 0 0 24 0 0 0 0 16
Neighs:              0 ave           0 max           0 min
Histogram: 48 0 0 0 0 0 0 0 0 0

Total # of neighbors = 0
Ave neighs/atom = 0
Ave special neighs/atom = 15.567568
Neighbor list builds = 49
Dangerous builds = 0
fix             myat1 all ave/time 1000 10 10000 v_zave v_zdes file simulation_data/abpot/${cpt}.dat
fix             myat1 all ave/time 1000 10 10000 v_zave v_zdes file simulation_data/abpot/15.dat
run             50000
Generated 0 of 1 mixed pair_coeff terms from geometric mixing rule
Per MPI rank memory allocation (min/avg/max) = 13.32 | 13.86 | 14.98 Mbytes
   Step          Temp          E_pair         E_mol          TotEng         Press     
    870000   279.10328      390.44432      18521.125      19310.907     -38.932285    
    880000   298.23386      391.58496      18540.709      19359.004     -0.3149478    
    890000   315.13021      388.57505      18531.311      19370.771     -65.218929    
    900000   278.77055      391.91031      18530.994      19321.767      89.79322     
    910000   285.14167      384.7594       18551.032      19343.769     -278.80903    
    920000   308.87385      397.57573      18511.778      19351.287      246.73933    
Loop time of 15.4815 on 48 procs for 50000 steps with 481 atoms

Performance: 13.952 ns/day, 1.720 hours/ns, 3229.658 timesteps/s, 1.553 Matom-step/s
100.0% CPU use with 48 MPI tasks x 1 OpenMP threads

MPI task timing breakdown:
Section |  min time  |  avg time  |  max time  |%varavg| %total
---------------------------------------------------------------
Pair    | 0.015255   | 0.73567    | 4.1769     | 125.7 |  4.75
Bond    | 0.0051004  | 0.9102     | 3.8544     | 125.6 |  5.88
Neigh   | 0.079247   | 0.087939   | 0.095818   |   1.5 |  0.57
Comm    | 6.1649     | 11.315     | 13.98      |  75.4 | 73.09
Output  | 0.0057011  | 0.011028   | 0.016628   |   3.2 |  0.07
Modify  | 0.59929    | 1.8474     | 7.5925     | 164.5 | 11.93
Other   |            | 0.5743     |            |       |  3.71

Nlocal:        10.0208 ave          44 max           0 min
Histogram: 21 6 9 4 0 3 1 0 2 2
Nghost:        1932.48 ave        2417 max        1330 min
Histogram: 8 0 0 0 24 0 0 0 0 16
Neighs:              0 ave           0 max           0 min
Histogram: 48 0 0 0 0 0 0 0 0 0

Total # of neighbors = 0
Ave neighs/atom = 0
Ave special neighs/atom = 15.567568
Neighbor list builds = 239
Dangerous builds = 0
unfix           myat1
next            cpt
jump            SELF loop
variable        zdes equal  -15+0.60*(${cpt}-1)
variable        zdes equal  -15+0.60*(16-1)
variable        zave equal xcm(H2,z)
fix             mytth2 H2 spring tether ${k1} 2.5 2.5 ${zdes} 0
fix             mytth2 H2 spring tether 4 2.5 2.5 ${zdes} 0
fix             mytth2 H2 spring tether 4 2.5 2.5 -6 0
run             10000
Generated 0 of 1 mixed pair_coeff terms from geometric mixing rule
Per MPI rank memory allocation (min/avg/max) = 13.32 | 13.86 | 14.98 Mbytes
   Step          Temp          E_pair         E_mol          TotEng         Press     
    920000   308.87385      397.57573      18511.778      19351.287      246.73933    
    930000   292.3174       398.69124      18502.51       19319.446      133.20452    
Loop time of 3.10068 on 48 procs for 10000 steps with 481 atoms

Performance: 13.932 ns/day, 1.723 hours/ns, 3225.099 timesteps/s, 1.551 Matom-step/s
100.0% CPU use with 48 MPI tasks x 1 OpenMP threads

MPI task timing breakdown:
Section |  min time  |  avg time  |  max time  |%varavg| %total
---------------------------------------------------------------
Pair    | 0.0030797  | 0.14763    | 0.83927    |  56.4 |  4.76
Bond    | 0.0010197  | 0.18243    | 0.84698    |  56.5 |  5.88
Neigh   | 0.018453   | 0.020422   | 0.022169   |   0.7 |  0.66
Comm    | 1.1849     | 2.2675     | 2.7977     |  33.8 | 73.13
Output  | 0.0011166  | 0.0021814  | 0.0032757  |   1.4 |  0.07
Modify  | 0.11936    | 0.36558    | 1.5143     |  73.7 | 11.79
Other   |            | 0.1149     |            |       |  3.71

Nlocal:        10.0208 ave          45 max           0 min
Histogram: 21 6 7 6 1 2 1 0 1 3
Nghost:        1935.73 ave        2421 max        1328 min
Histogram: 8 0 0 0 24 0 0 0 0 16
Neighs:              0 ave           0 max           0 min
Histogram: 48 0 0 0 0 0 0 0 0 0

Total # of neighbors = 0
Ave neighs/atom = 0
Ave special neighs/atom = 15.567568
Neighbor list builds = 54
Dangerous builds = 0
fix             myat1 all ave/time 1000 10 10000 v_zave v_zdes file simulation_data/abpot/${cpt}.dat
fix             myat1 all ave/time 1000 10 10000 v_zave v_zdes file simulation_data/abpot/16.dat
run             50000
Generated 0 of 1 mixed pair_coeff terms from geometric mixing rule
Per MPI rank memory allocation (min/avg/max) = 13.32 | 13.86 | 14.98 Mbytes
   Step          Temp          E_pair         E_mol          TotEng         Press     
    930000   292.3174       398.69124      18502.51       19319.446      133.20452    
    940000   293.06672      383.6384       18503.345      19306.3       -262.68186    
    950000   303.55019      390.5281       18518.412      19343.256     -36.187569    
    960000   303.26438      400.12836      18536.224      19370.259      142.18246    
    970000   295.94164      384.00272      18543.564      19350.997     -206.35677    
    980000   293.89318      382.25369      18544.88       19347.633     -180.55389    
Loop time of 15.4493 on 48 procs for 50000 steps with 481 atoms

Performance: 13.981 ns/day, 1.717 hours/ns, 3236.402 timesteps/s, 1.557 Matom-step/s
100.0% CPU use with 48 MPI tasks x 1 OpenMP threads

MPI task timing breakdown:
Section |  min time  |  avg time  |  max time  |%varavg| %total
---------------------------------------------------------------
Pair    | 0.015271   | 0.73525    | 4.1256     | 125.3 |  4.76
Bond    | 0.0051187  | 0.90888    | 4.0316     | 126.0 |  5.88
Neigh   | 0.095491   | 0.10583    | 0.11526    |   1.6 |  0.68
Comm    | 6.2544     | 11.261     | 13.894     |  74.7 | 72.89
Output  | 0.0056852  | 0.011011   | 0.016521   |   3.2 |  0.07
Modify  | 0.5938     | 1.8551     | 7.5229     | 162.1 | 12.01
Other   |            | 0.5724     |            |       |  3.70

Nlocal:        10.0208 ave          38 max           0 min
Histogram: 20 6 7 5 0 2 0 2 3 3
Nghost:         1927.1 ave        2404 max        1335 min
Histogram: 8 0 0 0 24 0 0 0 0 16
Neighs:              0 ave           0 max           0 min
Histogram: 48 0 0 0 0 0 0 0 0 0

Total # of neighbors = 0
Ave neighs/atom = 0
Ave special neighs/atom = 15.567568
Neighbor list builds = 285
Dangerous builds = 0
unfix           myat1
next            cpt
jump            SELF loop
variable        zdes equal  -15+0.60*(${cpt}-1)
variable        zdes equal  -15+0.60*(17-1)
variable        zave equal xcm(H2,z)
fix             mytth2 H2 spring tether ${k1} 2.5 2.5 ${zdes} 0
fix             mytth2 H2 spring tether 4 2.5 2.5 ${zdes} 0
fix             mytth2 H2 spring tether 4 2.5 2.5 -5.4 0
run             10000
Generated 0 of 1 mixed pair_coeff terms from geometric mixing rule
Per MPI rank memory allocation (min/avg/max) = 13.32 | 13.86 | 14.98 Mbytes
   Step          Temp          E_pair         E_mol          TotEng         Press     
    980000   293.89318      382.25369      18544.88       19347.633     -180.55389    
    990000   290.91679      394.82012      18489.558      19300.618      96.747726    
Loop time of 3.13701 on 48 procs for 10000 steps with 481 atoms

Performance: 13.771 ns/day, 1.743 hours/ns, 3187.747 timesteps/s, 1.533 Matom-step/s
100.0% CPU use with 48 MPI tasks x 1 OpenMP threads

MPI task timing breakdown:
Section |  min time  |  avg time  |  max time  |%varavg| %total
---------------------------------------------------------------
Pair    | 0.003054   | 0.1475     | 0.84076    |  56.2 |  4.70
Bond    | 0.0010359  | 0.18232    | 0.80461    |  56.5 |  5.81
Neigh   | 0.016475   | 0.018299   | 0.01997    |   0.7 |  0.58
Comm    | 1.2568     | 2.2982     | 2.8465     |  34.3 | 73.26
Output  | 0.0011802  | 0.0022299  | 0.0032859  |   1.4 |  0.07
Modify  | 0.11861    | 0.3737     | 1.5484     |  75.9 | 11.91
Other   |            | 0.1147     |            |       |  3.66

Nlocal:        10.0208 ave          39 max           0 min
Histogram: 19 9 4 5 3 0 1 0 6 1
Nghost:        1930.73 ave        2408 max        1338 min
Histogram: 8 0 0 0 24 0 0 0 0 16
Neighs:              0 ave           0 max           0 min
Histogram: 48 0 0 0 0 0 0 0 0 0

Total # of neighbors = 0
Ave neighs/atom = 0
Ave special neighs/atom = 15.567568
Neighbor list builds = 49
Dangerous builds = 0
[...]

MPI task timing breakdown:
Section |  min time  |  avg time  |  max time  |%varavg| %total
---------------------------------------------------------------
Pair    | 0.0030373  | 0.1452     | 0.85292    |  53.7 |  4.58
Bond    | 0.0010194  | 0.18236    | 0.84109    |  56.2 |  5.75
Neigh   | 0.0060316  | 0.0066631  | 0.0072379  |   0.4 |  0.21
Comm    | 1.3044     | 2.3343     | 2.8785     |  34.4 | 73.61
Output  | 0.00119    | 0.0022188  | 0.0032415  |   1.4 |  0.07
Modify  | 0.11978    | 0.38448    | 1.6139     |  78.4 | 12.12
Other   |            | 0.116      |            |       |  3.66

Nlocal:        10.0208 ave          43 max           0 min
Histogram: 22 3 12 3 0 1 2 2 2 1
Nghost:        1927.98 ave        2407 max        1330 min
Histogram: 8 0 0 0 24 0 0 0 0 16
Neighs:              0 ave           0 max           0 min
Histogram: 48 0 0 0 0 0 0 0 0 0

Total # of neighbors = 0
Ave neighs/atom = 0
Ave special neighs/atom = 15.567568
Neighbor list builds = 17
Dangerous builds = 0
fix             myat1 all ave/time 1000 10 10000 v_zave v_zdes file simulation_data/abpot/${cpt}.dat
fix             myat1 all ave/time 1000 10 10000 v_zave v_zdes file simulation_data/abpot/47.dat
run             50000
Generated 0 of 1 mixed pair_coeff terms from geometric mixing rule
Per MPI rank memory allocation (min/avg/max) = 13.32 | 13.88 | 14.98 Mbytes
   Step          Temp          E_pair         E_mol          TotEng         Press     
   2790000   292.08223      371.99749      18570.938      19360.844     -209.26269    
   2800000   304.54122      377.32117      18520.667      19333.723      139.82369    
   2810000   309.13587      374.5393       18547.406      19364.254      32.108084    
   2820000   309.47704      371.43428      18540.657      19354.887     -23.048531    
   2830000   283.1217       381.5453       18503.965      19290.598      193.8975     
   2840000   285.43887      369.8307       18529.887      19308.121     -161.46025    
Loop time of 15.3331 on 48 procs for 50000 steps with 481 atoms

Performance: 14.087 ns/day, 1.704 hours/ns, 3260.915 timesteps/s, 1.568 Matom-step/s
100.0% CPU use with 48 MPI tasks x 1 OpenMP threads

MPI task timing breakdown:
Section |  min time  |  avg time  |  max time  |%varavg| %total
---------------------------------------------------------------
Pair    | 0.015436   | 0.72682    | 4.0843     | 119.5 |  4.74
Bond    | 0.0051028  | 0.912      | 4.0048     | 125.5 |  5.95
Neigh   | 0.027528   | 0.030625   | 0.033391   |   0.9 |  0.20
Comm    | 6.4197     | 11.235     | 13.859     |  73.2 | 73.27
Output  | 0.0056516  | 0.010838   | 0.0159     |   3.1 |  0.07
Modify  | 0.60107    | 1.8389     | 7.4777     | 161.4 | 11.99
Other   |            | 0.5791     |            |       |  3.78

Nlocal:        10.0208 ave          43 max           0 min
Histogram: 22 4 10 4 1 1 0 2 1 3
Nghost:        1927.85 ave        2406 max        1334 min
Histogram: 8 0 0 0 24 0 0 0 0 16
Neighs:              0 ave           0 max           0 min
Histogram: 48 0 0 0 0 0 0 0 0 0

Total # of neighbors = 0
Ave neighs/atom = 0
Ave special neighs/atom = 15.567568
Neighbor list builds = 83
Dangerous builds = 0
unfix           myat1
next            cpt
jump            SELF loop
variable        zdes equal  -15+0.60*(${cpt}-1)
variable        zdes equal  -15+0.60*(48-1)
variable        zave equal xcm(H2,z)
fix             mytth2 H2 spring tether ${k1} 2.5 2.5 ${zdes} 0
fix             mytth2 H2 spring tether 4 2.5 2.5 ${zdes} 0
fix             mytth2 H2 spring tether 4 2.5 2.5 13.2 0
run             10000
Generated 0 of 1 mixed pair_coeff terms from geometric mixing rule
Per MPI rank memory allocation (min/avg/max) = 13.32 | 13.88 | 14.98 Mbytes
   Step          Temp          E_pair         E_mol          TotEng         Press     
   2840000   285.43887      369.8307       18529.887      19308.121     -161.46025    
   2850000   292.86236      367.28756      18545.239      19331.551     -105.91701    
Loop time of 3.01637 on 48 procs for 10000 steps with 481 atoms

Performance: 14.322 ns/day, 1.676 hours/ns, 3315.247 timesteps/s, 1.595 Matom-step/s
100.0% CPU use with 48 MPI tasks x 1 OpenMP threads

MPI task timing breakdown:
Section |  min time  |  avg time  |  max time  |%varavg| %total
---------------------------------------------------------------
Pair    | 0.0030709  | 0.14485    | 0.79993    |  53.5 |  4.80
Bond    | 0.0010107  | 0.18199    | 0.76634    |  56.0 |  6.03
Neigh   | 0.0066366  | 0.0074279  | 0.0081325  |   0.5 |  0.25
Comm    | 1.2582     | 2.1966     | 2.7219     |  32.1 | 72.82
Output  | 0.0011008  | 0.0021169  | 0.0031261  |   1.4 |  0.07
Modify  | 0.11865    | 0.36824    | 1.4725     |  69.6 | 12.21
Other   |            | 0.1151     |            |       |  3.82

Nlocal:        10.0208 ave          40 max           0 min
Histogram: 18 8 7 6 1 1 0 2 3 2
Nghost:        1921.23 ave        2399 max        1333 min
Histogram: 8 0 0 0 24 0 0 0 0 16
Neighs:              0 ave           0 max           0 min
Histogram: 48 0 0 0 0 0 0 0 0 0

Total # of neighbors = 0
Ave neighs/atom = 0
Ave special neighs/atom = 15.567568
Neighbor list builds = 21
Dangerous builds = 0
fix             myat1 all ave/time 1000 10 10000 v_zave v_zdes file simulation_data/abpot/${cpt}.dat
fix             myat1 all ave/time 1000 10 10000 v_zave v_zdes file simulation_data/abpot/48.dat
run             50000
Generated 0 of 1 mixed pair_coeff terms from geometric mixing rule
Per MPI rank memory allocation (min/avg/max) = 13.32 | 13.88 | 14.98 Mbytes
   Step          Temp          E_pair         E_mol          TotEng         Press     
   2850000   292.86236      367.28756      18545.239      19331.551     -105.91701    
   2860000   295.61439      382.5493       18536.823      19342.334      212.03548    
   2870000   304.42397      368.29448      18564.077      19367.938     -242.68733    
   2880000   317.79869      362.65613      18559.35       19376.709     -379.06665    
   2890000   291.92459      387.49774      18535.666      19340.846      405.86838    
   2900000   294.83873      375.61008      18531.422      19328.884      20.496194    
Loop time of 15.0631 on 48 procs for 50000 steps with 481 atoms

Performance: 14.340 ns/day, 1.674 hours/ns, 3319.379 timesteps/s, 1.597 Matom-step/s
100.0% CPU use with 48 MPI tasks x 1 OpenMP threads

MPI task timing breakdown:
Section |  min time  |  avg time  |  max time  |%varavg| %total
---------------------------------------------------------------
Pair    | 0.01522    | 0.72586    | 3.9701     | 119.1 |  4.82
Bond    | 0.0050728  | 0.91174    | 4.0273     | 126.0 |  6.05
Neigh   | 0.021022   | 0.023443   | 0.025584   |   0.8 |  0.16
Comm    | 6.3348     | 11.017     | 13.606     |  71.9 | 73.14
Output  | 0.0055631  | 0.010721   | 0.015767   |   3.1 |  0.07
Modify  | 0.59172    | 1.7973     | 7.216      | 155.8 | 11.93
Other   |            | 0.5773     |            |       |  3.83

Nlocal:        10.0208 ave          38 max           0 min
Histogram: 21 3 9 7 0 0 0 1 5 2
Nghost:        1937.38 ave        2420 max        1335 min
Histogram: 8 0 0 0 24 0 0 0 0 16
Neighs:              0 ave           0 max           0 min
Histogram: 48 0 0 0 0 0 0 0 0 0

Total # of neighbors = 0
Ave neighs/atom = 0
Ave special neighs/atom = 15.567568
Neighbor list builds = 65
Dangerous builds = 0
unfix           myat1
next            cpt
jump            SELF loop
variable        zdes equal  -15+0.60*(${cpt}-1)
variable        zdes equal  -15+0.60*(49-1)
variable        zave equal xcm(H2,z)
fix             mytth2 H2 spring tether ${k1} 2.5 2.5 ${zdes} 0
fix             mytth2 H2 spring tether 4 2.5 2.5 ${zdes} 0
fix             mytth2 H2 spring tether 4 2.5 2.5 13.8 0
run             10000
Generated 0 of 1 mixed pair_coeff terms from geometric mixing rule
Per MPI rank memory allocation (min/avg/max) = 13.32 | 13.88 | 14.98 Mbytes
   Step          Temp          E_pair         E_mol          TotEng         Press     
   2900000   294.83873      375.61008      18531.422      19328.884      20.496194    
   2910000   298.27802      371.04019      18538.961      19336.774     -148.54982    
Loop time of 2.95552 on 48 procs for 10000 steps with 481 atoms

Performance: 14.617 ns/day, 1.642 hours/ns, 3383.494 timesteps/s, 1.627 Matom-step/s
100.0% CPU use with 48 MPI tasks x 1 OpenMP threads

MPI task timing breakdown:
Section |  min time  |  avg time  |  max time  |%varavg| %total
---------------------------------------------------------------
Pair    | 0.0031692  | 0.14497    | 0.77142    |  52.8 |  4.90
Bond    | 0.0010148  | 0.1821     | 0.82622    |  56.8 |  6.16
Neigh   | 0.0060395  | 0.0067541  | 0.007352   |   0.4 |  0.23
Comm    | 1.1902     | 2.1568     | 2.6603     |  31.8 | 72.97
Output  | 0.0011053  | 0.0021366  | 0.0031631  |   1.4 |  0.07
Modify  | 0.11939    | 0.3473     | 1.3912     |  67.4 | 11.75
Other   |            | 0.1155     |            |       |  3.91

Nlocal:        10.0208 ave          44 max           0 min
Histogram: 21 5 10 4 0 1 2 4 0 1
Nghost:        1926.23 ave        2403 max        1329 min
Histogram: 8 0 0 0 24 0 0 0 0 16
Neighs:              0 ave           0 max           0 min
Histogram: 48 0 0 0 0 0 0 0 0 0

Total # of neighbors = 0
Ave neighs/atom = 0
Ave special neighs/atom = 15.567568
Neighbor list builds = 19
Dangerous builds = 0
fix             myat1 all ave/time 1000 10 10000 v_zave v_zdes file simulation_data/abpot/${cpt}.dat
fix             myat1 all ave/time 1000 10 10000 v_zave v_zdes file simulation_data/abpot/49.dat
run             50000
Generated 0 of 1 mixed pair_coeff terms from geometric mixing rule
Per MPI rank memory allocation (min/avg/max) = 13.32 | 13.88 | 14.98 Mbytes
   Step          Temp          E_pair         E_mol          TotEng         Press     
   2910000   298.27802      371.04019      18538.961      19336.774     -148.54982    
   2920000   317.1804       365.51587      18553.682      19373.016     -218.03787    
   2930000   297.15343      376.15391      18506.821      19308.139      29.031003    
   2940000   307.05278      368.24618      18529.541      19337.115     -224.96395    
   2950000   307.95626      378.14034      18530.543      19349.304      131.73475    
   2960000   328.37485      366.3335       18525.504      19361.672     -53.298559    
Loop time of 15.0649 on 48 procs for 50000 steps with 481 atoms

Performance: 14.338 ns/day, 1.674 hours/ns, 3318.964 timesteps/s, 1.596 Matom-step/s
100.0% CPU use with 48 MPI tasks x 1 OpenMP threads

MPI task timing breakdown:
Section |  min time  |  avg time  |  max time  |%varavg| %total
---------------------------------------------------------------
Pair    | 0.015368   | 0.72268    | 3.8626     | 118.6 |  4.80
Bond    | 0.0050894  | 0.9109     | 4.0203     | 126.1 |  6.05
Neigh   | 0.017398   | 0.01944    | 0.021187   |   0.7 |  0.13
Comm    | 6.5284     | 11.032     | 13.609     |  72.3 | 73.23
Output  | 0.0055928  | 0.010831   | 0.015951   |   3.2 |  0.07
Modify  | 0.59805    | 1.7917     | 7.239      | 157.1 | 11.89
Other   |            | 0.5769     |            |       |  3.83

Nlocal:        10.0208 ave          46 max           0 min
Histogram: 21 9 8 2 1 0 3 2 1 1
Nghost:        1935.73 ave        2421 max        1327 min
Histogram: 8 0 0 0 24 0 0 0 0 16
Neighs:              0 ave           0 max           0 min
Histogram: 48 0 0 0 0 0 0 0 0 0

Total # of neighbors = 0
Ave neighs/atom = 0
Ave special neighs/atom = 15.567568
Neighbor list builds = 54
Dangerous builds = 0
unfix           myat1
next            cpt
jump            SELF loop
variable        zdes equal  -15+0.60*(${cpt}-1)
variable        zdes equal  -15+0.60*(50-1)
variable        zave equal xcm(H2,z)
fix             mytth2 H2 spring tether ${k1} 2.5 2.5 ${zdes} 0
fix             mytth2 H2 spring tether 4 2.5 2.5 ${zdes} 0
fix             mytth2 H2 spring tether 4 2.5 2.5 14.4 0
run             10000
Generated 0 of 1 mixed pair_coeff terms from geometric mixing rule
Per MPI rank memory allocation (min/avg/max) = 13.32 | 13.88 | 14.98 Mbytes
   Step          Temp          E_pair         E_mol          TotEng         Press     
   2960000   328.37485      366.3335       18525.504      19361.672     -53.298559    
   2970000   301.44647      365.92784      18553.168      19350.402     -168.09283    
Loop time of 3.06145 on 48 procs for 10000 steps with 481 atoms

Performance: 14.111 ns/day, 1.701 hours/ns, 3266.426 timesteps/s, 1.571 Matom-step/s
100.0% CPU use with 48 MPI tasks x 1 OpenMP threads

MPI task timing breakdown:
Section |  min time  |  avg time  |  max time  |%varavg| %total
---------------------------------------------------------------
Pair    | 0.0032308  | 0.14442    | 0.80457    |  53.5 |  4.72
Bond    | 0.0010166  | 0.1821     | 0.82423    |  56.4 |  5.95
Neigh   | 0.0036983  | 0.004094   | 0.0044567  |   0.3 |  0.13
Comm    | 1.2204     | 2.2518     | 2.7775     |  32.1 | 73.55
Output  | 0.0010915  | 0.0021104  | 0.0031228  |   1.4 |  0.07
Modify  | 0.11807    | 0.36184    | 1.4714     |  70.2 | 11.82
Other   |            | 0.1151     |            |       |  3.76

Nlocal:        10.0208 ave          47 max           0 min
Histogram: 22 7 9 2 1 2 1 1 1 2
Nghost:         1927.1 ave        2402 max        1330 min
Histogram: 8 0 0 0 24 0 0 0 0 16
Neighs:              0 ave           0 max           0 min
Histogram: 48 0 0 0 0 0 0 0 0 0

Total # of neighbors = 0
Ave neighs/atom = 0
Ave special neighs/atom = 15.567568
Neighbor list builds = 11
Dangerous builds = 0
fix             myat1 all ave/time 1000 10 10000 v_zave v_zdes file simulation_data/abpot/${cpt}.dat
fix             myat1 all ave/time 1000 10 10000 v_zave v_zdes file simulation_data/abpot/50.dat
run             50000
Generated 0 of 1 mixed pair_coeff terms from geometric mixing rule
Per MPI rank memory allocation (min/avg/max) = 13.32 | 13.88 | 14.98 Mbytes
   Step          Temp          E_pair         E_mol          TotEng         Press     
   2970000   301.44647      365.92784      18553.168      19350.402     -168.09283    
   2980000   297.54198      374.3372       18524.547      19324.604      91.199992    
   2990000   303.56984      377.95938      18517.535      19329.838      208.46199    
   3000000   299.30482      373.62547      18549.175      19351.042     -70.229842    
   3010000   321.0549       368.98835      18526.408      19354.758     -101.27174    
   3020000   294.13705      372.18101      18527.999      19321.028      2.3092299    
Loop time of 15.2041 on 48 procs for 50000 steps with 481 atoms

Performance: 14.207 ns/day, 1.689 hours/ns, 3288.585 timesteps/s, 1.582 Matom-step/s
100.0% CPU use with 48 MPI tasks x 1 OpenMP threads

MPI task timing breakdown:
Section |  min time  |  avg time  |  max time  |%varavg| %total
---------------------------------------------------------------
Pair    | 0.015371   | 0.72238    | 3.8373     | 118.6 |  4.75
Bond    | 0.0050937  | 0.9111     | 4.0792     | 126.4 |  5.99
Neigh   | 0.020573   | 0.02286    | 0.024912   |   0.8 |  0.15
Comm    | 6.7017     | 11.172     | 13.752     |  72.4 | 73.48
Output  | 0.0056259  | 0.010827   | 0.0159     |   3.1 |  0.07
Modify  | 0.59845    | 1.7877     | 7.271      | 158.9 | 11.76
Other   |            | 0.5768     |            |       |  3.79

Nlocal:        10.0208 ave          39 max           0 min
Histogram: 19 8 6 5 2 0 1 2 2 3
Nghost:        1925.48 ave        2410 max        1336 min
Histogram: 8 0 0 0 24 0 0 0 0 16
Neighs:              0 ave           0 max           0 min
Histogram: 48 0 0 0 0 0 0 0 0 0

Total # of neighbors = 0
Ave neighs/atom = 0
Ave special neighs/atom = 15.567568
Neighbor list builds = 62
Dangerous builds = 0
unfix           myat1
next            cpt
jump            SELF loop
variable        zdes equal  -15+0.60*(${cpt}-1)
variable        zdes equal  -15+0.60*(51-1)
variable        zave equal xcm(H2,z)
fix             mytth2 H2 spring tether ${k1} 2.5 2.5 ${zdes} 0
fix             mytth2 H2 spring tether 4 2.5 2.5 ${zdes} 0
fix             mytth2 H2 spring tether 4 2.5 2.5 15 0
run             10000
Generated 0 of 1 mixed pair_coeff terms from geometric mixing rule
Per MPI rank memory allocation (min/avg/max) = 13.32 | 13.88 | 14.98 Mbytes
   Step          Temp          E_pair         E_mol          TotEng         Press     
   3020000   294.13705      372.18101      18527.999      19321.028      2.3092299    
   3030000   288.33297      373.2636       18515.307      19301.115      2.0156088    
Loop time of 3.00194 on 48 procs for 10000 steps with 481 atoms

Performance: 14.391 ns/day, 1.668 hours/ns, 3331.176 timesteps/s, 1.602 Matom-step/s
100.0% CPU use with 48 MPI tasks x 1 OpenMP threads

MPI task timing breakdown:
Section |  min time  |  avg time  |  max time  |%varavg| %total
---------------------------------------------------------------
Pair    | 0.0031307  | 0.144      | 0.74686    |  52.8 |  4.80
Bond    | 0.0010163  | 0.18179    | 0.82379    |  56.6 |  6.06
Neigh   | 0.0026711  | 0.002983   | 0.0032668  |   0.3 |  0.10
Comm    | 1.2927     | 2.2027     | 2.7031     |  31.9 | 73.38
Output  | 0.0012187  | 0.0022478  | 0.0032774  |   1.4 |  0.07
Modify  | 0.12399    | 0.35212    | 1.4125     |  68.6 | 11.73
Other   |            | 0.1161     |            |       |  3.87

Nlocal:        10.0208 ave          43 max           0 min
Histogram: 22 6 7 4 1 1 0 4 2 1
Nghost:        1928.85 ave        2416 max        1338 min
Histogram: 8 0 0 0 24 0 0 0 0 16
Neighs:              0 ave           0 max           0 min
Histogram: 48 0 0 0 0 0 0 0 0 0

Total # of neighbors = 0
Ave neighs/atom = 0
Ave special neighs/atom = 15.567568
Neighbor list builds = 8
Dangerous builds = 0
fix             myat1 all ave/time 1000 10 10000 v_zave v_zdes file simulation_data/abpot/${cpt}.dat
fix             myat1 all ave/time 1000 10 10000 v_zave v_zdes file simulation_data/abpot/51.dat
run             50000
Generated 0 of 1 mixed pair_coeff terms from geometric mixing rule
Per MPI rank memory allocation (min/avg/max) = 13.32 | 13.88 | 14.98 Mbytes
   Step          Temp          E_pair         E_mol          TotEng         Press     
   3030000   288.33297      373.2636       18515.307      19301.115      2.0156088    
   3040000   299.02023      369.94805      18562.899      19360.681     -50.737858    
   3050000   313.41403      373.47021      18539.131      19361.03       41.2543      
   3060000   279.9654       372.56276      18534.049      19307.183     -108.08642    
   3070000   290.07267      369.37675      18553.422      19337.831     -129.58032    
   3080000   290.53706      379.81068      18550.353      19345.861      14.425104    
Loop time of 16.2232 on 48 procs for 50000 steps with 481 atoms

Performance: 13.314 ns/day, 1.803 hours/ns, 3082.006 timesteps/s, 1.482 Matom-step/s
100.0% CPU use with 48 MPI tasks x 1 OpenMP threads

MPI task timing breakdown:
Section |  min time  |  avg time  |  max time  |%varavg| %total
---------------------------------------------------------------
Pair    | 0.015429   | 0.72164    | 3.8217     | 118.4 |  4.45
Bond    | 0.0051005  | 0.91122    | 4.199      | 126.9 |  5.62
Neigh   | 0.022036   | 0.024376   | 0.026564   |   0.8 |  0.15
Comm    | 7.1593     | 12.011     | 14.628     |  76.4 | 74.03
Output  | 0.0058207  | 0.011036   | 0.016138   |   3.1 |  0.07
Modify  | 0.60446    | 1.9651     | 8.2958     | 177.7 | 12.11
Other   |            | 0.579      |            |       |  3.57

Nlocal:        10.0208 ave          52 max           0 min
Histogram: 22 9 8 3 0 2 0 2 1 1
Nghost:        1931.35 ave        2409 max        1334 min
Histogram: 8 0 0 0 24 0 0 0 0 16
Neighs:              0 ave           0 max           0 min
Histogram: 48 0 0 0 0 0 0 0 0 0

Total # of neighbors = 0
Ave neighs/atom = 0
Ave special neighs/atom = 15.567568
Neighbor list builds = 62
Dangerous builds = 0
unfix           myat1
next            cpt
jump            SELF loop

Total wall time: 0:15:58
