# --- log file ---

variable pre equal 112 # desired pressure (Atm)
variable tem equal 300 # desired temperature (K)

variable k1 equal 5. # spring constant
variable k2 equal 3.5 # spring constant

units real
atom_style molecular
boundary p p p
neighbor 1.0 bin
neigh_modify delay 3 one 6000
bond_style harmonic
angle_style harmonic
dihedral_style opls
improper_style harmonic
pair_style hybrid lj/cut 14 sg 15 cb 30 # Fluid-fluid interactions have a cutoff of 15 Å, fluid-solid interactions have a cutoff of 30 Å
# *--* C-C parameters *--*
bond_style harmonic
angle_style harmonic
dihedral_style opls
improper_style harmonic
# *--* C-C parameters *--*


# 2. Read the graphite platelet data file and define potentials parameters
read_data       ../geometry/carbonPlatelets/simulation_data/abpot_sys.data  extra/atom/types 1
Reading data file ...
  orthogonal box = (-30 -30 -30) to (30 30 30)
  3 by 4 by 4 MPI processor grid
  reading atoms ...
  480 atoms
  reading velocities ...
  480 velocities
  scanning bonds ...
  2 = max bonds/atom
  scanning angles ...
  3 = max angles/atom
  scanning dihedrals ...
  8 = max dihedrals/atom
  scanning impropers ...
  2 = max impropers/atom
  orthogonal box = (-30 -30 -30) to (30 30 30)
  3 by 4 by 4 MPI processor grid
  reading bonds ...
  676 bonds
  reading angles ...
  1268 angles
  reading dihedrals ...
  2394 dihedrals
  reading impropers ...
  396 impropers
Finding 1-2 1-3 1-4 neighbors ...
  special bond factors lj:    0        0        0       
  special bond factors coul:  0        0        0       
     3 = max # of 1-2 neighbors
     6 = max # of 1-3 neighbors
    18 = max # of 1-4 neighbors
    18 = max # of special neighbors
  special bonds CPU = 0.003 seconds
  read_data CPU = 0.053 seconds
include         PARM.lammps

#////////////////////////////////////////////////////////////////////////////////////////////////////////////////////////////////
#//     Filename: PARM.lammps
#//     File Type: LAMMPS input script
#//     Description: This script defines the parameters for the simulation of hydrogen absorption in graphite platelets.
#//     Author: Edoardo Cabiati
#//     Date: 2024-07-27
#////////////////////////////////////////////////////////////////////////////////////////////////////////////////////////////////

mass 2 2.016 # For now at least, in accordance with the paper by Wang and Johnson,
             # 1998, the hydrogen atoms are regarded as simple spherical atoms

# //////////////////////////////////////    C-C potentials    //////////////////////////////////////
pair_coeff 1 1 lj/cut 0.066 3.4
bond_coeff 1 469 1.4
angle_coeff 1 63 120
dihedral_coeff 1 0 7.25 0 0
improper_coeff 1 5 180
special_bonds lj 0.0 0.0 0.5
Finding 1-2 1-3 1-4 neighbors ...
  special bond factors lj:    0        0        0.5     
  special bond factors coul:  0        0        0       
     3 = max # of 1-2 neighbors
     6 = max # of 1-3 neighbors
    18 = max # of 1-4 neighbors
    18 = max # of special neighbors
  special bonds CPU = 0.001 seconds
# //////////////////////////////////////    C-C potentials    //////////////////////////////////////
# -------------------------------------------------------------------------------------------------
# //////////////////////////////////////    H-H potentials    //////////////////////////////////////
variable alpha equal 1.713          #|
variable sigma equal 1.567          #|
variable gamma equal 0.00993        #|
variable c6 equal 12.14             #|      The parameters are all in atomic units, the conversion to kcal/mol
variable c8 equal 215.2             #|      is performed in the pair_sg.cpp file
variable c9 equal 143.1             #|
variable c10 equal 4813.9           #|
variable rc equal 8.321             #|
pair_coeff 2 2 sg ${alpha} ${sigma} ${gamma} ${c6} ${c8} ${c9} ${c10} ${rc} # H-H potentials
pair_coeff 2 2 sg 1.713 ${sigma} ${gamma} ${c6} ${c8} ${c9} ${c10} ${rc} 
pair_coeff 2 2 sg 1.713 1.567 ${gamma} ${c6} ${c8} ${c9} ${c10} ${rc} 
pair_coeff 2 2 sg 1.713 1.567 0.00993 ${c6} ${c8} ${c9} ${c10} ${rc} 
pair_coeff 2 2 sg 1.713 1.567 0.00993 12.14 ${c8} ${c9} ${c10} ${rc} 
pair_coeff 2 2 sg 1.713 1.567 0.00993 12.14 215.2 ${c9} ${c10} ${rc} 
pair_coeff 2 2 sg 1.713 1.567 0.00993 12.14 215.2 143.1 ${c10} ${rc} 
pair_coeff 2 2 sg 1.713 1.567 0.00993 12.14 215.2 143.1 4813.9 ${rc} 
pair_coeff 2 2 sg 1.713 1.567 0.00993 12.14 215.2 143.1 4813.9 8.321 
#pair_coeff 2 2 sg 1.713 1.567 0.00993 12.14 215.2 143.1 4813.9 8.321 # H-H potentials
# //////////////////////////////////////    H-H potentials    //////////////////////////////////////
# -------------------------------------------------------------------------------------------------
# //////////////////////////////////////    C-H potentials    //////////////////////////////////////
variable sigma_CC equal 3.43 # Å
variable sigma_HH equal 3.075 # Å
variable sigma_CH_geo equal sqrt(${sigma_CC}*${sigma_HH}) # Å
variable sigma_CH_geo equal sqrt(3.43*${sigma_HH}) 
variable sigma_CH_geo equal sqrt(3.43*3.075) 
variable sigma_CH_arit equal 0.5*(${sigma_CC}+${sigma_HH}) # Å
variable sigma_CH_arit equal 0.5*(3.43+${sigma_HH}) 
variable sigma_CH_arit equal 0.5*(3.43+3.075) 

variable P_par equal 0.57 # Å^3
variable P_perp equal 1.995 # Å^3
variable P_h equal 0.81 # Å^3
variable E_h equal 2.337e5*(1/503.23) # K * 1/503.23 kcal/mol/K = kcal/mol
variable E_c equal 1.39254e5*(1/503.23) # K * 1/503.23 kcal/mol/K = kcal/mol

variable epsilon equal 4*v_E_h*v_E_c*v_P_h*(v_P_par+v_P_perp/2)/(v_sigma_CH_geo^6*(v_E_h+v_E_c)) # kcal/mol

pair_coeff 1 2 cb ${epsilon} ${sigma_CH_geo} ${P_par} ${P_perp} # C-H potential
pair_coeff 1 2 cb 0.750549668586509 ${sigma_CH_geo} ${P_par} ${P_perp} 
pair_coeff 1 2 cb 0.750549668586509 3.24765299870537 ${P_par} ${P_perp} 
pair_coeff 1 2 cb 0.750549668586509 3.24765299870537 0.57 ${P_perp} 
pair_coeff 1 2 cb 0.750549668586509 3.24765299870537 0.57 1.995 
#pair_coeff 1 2 lj/cut 0.3025 2.065
# //////////////////////////////////////    C-H potentials    //////////////////////////////////////

# 3. Add a single hydrogen molecule to the system, close to the center of the first platelet
create_atoms    2 single 0 0 -2
Created 1 atoms
  using lattice units in orthogonal box = (-30 -30 -30) to (30 30 30)
  create_atoms CPU = 0.000 seconds

group           C type 1
480 atoms in group C
group           H2 type 2
1 atoms in group H2

# 4. Equilibration
timestep        0.05
fix             mytth1 C spring/self ${k2} # Apply a spring force to the carbon atoms
fix             mytth1 C spring/self 3.5 
velocity        all create ${tem} 48 rot yes mom yes dist gaussian # Initialize velocities
velocity        all create 300 48 rot yes mom yes dist gaussian 
fix             mynpt all npt temp ${tem} ${tem} 100 x ${pre} ${pre} 1000 y ${pre} ${pre} 1000 # Apply NPT ensemble to the system
fix             mynpt all npt temp 300 ${tem} 100 x ${pre} ${pre} 1000 y ${pre} ${pre} 1000 
fix             mynpt all npt temp 300 300 100 x ${pre} ${pre} 1000 y ${pre} ${pre} 1000 
fix             mynpt all npt temp 300 300 100 x 112 ${pre} 1000 y ${pre} ${pre} 1000 
fix             mynpt all npt temp 300 300 100 x 112 112 1000 y ${pre} ${pre} 1000 
fix             mynpt all npt temp 300 300 100 x 112 112 1000 y 112 ${pre} 1000 
fix             mynpt all npt temp 300 300 100 x 112 112 1000 y 112 112 1000 

thermo          10000
dump            dump all atom 1000 simulation_data/absorption_pot.lammpstrj

run             20000

CITE-CITE-CITE-CITE-CITE-CITE-CITE-CITE-CITE-CITE-CITE-CITE-CITE

Your simulation uses code contributions which should be cited:

- Type Label Framework: https://doi.org/10.1021/acs.jpcb.3c08419

@Article{Gissinger24,
 author = {Jacob R. Gissinger, Ilia Nikiforov, Yaser Afshar, Brendon Waters, Moon-ki Choi, Daniel S. Karls, Alexander Stukowski, Wonpil Im, Hendrik Heinz, Axel Kohlmeyer, and Ellad B. Tadmor},
 title = {Type Label Framework for Bonded Force Fields in LAMMPS},
 journal = {J. Phys. Chem. B},
 year =    2024,
 volume =  128,
 number =  13,
 pages =   {3282–-3297}
}

CITE-CITE-CITE-CITE-CITE-CITE-CITE-CITE-CITE-CITE-CITE-CITE-CITE

Generated 0 of 1 mixed pair_coeff terms from geometric mixing rule
Neighbor list info ...
  update: every = 1 steps, delay = 3 steps, check = yes
  max neighbors/atom: 6000, page size: 100000
  master list distance cutoff = 31
  ghost atom cutoff = 31
  binsize = 15.5, bins = 4 4 4
  4 neighbor lists, perpetual/occasional/extra = 4 0 0
  (1) pair lj/cut, perpetual, skip trim from (4)
      attributes: half, newton on, cut 15
      pair build: skip/trim
      stencil: none
      bin: none
  (2) pair sg, perpetual, skip trim from (4)
      attributes: half, newton on, cut 16
      pair build: skip/trim
      stencil: none
      bin: none
  (3) pair cb, perpetual, skip from (4)
      attributes: half, newton on
      pair build: skip
      stencil: none
      bin: none
  (4) neighbor class addition, perpetual
      attributes: half, newton on
      pair build: half/bin/newton
      stencil: half/bin/3d
      bin: standard
Per MPI rank memory allocation (min/avg/max) = 13.28 | 13.37 | 13.93 Mbytes
   Step          Temp          E_pair         E_mol          TotEng         Press          Volume    
         0   300            308.43814      19603.922      20341.597     -432.48369      216000       
     10000   308.72719      373.58236      18568.419      19383.724     -313.9945       172136.64    
     20000   322.02648      371.05675      18538.378      19370.187     -418.66256      126544.33    
Loop time of 10.6616 on 48 procs for 20000 steps with 481 atoms

Performance: 8.104 ns/day, 2.962 hours/ns, 1875.884 timesteps/s, 902.300 katom-step/s
99.9% CPU use with 48 MPI tasks x 1 OpenMP threads

MPI task timing breakdown:
Section |  min time  |  avg time  |  max time  |%varavg| %total
---------------------------------------------------------------
Pair    | 0.13279    | 0.59693    | 3.826      | 100.7 |  5.60
Bond    | 0.0040296  | 0.5251     | 3.3566     | 131.7 |  4.93
Neigh   | 0.029427   | 0.032604   | 0.0358     |   0.9 |  0.31
Comm    | 2.3183     | 6.0781     | 9.0616     |  97.5 | 57.01
Output  | 0.0045395  | 0.01101    | 0.018421   |   4.6 |  0.10
Modify  | 0.76424    | 3.047      | 7.2725     | 146.4 | 28.58
Other   |            | 0.3709     |            |       |  3.48

Nlocal:        10.0208 ave          42 max           0 min
Histogram: 21 4 10 5 0 1 0 3 3 1
Nghost:        1907.85 ave        2370 max        1332 min
Histogram: 8 0 0 0 24 0 0 0 0 16
Neighs:              0 ave           0 max           0 min
Histogram: 48 0 0 0 0 0 0 0 0 0

Total # of neighbors = 0
Ave neighs/atom = 0
Ave special neighs/atom = 15.567568
Neighbor list builds = 55
Dangerous builds = 0
unfix           mynpt
unfix           mytth1

# 5. Umbrella sampling
fix             mynvt all nvt temp ${tem} ${tem} 100
fix             mynvt all nvt temp 300 ${tem} 100
fix             mynvt all nvt temp 300 300 100
fix             mytth1 C spring/self ${k2}
fix             mytth1 C spring/self 3.5

variable        cpt loop 51
label           loop
variable        zdes equal  -15+0.60*(${cpt}-1)
variable        zdes equal  -15+0.60*(1-1)
variable        zave equal xcm(H2,z)
fix             mytth2 H2 spring tether ${k1} 2.5 2.5 ${zdes} 0
fix             mytth2 H2 spring tether 5 2.5 2.5 ${zdes} 0
fix             mytth2 H2 spring tether 5 2.5 2.5 -15 0
run             10000
Generated 0 of 1 mixed pair_coeff terms from geometric mixing rule
Per MPI rank memory allocation (min/avg/max) = 13.32 | 13.74 | 14.98 Mbytes
   Step          Temp          E_pair         E_mol          TotEng         Press     
     20000   322.02648      371.05675      18538.378      19370.187     -418.66256    
     30000   260.1875       334.40239      18585.442      19292.118     -1129.7179    
Loop time of 4.46997 on 48 procs for 10000 steps with 481 atoms

Performance: 9.665 ns/day, 2.483 hours/ns, 2237.154 timesteps/s, 1.076 Matom-step/s
100.0% CPU use with 48 MPI tasks x 1 OpenMP threads

MPI task timing breakdown:
Section |  min time  |  avg time  |  max time  |%varavg| %total
---------------------------------------------------------------
Pair    | 0.0036507  | 0.1924     | 1.4252     |  70.6 |  4.30
Bond    | 0.0010424  | 0.22783    | 1.1549     |  67.0 |  5.10
Neigh   | 0.076845   | 0.083079   | 0.087241   |   0.9 |  1.86
Comm    | 1.5258     | 3.249      | 4.0169     |  49.4 | 72.69
Output  | 0.0017272  | 0.0038764  | 0.0063053  |   2.4 |  0.09
Modify  | 0.15006    | 0.58202    | 2.6848     | 113.9 | 13.02
Other   |            | 0.1318     |            |       |  2.95

Nlocal:        10.0208 ave          42 max           0 min
Histogram: 22 6 5 6 1 1 2 1 2 2
Nghost:         1913.5 ave        2384 max        1331 min
Histogram: 8 0 0 0 24 0 0 0 0 16
Neighs:              0 ave           0 max           0 min
Histogram: 48 0 0 0 0 0 0 0 0 0

Total # of neighbors = 0
Ave neighs/atom = 0
Ave special neighs/atom = 15.567568
Neighbor list builds = 137
Dangerous builds = 0
fix             myat1 all ave/time 1000 10 10000 v_zave v_zdes file simulation_data/abpot/${cpt}.dat
fix             myat1 all ave/time 1000 10 10000 v_zave v_zdes file simulation_data/abpot/1.dat
run             50000
Generated 0 of 1 mixed pair_coeff terms from geometric mixing rule
Per MPI rank memory allocation (min/avg/max) = 13.32 | 13.79 | 14.98 Mbytes
   Step          Temp          E_pair         E_mol          TotEng         Press     
     30000   260.1875       334.40239      18585.442      19292.118     -1129.7179    
     40000   271.4519       397.64189      18525.936      19311.968      435.7683     
     50000   294.79998      385.58352      18579.696      19387.076     -117.98823    
     60000   316.1303       362.0575       18585.823      19400.196     -381.2631     
     70000   295.95656      365.69285      18573.775      19362.919     -442.97243    
     80000   294.63067      388.87885      18517.742      19328.176      355.7688     
Loop time of 21.262 on 48 procs for 50000 steps with 481 atoms

Performance: 10.159 ns/day, 2.362 hours/ns, 2351.612 timesteps/s, 1.131 Matom-step/s
100.0% CPU use with 48 MPI tasks x 1 OpenMP threads

MPI task timing breakdown:
Section |  min time  |  avg time  |  max time  |%varavg| %total
---------------------------------------------------------------
Pair    | 0.018204   | 0.96464    | 6.7385     | 154.0 |  4.54
Bond    | 0.0054801  | 1.1478     | 5.7023     | 150.6 |  5.40
Neigh   | 0.11916    | 0.12896    | 0.13546    |   1.3 |  0.61
Comm    | 7.5242     | 15.544     | 19.286     | 107.3 | 73.11
Output  | 0.0081848  | 0.0162     | 0.024645   |   4.2 |  0.08
Modify  | 0.77739    | 2.798      | 12.735     | 243.7 | 13.16
Other   |            | 0.6624     |            |       |  3.12

Nlocal:        10.0208 ave          42 max           0 min
Histogram: 20 6 9 5 0 1 1 3 1 2
Nghost:        1931.85 ave        2409 max        1332 min
Histogram: 8 0 0 0 24 0 0 0 0 16
Neighs:              0 ave           0 max           0 min
Histogram: 48 0 0 0 0 0 0 0 0 0

Total # of neighbors = 0
Ave neighs/atom = 0
Ave special neighs/atom = 15.567568
Neighbor list builds = 209
Dangerous builds = 0
unfix           myat1
next            cpt
jump            SELF loop
variable        zdes equal  -15+0.60*(${cpt}-1)
variable        zdes equal  -15+0.60*(2-1)
variable        zave equal xcm(H2,z)
fix             mytth2 H2 spring tether ${k1} 2.5 2.5 ${zdes} 0
fix             mytth2 H2 spring tether 5 2.5 2.5 ${zdes} 0
fix             mytth2 H2 spring tether 5 2.5 2.5 -14.4 0
run             10000
Generated 0 of 1 mixed pair_coeff terms from geometric mixing rule
Per MPI rank memory allocation (min/avg/max) = 13.32 | 13.83 | 14.98 Mbytes
   Step          Temp          E_pair         E_mol          TotEng         Press     
     80000   294.63067      388.87885      18517.742      19328.176      355.7688     
     90000   299.60848      374.04289      18550.681      19353.401     -127.26757    
Loop time of 4.25157 on 48 procs for 10000 steps with 481 atoms

Performance: 10.161 ns/day, 2.362 hours/ns, 2352.070 timesteps/s, 1.131 Matom-step/s
100.0% CPU use with 48 MPI tasks x 1 OpenMP threads

MPI task timing breakdown:
Section |  min time  |  avg time  |  max time  |%varavg| %total
---------------------------------------------------------------
Pair    | 0.0036029  | 0.18691    | 1.4779     |  69.3 |  4.40
Bond    | 0.0010594  | 0.22428    | 1.1743     |  67.4 |  5.28
Neigh   | 0.0082823  | 0.0090419  | 0.0094703  |   0.4 |  0.21
Comm    | 1.3105     | 3.1271     | 3.8916     |  48.5 | 73.55
Output  | 0.0016329  | 0.0030292  | 0.0045066  |   1.7 |  0.07
Modify  | 0.13521    | 0.57155    | 2.5953     | 110.7 | 13.44
Other   |            | 0.1297     |            |       |  3.05

Nlocal:        10.0208 ave          42 max           0 min
Histogram: 20 8 5 7 0 1 0 4 1 2
Nghost:         1928.6 ave        2411 max        1335 min
Histogram: 8 0 0 0 24 0 0 0 0 16
Neighs:              0 ave           0 max           0 min
Histogram: 48 0 0 0 0 0 0 0 0 0

Total # of neighbors = 0
Ave neighs/atom = 0
Ave special neighs/atom = 15.567568
Neighbor list builds = 15
Dangerous builds = 0
fix             myat1 all ave/time 1000 10 10000 v_zave v_zdes file simulation_data/abpot/${cpt}.dat
fix             myat1 all ave/time 1000 10 10000 v_zave v_zdes file simulation_data/abpot/2.dat
run             50000
Generated 0 of 1 mixed pair_coeff terms from geometric mixing rule
Per MPI rank memory allocation (min/avg/max) = 13.32 | 13.83 | 14.98 Mbytes
   Step          Temp          E_pair         E_mol          TotEng         Press     
     90000   299.60848      374.04289      18550.681      19353.401     -127.26757    
    100000   303.88352      362.58913      18585.536      19382.918     -369.55414    
    110000   298.64299      369.86136      18572.44       19369.596     -133.40766    
    120000   310.99727      380.52877      18502.728      19328.228      82.89237     
    130000   324.30827      367.75376      18550.224      19381.994     -302.81998    
    140000   318.13022      371.30777      18558.46       19384.945     -90.182676    
Loop time of 21.2779 on 48 procs for 50000 steps with 481 atoms

Performance: 10.151 ns/day, 2.364 hours/ns, 2349.859 timesteps/s, 1.130 Matom-step/s
100.0% CPU use with 48 MPI tasks x 1 OpenMP threads

MPI task timing breakdown:
Section |  min time  |  avg time  |  max time  |%varavg| %total
---------------------------------------------------------------
Pair    | 0.018234   | 0.97155    | 6.9725     | 156.7 |  4.57
Bond    | 0.0052293  | 1.1462     | 5.6435     | 151.5 |  5.39
Neigh   | 0.042477   | 0.046107   | 0.048382   |   0.8 |  0.22
Comm    | 7.2047     | 15.567     | 19.333     | 109.1 | 73.16
Output  | 0.0083594  | 0.015097   | 0.021854   |   3.6 |  0.07
Modify  | 0.7678     | 2.8317     | 13.095     | 245.9 | 13.31
Other   |            | 0.7007     |            |       |  3.29

Nlocal:        10.0208 ave          38 max           0 min
Histogram: 19 5 8 6 2 0 0 3 1 4
Nghost:        1925.35 ave        2408 max        1336 min
Histogram: 8 0 0 0 24 0 0 0 0 16
Neighs:              0 ave           0 max           0 min
Histogram: 48 0 0 0 0 0 0 0 0 0

Total # of neighbors = 0
Ave neighs/atom = 0
Ave special neighs/atom = 15.567568
Neighbor list builds = 75
Dangerous builds = 0
unfix           myat1
next            cpt
jump            SELF loop
variable        zdes equal  -15+0.60*(${cpt}-1)
variable        zdes equal  -15+0.60*(3-1)
variable        zave equal xcm(H2,z)
fix             mytth2 H2 spring tether ${k1} 2.5 2.5 ${zdes} 0
fix             mytth2 H2 spring tether 5 2.5 2.5 ${zdes} 0
fix             mytth2 H2 spring tether 5 2.5 2.5 -13.8 0
run             10000
Generated 0 of 1 mixed pair_coeff terms from geometric mixing rule
Per MPI rank memory allocation (min/avg/max) = 13.32 | 13.84 | 14.98 Mbytes
   Step          Temp          E_pair         E_mol          TotEng         Press     
    140000   318.13022      371.30777      18558.46       19384.945     -90.182676    
    150000   314.15106      379.11775      18561.93       19390.532      56.220172    
Loop time of 4.51574 on 48 procs for 10000 steps with 481 atoms

Performance: 9.567 ns/day, 2.509 hours/ns, 2214.476 timesteps/s, 1.065 Matom-step/s
100.0% CPU use with 48 MPI tasks x 1 OpenMP threads

MPI task timing breakdown:
Section |  min time  |  avg time  |  max time  |%varavg| %total
---------------------------------------------------------------
Pair    | 0.0035558  | 0.2045     | 1.4159     |  74.3 |  4.53
Bond    | 0.001047   | 0.23593    | 1.1212     |  69.0 |  5.22
Neigh   | 0.0093293  | 0.0099614  | 0.010376   |   0.3 |  0.22
Comm    | 1.4761     | 3.298      | 4.1198     |  52.3 | 73.03
Output  | 0.0016504  | 0.0028933  | 0.0041557  |   1.5 |  0.06
Modify  | 0.14239    | 0.62292    | 2.876      | 116.7 | 13.79
Other   |            | 0.1416     |            |       |  3.14

Nlocal:        10.0208 ave          40 max           0 min
Histogram: 21 3 8 7 1 0 0 3 3 2
Nghost:         1936.6 ave        2425 max        1333 min
Histogram: 8 0 0 0 24 0 0 0 0 16
Neighs:              0 ave           0 max           0 min
Histogram: 48 0 0 0 0 0 0 0 0 0

Total # of neighbors = 0
Ave neighs/atom = 0
Ave special neighs/atom = 15.567568
Neighbor list builds = 15
Dangerous builds = 0
fix             myat1 all ave/time 1000 10 10000 v_zave v_zdes file simulation_data/abpot/${cpt}.dat
fix             myat1 all ave/time 1000 10 10000 v_zave v_zdes file simulation_data/abpot/3.dat
run             50000
Generated 0 of 1 mixed pair_coeff terms from geometric mixing rule
Per MPI rank memory allocation (min/avg/max) = 13.32 | 13.84 | 14.98 Mbytes
   Step          Temp          E_pair         E_mol          TotEng         Press     
    150000   314.15106      379.11775      18561.93       19390.532      56.220172    
    160000   297.2378       375.20407      18527.472      19327.961      217.87917    
    170000   291.20079      366.7293       18542.414      19325.791     -185.12839    
    180000   310.14911      376.16685      18526.34       19346.264      103.41551    
    190000   302.47882      371.80923      18552.004      19356.597      41.454343    
    200000   296.3763       365.84853      18554.467      19344.367     -161.78315    
Loop time of 21.2604 on 48 procs for 50000 steps with 481 atoms

Performance: 10.160 ns/day, 2.362 hours/ns, 2351.794 timesteps/s, 1.131 Matom-step/s
100.0% CPU use with 48 MPI tasks x 1 OpenMP threads

MPI task timing breakdown:
Section |  min time  |  avg time  |  max time  |%varavg| %total
---------------------------------------------------------------
Pair    | 0.017979   | 0.98517    | 6.6987     | 152.9 |  4.63
Bond    | 0.0052674  | 1.1567     | 5.5727     | 149.2 |  5.44
Neigh   | 0.052568   | 0.056762   | 0.059686   |   0.8 |  0.27
Comm    | 7.5692     | 15.599     | 19.286     | 104.7 | 73.37
Output  | 0.0081297  | 0.013971   | 0.019659   |   3.2 |  0.07
Modify  | 0.68323    | 2.7844     | 12.697     | 238.7 | 13.10
Other   |            | 0.664      |            |       |  3.12

Nlocal:        10.0208 ave          42 max           0 min
Histogram: 22 2 11 5 0 0 1 5 0 2
Nghost:        1928.85 ave        2408 max        1331 min
Histogram: 8 0 0 0 24 0 0 0 0 16
Neighs:              0 ave           0 max           0 min
Histogram: 48 0 0 0 0 0 0 0 0 0

Total # of neighbors = 0
Ave neighs/atom = 0
Ave special neighs/atom = 15.567568
Neighbor list builds = 93
Dangerous builds = 0
unfix           myat1
next            cpt
jump            SELF loop
variable        zdes equal  -15+0.60*(${cpt}-1)
variable        zdes equal  -15+0.60*(4-1)
variable        zave equal xcm(H2,z)
fix             mytth2 H2 spring tether ${k1} 2.5 2.5 ${zdes} 0
fix             mytth2 H2 spring tether 5 2.5 2.5 ${zdes} 0
fix             mytth2 H2 spring tether 5 2.5 2.5 -13.2 0
run             10000
Generated 0 of 1 mixed pair_coeff terms from geometric mixing rule
Per MPI rank memory allocation (min/avg/max) = 13.32 | 13.84 | 14.98 Mbytes
   Step          Temp          E_pair         E_mol          TotEng         Press     
    200000   296.3763       365.84853      18554.467      19344.367     -161.78315    
    210000   277.74983      365.97514      18546.839      19310.216     -221.5859     
Loop time of 4.02429 on 48 procs for 10000 steps with 481 atoms

Performance: 10.735 ns/day, 2.236 hours/ns, 2484.910 timesteps/s, 1.195 Matom-step/s
100.0% CPU use with 48 MPI tasks x 1 OpenMP threads

MPI task timing breakdown:
Section |  min time  |  avg time  |  max time  |%varavg| %total
---------------------------------------------------------------
Pair    | 0.0035985  | 0.18155    | 1.2999     |  61.5 |  4.51
Bond    | 0.0010363  | 0.22075    | 1.2139     |  64.7 |  5.49
Neigh   | 0.008653   | 0.0094114  | 0.009998   |   0.4 |  0.23
Comm    | 1.2462     | 2.9617     | 3.653      |  44.3 | 73.60
Output  | 0.0016106  | 0.0027292  | 0.0038526  |   1.4 |  0.07
Modify  | 0.12295    | 0.51672    | 2.3543     | 103.2 | 12.84
Other   |            | 0.1314     |            |       |  3.27

Nlocal:        10.0208 ave          43 max           0 min
Histogram: 21 5 12 2 0 0 2 4 1 1
Nghost:         1922.1 ave        2402 max        1330 min
Histogram: 8 0 0 0 24 0 0 0 0 16
Neighs:              0 ave           0 max           0 min
Histogram: 48 0 0 0 0 0 0 0 0 0

Total # of neighbors = 0
Ave neighs/atom = 0
Ave special neighs/atom = 15.567568
Neighbor list builds = 17
Dangerous builds = 0
fix             myat1 all ave/time 1000 10 10000 v_zave v_zdes file simulation_data/abpot/${cpt}.dat
fix             myat1 all ave/time 1000 10 10000 v_zave v_zdes file simulation_data/abpot/4.dat
run             50000
Generated 0 of 1 mixed pair_coeff terms from geometric mixing rule
Per MPI rank memory allocation (min/avg/max) = 13.32 | 13.84 | 14.98 Mbytes
   Step          Temp          E_pair         E_mol          TotEng         Press     
    210000   277.74983      365.97514      18546.839      19310.216     -221.5859     
    220000   278.83475      376.54704      18537.45       19312.951      80.502976    
    230000   319.61739      369.50138      18524.874      19351.681     -185.22445    
    240000   311.39013      363.44715      18552.749      19361.729     -344.92214    
    250000   309.79552      374.16415      18527.206      19344.622     -106.18021    
    260000   280.5217       378.88903      18535.177      19315.434      173.80462    
Loop time of 19.0974 on 48 procs for 50000 steps with 481 atoms

Performance: 11.310 ns/day, 2.122 hours/ns, 2618.160 timesteps/s, 1.259 Matom-step/s
100.0% CPU use with 48 MPI tasks x 1 OpenMP threads

MPI task timing breakdown:
Section |  min time  |  avg time  |  max time  |%varavg| %total
---------------------------------------------------------------
Pair    | 0.018067   | 0.9005     | 5.9328     | 135.1 |  4.72
Bond    | 0.0051752  | 1.1005     | 5.5732     | 142.9 |  5.76
Neigh   | 0.042349   | 0.045987   | 0.048815   |   0.8 |  0.24
Comm    | 6.2576     | 13.943     | 17.248     |  93.2 | 73.01
Output  | 0.0082707  | 0.01402    | 0.019647   |   3.2 |  0.07
Modify  | 0.62141    | 2.4332     | 10.845     | 212.0 | 12.74
Other   |            | 0.6597     |            |       |  3.45

Nlocal:        10.0208 ave          36 max           0 min
Histogram: 19 7 7 5 1 1 0 0 4 4
Nghost:        1932.35 ave        2413 max        1337 min
Histogram: 8 0 0 0 24 0 0 0 0 16
Neighs:              0 ave           0 max           0 min
Histogram: 48 0 0 0 0 0 0 0 0 0

Total # of neighbors = 0
Ave neighs/atom = 0
Ave special neighs/atom = 15.567568
Neighbor list builds = 85
Dangerous builds = 0
unfix           myat1
next            cpt
jump            SELF loop
variable        zdes equal  -15+0.60*(${cpt}-1)
variable        zdes equal  -15+0.60*(5-1)
variable        zave equal xcm(H2,z)
fix             mytth2 H2 spring tether ${k1} 2.5 2.5 ${zdes} 0
fix             mytth2 H2 spring tether 5 2.5 2.5 ${zdes} 0
fix             mytth2 H2 spring tether 5 2.5 2.5 -12.6 0
run             10000
Generated 0 of 1 mixed pair_coeff terms from geometric mixing rule
Per MPI rank memory allocation (min/avg/max) = 13.32 | 13.85 | 14.98 Mbytes
   Step          Temp          E_pair         E_mol          TotEng         Press     
    260000   280.5217       378.88903      18535.177      19315.434      173.80462    
    270000   288.97761      371.35083      18530.386      19315.203     -183.64341    
Loop time of 3.19642 on 48 procs for 10000 steps with 481 atoms

Performance: 13.515 ns/day, 1.776 hours/ns, 3128.503 timesteps/s, 1.505 Matom-step/s
100.0% CPU use with 48 MPI tasks x 1 OpenMP threads

MPI task timing breakdown:
Section |  min time  |  avg time  |  max time  |%varavg| %total
---------------------------------------------------------------
Pair    | 0.0036306  | 0.17094    | 0.77439    |  54.5 |  5.35
Bond    | 0.0010223  | 0.21329    | 1.11       |  60.9 |  6.67
Neigh   | 0.0054952  | 0.0062198  | 0.0066633  |   0.4 |  0.19
Comm    | 1.0852     | 2.3113     | 2.8585     |  35.2 | 72.31
Output  | 0.0015742  | 0.0026523  | 0.0037589  |   1.4 |  0.08
Modify  | 0.13479    | 0.36357    | 1.5629     |  74.5 | 11.37
Other   |            | 0.1284     |            |       |  4.02

Nlocal:        10.0208 ave          37 max           0 min
Histogram: 19 7 8 4 2 0 0 0 5 3
Nghost:         1930.6 ave        2413 max        1336 min
Histogram: 8 0 0 0 24 0 0 0 0 16
Neighs:              0 ave           0 max           0 min
Histogram: 48 0 0 0 0 0 0 0 0 0

Total # of neighbors = 0
Ave neighs/atom = 0
Ave special neighs/atom = 15.567568
Neighbor list builds = 14
Dangerous builds = 0
fix             myat1 all ave/time 1000 10 10000 v_zave v_zdes file simulation_data/abpot/${cpt}.dat
fix             myat1 all ave/time 1000 10 10000 v_zave v_zdes file simulation_data/abpot/5.dat
run             50000
Generated 0 of 1 mixed pair_coeff terms from geometric mixing rule
Per MPI rank memory allocation (min/avg/max) = 13.32 | 13.85 | 14.98 Mbytes
   Step          Temp          E_pair         E_mol          TotEng         Press     
    270000   288.97761      371.35083      18530.386      19315.203     -183.64341    
    280000   303.55752      379.46491      18529.74       19343.532      93.665355    
    290000   298.91047      384.47996      18549.792      19361.95       222.79974    
    300000   326.63643      362.43444      18542.346      19372.128     -339.72038    
    310000   293.60474      378.63449      18550.242      19348.963      41.470674    
    320000   291.00166      378.83475      18530.371      19325.567      211.24025    
Loop time of 15.9611 on 48 procs for 50000 steps with 481 atoms

Performance: 13.533 ns/day, 1.773 hours/ns, 3132.610 timesteps/s, 1.507 Matom-step/s
100.0% CPU use with 48 MPI tasks x 1 OpenMP threads

MPI task timing breakdown:
Section |  min time  |  avg time  |  max time  |%varavg| %total
---------------------------------------------------------------
Pair    | 0.018138   | 0.86979    | 4.0851     | 121.8 |  5.45
Bond    | 0.0051894  | 1.0774     | 5.547      | 135.8 |  6.75
Neigh   | 0.023221   | 0.026324   | 0.028271   |   0.9 |  0.16
Comm    | 5.4915     | 11.555     | 14.227     |  76.7 | 72.39
Output  | 0.0080043  | 0.013612   | 0.019178   |   3.1 |  0.09
Modify  | 0.67391    | 1.7867     | 7.3907     | 160.1 | 11.19
Other   |            | 0.6326     |            |       |  3.96

Nlocal:        10.0208 ave          44 max           0 min
Histogram: 21 7 7 5 0 1 1 3 2 1
Nghost:        1938.35 ave        2424 max        1336 min
Histogram: 8 0 0 0 24 0 0 0 0 16
Neighs:              0 ave           0 max           0 min
Histogram: 48 0 0 0 0 0 0 0 0 0

Total # of neighbors = 0
Ave neighs/atom = 0
Ave special neighs/atom = 15.567568
Neighbor list builds = 58
Dangerous builds = 0
unfix           myat1
next            cpt
jump            SELF loop
variable        zdes equal  -15+0.60*(${cpt}-1)
variable        zdes equal  -15+0.60*(6-1)
variable        zave equal xcm(H2,z)
fix             mytth2 H2 spring tether ${k1} 2.5 2.5 ${zdes} 0
fix             mytth2 H2 spring tether 5 2.5 2.5 ${zdes} 0
fix             mytth2 H2 spring tether 5 2.5 2.5 -12 0
run             10000
Generated 0 of 1 mixed pair_coeff terms from geometric mixing rule
Per MPI rank memory allocation (min/avg/max) = 13.32 | 13.85 | 14.98 Mbytes
   Step          Temp          E_pair         E_mol          TotEng         Press     
    320000   291.00166      378.83475      18530.371      19325.567      211.24025    
    330000   290.83804      372.2851       18529.736      19318.149     -77.91366     
Loop time of 3.14239 on 48 procs for 10000 steps with 481 atoms

Performance: 13.747 ns/day, 1.746 hours/ns, 3182.289 timesteps/s, 1.531 Matom-step/s
100.0% CPU use with 48 MPI tasks x 1 OpenMP threads

MPI task timing breakdown:
Section |  min time  |  avg time  |  max time  |%varavg| %total
---------------------------------------------------------------
Pair    | 0.0035943  | 0.17106    | 0.76251    |  53.9 |  5.44
Bond    | 0.0010454  | 0.21434    | 1.1372     |  60.7 |  6.82
Neigh   | 0.0076449  | 0.0087713  | 0.0094639  |   0.5 |  0.28
Comm    | 1.0428     | 2.2741     | 2.8121     |  34.0 | 72.37
Output  | 0.0016258  | 0.0027289  | 0.0038716  |   1.4 |  0.09
Modify  | 0.12559    | 0.34553    | 1.4873     |  70.1 | 11.00
Other   |            | 0.1259     |            |       |  4.01

Nlocal:        10.0208 ave          46 max           0 min
Histogram: 22 8 6 3 2 2 0 2 2 1
Nghost:        1936.12 ave        2417 max        1327 min
Histogram: 8 0 0 0 24 0 0 0 0 16
Neighs:              0 ave           0 max           0 min
Histogram: 48 0 0 0 0 0 0 0 0 0

Total # of neighbors = 0
Ave neighs/atom = 0
Ave special neighs/atom = 15.567568
Neighbor list builds = 20
Dangerous builds = 0
fix             myat1 all ave/time 1000 10 10000 v_zave v_zdes file simulation_data/abpot/${cpt}.dat
fix             myat1 all ave/time 1000 10 10000 v_zave v_zdes file simulation_data/abpot/6.dat
run             50000
Generated 0 of 1 mixed pair_coeff terms from geometric mixing rule
Per MPI rank memory allocation (min/avg/max) = 13.32 | 13.85 | 14.98 Mbytes
   Step          Temp          E_pair         E_mol          TotEng         Press     
    330000   290.83804      372.2851       18529.736      19318.149     -77.91366     
    340000   286.49271      360.80932      18538.655      19309.375     -339.21425    
    350000   303.37594      377.7504       18542.331      19354.148      40.006858    
    360000   304.38554      379.36377      18543.794      19358.669     -55.727507    
    370000   276.29416      363.1184       18547.11       19305.547     -306.3578     
    380000   294.55373      366.73714      18525.931      19314.112     -214.78548    
Loop time of 18.0796 on 48 procs for 50000 steps with 481 atoms

Performance: 11.947 ns/day, 2.009 hours/ns, 2765.541 timesteps/s, 1.330 Matom-step/s
100.0% CPU use with 48 MPI tasks x 1 OpenMP threads

MPI task timing breakdown:
Section |  min time  |  avg time  |  max time  |%varavg| %total
---------------------------------------------------------------
Pair    | 0.018127   | 0.88989    | 5.7318     | 131.2 |  4.92
Bond    | 0.00514    | 1.0895     | 5.2597     | 139.0 |  6.03
Neigh   | 0.041524   | 0.046333   | 0.049542   |   1.0 |  0.26
Comm    | 6.3051     | 13.108     | 16.204     |  87.5 | 72.50
Output  | 0.0080211  | 0.013634   | 0.019259   |   3.1 |  0.08
Modify  | 0.69488    | 2.2935     | 9.8846     | 194.5 | 12.69
Other   |            | 0.6392     |            |       |  3.54

Nlocal:        10.0208 ave          38 max           0 min
Histogram: 20 3 10 7 0 0 0 0 6 2
Nghost:        1931.85 ave        2413 max        1335 min
Histogram: 8 0 0 0 24 0 0 0 0 16
Neighs:              0 ave           0 max           0 min
Histogram: 48 0 0 0 0 0 0 0 0 0

Total # of neighbors = 0
Ave neighs/atom = 0
Ave special neighs/atom = 15.567568
Neighbor list builds = 88
Dangerous builds = 0
unfix           myat1
next            cpt
jump            SELF loop
variable        zdes equal  -15+0.60*(${cpt}-1)
variable        zdes equal  -15+0.60*(7-1)
variable        zave equal xcm(H2,z)
fix             mytth2 H2 spring tether ${k1} 2.5 2.5 ${zdes} 0
fix             mytth2 H2 spring tether 5 2.5 2.5 ${zdes} 0
fix             mytth2 H2 spring tether 5 2.5 2.5 -11.4 0
run             10000
Generated 0 of 1 mixed pair_coeff terms from geometric mixing rule
Per MPI rank memory allocation (min/avg/max) = 13.32 | 13.85 | 14.98 Mbytes
   Step          Temp          E_pair         E_mol          TotEng         Press     
    380000   294.55373      366.73714      18525.931      19314.112     -214.78548    
    390000   308.99307      375.8205       18525.959      19343.884      116.675      
Loop time of 3.40093 on 48 procs for 10000 steps with 481 atoms

Performance: 12.702 ns/day, 1.889 hours/ns, 2940.373 timesteps/s, 1.414 Matom-step/s
100.0% CPU use with 48 MPI tasks x 1 OpenMP threads

MPI task timing breakdown:
Section |  min time  |  avg time  |  max time  |%varavg| %total
---------------------------------------------------------------
Pair    | 0.0035128  | 0.1746     | 0.94552    |  56.1 |  5.13
Bond    | 0.001028   | 0.21505    | 1.0763     |  62.0 |  6.32
Neigh   | 0.0041779  | 0.004674   | 0.0050648  |   0.4 |  0.14
Comm    | 1.3652     | 2.4654     | 3.0372     |  37.3 | 72.49
Output  | 0.0015447  | 0.0026413  | 0.003775   |   1.4 |  0.08
Modify  | 0.14368    | 0.41505    | 1.7682     |  81.5 | 12.20
Other   |            | 0.1235     |            |       |  3.63

Nlocal:        10.0208 ave          42 max           0 min
Histogram: 20 7 9 4 0 0 1 3 3 1
Nghost:         1929.1 ave        2410 max        1331 min
Histogram: 8 0 0 0 24 0 0 0 0 16
Neighs:              0 ave           0 max           0 min
Histogram: 48 0 0 0 0 0 0 0 0 0

Total # of neighbors = 0
Ave neighs/atom = 0
Ave special neighs/atom = 15.567568
Neighbor list builds = 10
Dangerous builds = 0
fix             myat1 all ave/time 1000 10 10000 v_zave v_zdes file simulation_data/abpot/${cpt}.dat
fix             myat1 all ave/time 1000 10 10000 v_zave v_zdes file simulation_data/abpot/7.dat
run             50000
Generated 0 of 1 mixed pair_coeff terms from geometric mixing rule
Per MPI rank memory allocation (min/avg/max) = 13.32 | 13.85 | 14.98 Mbytes
   Step          Temp          E_pair         E_mol          TotEng         Press     
    390000   308.99307      375.8205       18525.959      19343.884      116.675      
    400000   289.31183      370.1035       18555.231      19339.279     -121.50155    
    410000   323.58459      369.18481      18582.34       19414.506     -195.32346    
    420000   294.08331      373.45466      18548.272      19342.498     -54.937254    
    430000   296.75956      364.06413      18550.326      19338.99      -355.50678    
    440000   304.40349      366.21399      18561.559      19363.31      -223.41205    
Loop time of 16.9204 on 48 procs for 50000 steps with 481 atoms

Performance: 12.766 ns/day, 1.880 hours/ns, 2955.006 timesteps/s, 1.421 Matom-step/s
100.0% CPU use with 48 MPI tasks x 1 OpenMP threads

MPI task timing breakdown:
Section |  min time  |  avg time  |  max time  |%varavg| %total
---------------------------------------------------------------
Pair    | 0.018297   | 0.87835    | 4.5754     | 124.3 |  5.19
Bond    | 0.0052136  | 1.0812     | 5.3456     | 137.5 |  6.39
Neigh   | 0.036757   | 0.041049   | 0.044385   |   1.1 |  0.24
Comm    | 6.9202     | 12.218     | 15.069     |  81.7 | 72.21
Output  | 0.0082208  | 0.01385    | 0.019408   |   3.1 |  0.08
Modify  | 0.70067    | 2.0466     | 8.6109     | 177.3 | 12.10
Other   |            | 0.6417     |            |       |  3.79

Nlocal:        10.0208 ave          50 max           0 min
Histogram: 22 8 5 5 2 1 1 2 1 1
Nghost:        1929.73 ave        2411 max        1323 min
Histogram: 8 0 0 0 24 0 0 0 0 16
Neighs:              0 ave           0 max           0 min
Histogram: 48 0 0 0 0 0 0 0 0 0

Total # of neighbors = 0
Ave neighs/atom = 0
Ave special neighs/atom = 15.567568
Neighbor list builds = 86
Dangerous builds = 0
unfix           myat1
next            cpt
jump            SELF loop
variable        zdes equal  -15+0.60*(${cpt}-1)
variable        zdes equal  -15+0.60*(8-1)
variable        zave equal xcm(H2,z)
fix             mytth2 H2 spring tether ${k1} 2.5 2.5 ${zdes} 0
fix             mytth2 H2 spring tether 5 2.5 2.5 ${zdes} 0
fix             mytth2 H2 spring tether 5 2.5 2.5 -10.8 0
run             10000
Generated 0 of 1 mixed pair_coeff terms from geometric mixing rule
Per MPI rank memory allocation (min/avg/max) = 13.32 | 13.85 | 14.98 Mbytes
   Step          Temp          E_pair         E_mol          TotEng         Press     
    440000   304.40349      366.21399      18561.559      19363.31      -223.41205    
    450000   301.13013      371.14714      18557.733      19359.734     -173.18972    
Loop time of 3.21839 on 48 procs for 10000 steps with 481 atoms

Performance: 13.423 ns/day, 1.788 hours/ns, 3107.145 timesteps/s, 1.495 Matom-step/s
100.0% CPU use with 48 MPI tasks x 1 OpenMP threads

MPI task timing breakdown:
Section |  min time  |  avg time  |  max time  |%varavg| %total
---------------------------------------------------------------
Pair    | 0.0035165  | 0.17195    | 0.76193    |  54.4 |  5.34
Bond    | 0.0010312  | 0.214      | 1.2012     |  61.4 |  6.65
Neigh   | 0.0095341  | 0.010707   | 0.011573   |   0.6 |  0.33
Comm    | 0.99861    | 2.3225     | 2.8839     |  35.6 | 72.16
Output  | 0.001682   | 0.0027832  | 0.0038989  |   1.4 |  0.09
Modify  | 0.12171    | 0.37132    | 1.5942     |  75.6 | 11.54
Other   |            | 0.1251     |            |       |  3.89

Nlocal:        10.0208 ave          49 max           0 min
Histogram: 20 8 10 2 3 1 0 1 2 1
Nghost:        1931.85 ave        2410 max        1324 min
Histogram: 8 0 0 0 24 0 0 0 0 16
Neighs:              0 ave           0 max           0 min
Histogram: 48 0 0 0 0 0 0 0 0 0

Total # of neighbors = 0
Ave neighs/atom = 0
Ave special neighs/atom = 15.567568
Neighbor list builds = 24
Dangerous builds = 0
fix             myat1 all ave/time 1000 10 10000 v_zave v_zdes file simulation_data/abpot/${cpt}.dat
fix             myat1 all ave/time 1000 10 10000 v_zave v_zdes file simulation_data/abpot/8.dat
run             50000
Generated 0 of 1 mixed pair_coeff terms from geometric mixing rule
Per MPI rank memory allocation (min/avg/max) = 13.32 | 13.85 | 14.98 Mbytes
   Step          Temp          E_pair         E_mol          TotEng         Press     
    450000   301.13013      371.14714      18557.733      19359.734     -173.18972    
    460000   304.71643      377.60802      18514.26       19327.853      20.062158    
    470000   275.13193      374.53719      18553.601      19321.794     -135.23035    
    480000   303.44356      368.92409      18530.129      19333.216     -147.99344    
    490000   304.51616      378.74632      18537.993      19352.438      196.01152    
    500000   302.42512      373.06891      18517.432      19323.207      40.21419     
Loop time of 16.2489 on 48 procs for 50000 steps with 481 atoms

Performance: 13.293 ns/day, 1.805 hours/ns, 3077.134 timesteps/s, 1.480 Matom-step/s
100.0% CPU use with 48 MPI tasks x 1 OpenMP threads

MPI task timing breakdown:
Section |  min time  |  avg time  |  max time  |%varavg| %total
---------------------------------------------------------------
Pair    | 0.01771    | 0.85975    | 3.8993     | 121.5 |  5.29
Bond    | 0.0054108  | 1.0687     | 5.7911     | 136.6 |  6.58
Neigh   | 0.04492    | 0.0504     | 0.054656   |   1.3 |  0.31
Comm    | 5.384      | 11.733     | 14.539     |  80.1 | 72.21
Output  | 0.0081706  | 0.01379    | 0.019277   |   3.1 |  0.08
Modify  | 0.61554    | 1.8947     | 8.1444     | 173.3 | 11.66
Other   |            | 0.6291     |            |       |  3.87

Nlocal:        10.0208 ave          44 max           0 min
Histogram: 21 6 9 4 0 1 1 4 1 1
Nghost:        1924.73 ave        2397 max        1329 min
Histogram: 8 0 0 0 24 0 0 0 0 16
Neighs:              0 ave           0 max           0 min
Histogram: 48 0 0 0 0 0 0 0 0 0

Total # of neighbors = 0
Ave neighs/atom = 0
Ave special neighs/atom = 15.567568
Neighbor list builds = 114
Dangerous builds = 0
unfix           myat1
next            cpt
jump            SELF loop
variable        zdes equal  -15+0.60*(${cpt}-1)
variable        zdes equal  -15+0.60*(9-1)
variable        zave equal xcm(H2,z)
fix             mytth2 H2 spring tether ${k1} 2.5 2.5 ${zdes} 0
fix             mytth2 H2 spring tether 5 2.5 2.5 ${zdes} 0
fix             mytth2 H2 spring tether 5 2.5 2.5 -10.2 0
run             10000
Generated 0 of 1 mixed pair_coeff terms from geometric mixing rule
Per MPI rank memory allocation (min/avg/max) = 13.32 | 13.85 | 14.98 Mbytes
   Step          Temp          E_pair         E_mol          TotEng         Press     
    500000   302.42512      373.06891      18517.432      19323.207      40.21419     
    510000   284.89935      375.21712      18522.55       19305.398     -41.026502    
Loop time of 3.29376 on 48 procs for 10000 steps with 481 atoms

Performance: 13.116 ns/day, 1.830 hours/ns, 3036.040 timesteps/s, 1.460 Matom-step/s
100.0% CPU use with 48 MPI tasks x 1 OpenMP threads

MPI task timing breakdown:
Section |  min time  |  avg time  |  max time  |%varavg| %total
---------------------------------------------------------------
Pair    | 0.0036054  | 0.17417    | 0.80904    |  55.4 |  5.29
Bond    | 0.0010341  | 0.21545    | 1.1077     |  62.4 |  6.54
Neigh   | 0.0065797  | 0.0074298  | 0.0080975  |   0.5 |  0.23
Comm    | 1.2172     | 2.3725     | 2.9346     |  36.8 | 72.03
Output  | 0.0016026  | 0.0027101  | 0.0038337  |   1.4 |  0.08
Modify  | 0.12927    | 0.39269    | 1.6918     |  79.0 | 11.92
Other   |            | 0.1288     |            |       |  3.91

Nlocal:        10.0208 ave          50 max           0 min
Histogram: 21 8 10 2 1 0 3 2 0 1
Nghost:        1922.85 ave        2397 max        1323 min
Histogram: 8 0 0 0 24 0 0 0 0 16
Neighs:              0 ave           0 max           0 min
Histogram: 48 0 0 0 0 0 0 0 0 0

Total # of neighbors = 0
Ave neighs/atom = 0
Ave special neighs/atom = 15.567568
Neighbor list builds = 17
Dangerous builds = 0
fix             myat1 all ave/time 1000 10 10000 v_zave v_zdes file simulation_data/abpot/${cpt}.dat
fix             myat1 all ave/time 1000 10 10000 v_zave v_zdes file simulation_data/abpot/9.dat
run             50000
Generated 0 of 1 mixed pair_coeff terms from geometric mixing rule
Per MPI rank memory allocation (min/avg/max) = 13.32 | 13.85 | 14.98 Mbytes
   Step          Temp          E_pair         E_mol          TotEng         Press     
    510000   284.89935      375.21712      18522.55       19305.398     -41.026502    
    520000   298.26316      378.30081      18540.919      19345.971     -149.66353    
    530000   303.59759      383.95516      18538.382      19356.721      129.12306    
    540000   295.39276      374.85806      18578.362      19375.865     -108.98043    
    550000   314.19284      374.27133      18530.244      19354.059     -44.828306    
    560000   297.63026      377.62008      18535.368      19338.834      13.421174    
Loop time of 16.0489 on 48 procs for 50000 steps with 481 atoms

Performance: 13.459 ns/day, 1.783 hours/ns, 3115.475 timesteps/s, 1.499 Matom-step/s
100.0% CPU use with 48 MPI tasks x 1 OpenMP threads

MPI task timing breakdown:
Section |  min time  |  avg time  |  max time  |%varavg| %total
---------------------------------------------------------------
Pair    | 0.017992   | 0.843      | 3.8668     | 123.7 |  5.25
Bond    | 0.005261   | 1.0502     | 5.5337     | 139.0 |  6.54
Neigh   | 0.046083   | 0.050918   | 0.053749   |   0.9 |  0.32
Comm    | 5.5813     | 11.511     | 14.383     |  84.1 | 71.73
Output  | 0.0078526  | 0.01327    | 0.018688   |   3.1 |  0.08
Modify  | 0.64337    | 1.9625     | 8.1638     | 179.7 | 12.23
Other   |            | 0.6178     |            |       |  3.85

Nlocal:        10.0208 ave          39 max           0 min
Histogram: 18 5 10 6 1 1 0 1 4 2
Nghost:        1931.85 ave        2417 max        1334 min
Histogram: 8 0 0 0 24 0 0 0 0 16
Neighs:              0 ave           0 max           0 min
Histogram: 48 0 0 0 0 0 0 0 0 0

Total # of neighbors = 0
Ave neighs/atom = 0
Ave special neighs/atom = 15.567568
Neighbor list builds = 114
Dangerous builds = 0
unfix           myat1
next            cpt
jump            SELF loop
variable        zdes equal  -15+0.60*(${cpt}-1)
variable        zdes equal  -15+0.60*(10-1)
variable        zave equal xcm(H2,z)
fix             mytth2 H2 spring tether ${k1} 2.5 2.5 ${zdes} 0
fix             mytth2 H2 spring tether 5 2.5 2.5 ${zdes} 0
fix             mytth2 H2 spring tether 5 2.5 2.5 -9.6 0
run             10000
Generated 0 of 1 mixed pair_coeff terms from geometric mixing rule
Per MPI rank memory allocation (min/avg/max) = 13.32 | 13.85 | 14.98 Mbytes
   Step          Temp          E_pair         E_mol          TotEng         Press     
    560000   297.63026      377.62008      18535.368      19338.834      13.421174    
    570000   291.89965      388.87207      18564.513      19371.032     -205.74307    
Loop time of 3.12341 on 48 procs for 10000 steps with 481 atoms

Performance: 13.831 ns/day, 1.735 hours/ns, 3201.631 timesteps/s, 1.540 Matom-step/s
100.0% CPU use with 48 MPI tasks x 1 OpenMP threads

MPI task timing breakdown:
Section |  min time  |  avg time  |  max time  |%varavg| %total
---------------------------------------------------------------
Pair    | 0.0035459  | 0.16686    | 0.77014    |  54.6 |  5.34
Bond    | 0.0010212  | 0.2073     | 1.0774     |  61.8 |  6.64
Neigh   | 0.011988   | 0.013096   | 0.014024   |   0.5 |  0.42
Comm    | 1.0978     | 2.2521     | 2.7987     |  36.7 | 72.10
Output  | 0.0015281  | 0.0025992  | 0.0037021  |   1.4 |  0.08
Modify  | 0.12153    | 0.36293    | 1.5601     |  79.3 | 11.62
Other   |            | 0.1185     |            |       |  3.79

Nlocal:        10.0208 ave          39 max           0 min
Histogram: 20 6 6 7 1 0 1 2 2 3
Nghost:         1930.1 ave        2408 max        1336 min
Histogram: 8 0 0 0 24 0 0 0 0 16
Neighs:              0 ave           0 max           0 min
Histogram: 48 0 0 0 0 0 0 0 0 0

Total # of neighbors = 0
Ave neighs/atom = 0
Ave special neighs/atom = 15.567568
Neighbor list builds = 31
Dangerous builds = 0
fix             myat1 all ave/time 1000 10 10000 v_zave v_zdes file simulation_data/abpot/${cpt}.dat
fix             myat1 all ave/time 1000 10 10000 v_zave v_zdes file simulation_data/abpot/10.dat
run             50000
Generated 0 of 1 mixed pair_coeff terms from geometric mixing rule
Per MPI rank memory allocation (min/avg/max) = 13.32 | 13.85 | 14.98 Mbytes
   Step          Temp          E_pair         E_mol          TotEng         Press     
    570000   291.89965      388.87207      18564.513      19371.032     -205.74307    
    580000   306.42236      395.87389      18574.111      19408.411      60.783797    
    590000   305.39636      380.10449      18556.684      19373.746      67.94437     
    600000   285.22018      374.13108      18552.374      19334.595     -50.177132    
    610000   273.06938      372.06239      18564.099      19326.866     -188.14395    
    620000   294.49489      376.75639      18548.315      19346.431     -56.381094    
Loop time of 15.907 on 48 procs for 50000 steps with 481 atoms

Performance: 13.579 ns/day, 1.767 hours/ns, 3143.268 timesteps/s, 1.512 Matom-step/s
100.0% CPU use with 48 MPI tasks x 1 OpenMP threads

MPI task timing breakdown:
Section |  min time  |  avg time  |  max time  |%varavg| %total
---------------------------------------------------------------
Pair    | 0.017779   | 0.82888    | 4.0344     | 126.6 |  5.21
Bond    | 0.0052014  | 1.0283     | 5.4531     | 139.9 |  6.46
Neigh   | 0.050524   | 0.054868   | 0.058772   |   1.2 |  0.34
Comm    | 5.7199     | 11.52      | 14.359     |  85.6 | 72.42
Output  | 0.0078456  | 0.013344   | 0.018868   |   3.1 |  0.08
Modify  | 0.57175    | 1.8818     | 8.2245     | 186.5 | 11.83
Other   |            | 0.5796     |            |       |  3.64

Nlocal:        10.0208 ave          47 max           0 min
Histogram: 21 9 8 2 2 1 1 0 3 1
Nghost:        1928.38 ave        2405 max        1326 min
Histogram: 8 0 0 0 24 0 0 0 0 16
Neighs:              0 ave           0 max           0 min
Histogram: 48 0 0 0 0 0 0 0 0 0

Total # of neighbors = 0
Ave neighs/atom = 0
Ave special neighs/atom = 15.567568
Neighbor list builds = 126
Dangerous builds = 0
unfix           myat1
next            cpt
jump            SELF loop
variable        zdes equal  -15+0.60*(${cpt}-1)
variable        zdes equal  -15+0.60*(11-1)
variable        zave equal xcm(H2,z)
fix             mytth2 H2 spring tether ${k1} 2.5 2.5 ${zdes} 0
fix             mytth2 H2 spring tether 5 2.5 2.5 ${zdes} 0
fix             mytth2 H2 spring tether 5 2.5 2.5 -9 0
run             10000
Generated 0 of 1 mixed pair_coeff terms from geometric mixing rule
Per MPI rank memory allocation (min/avg/max) = 13.32 | 13.86 | 14.98 Mbytes
   Step          Temp          E_pair         E_mol          TotEng         Press     
    620000   294.49489      376.75639      18548.315      19346.431     -56.381094    
    630000   335.35402      388.08288      18501.99       19369.894      69.715743    
Loop time of 3.50222 on 48 procs for 10000 steps with 481 atoms

Performance: 12.335 ns/day, 1.946 hours/ns, 2855.330 timesteps/s, 1.373 Matom-step/s
100.0% CPU use with 48 MPI tasks x 1 OpenMP threads

MPI task timing breakdown:
Section |  min time  |  avg time  |  max time  |%varavg| %total
---------------------------------------------------------------
Pair    | 0.0035     | 0.16836    | 1.2197     |  61.8 |  4.81
Bond    | 0.0010396  | 0.20076    | 0.91279    |  59.9 |  5.73
Neigh   | 0.010069   | 0.010828   | 0.011605   |   0.4 |  0.31
Comm    | 1.1311     | 2.5657     | 3.2057     |  42.1 | 73.26
Output  | 0.0014482  | 0.0025222  | 0.0036342  |   1.4 |  0.07
Modify  | 0.10766    | 0.43589    | 2.0258     |  97.5 | 12.45
Other   |            | 0.1182     |            |       |  3.37

Nlocal:        10.0208 ave          43 max           0 min
Histogram: 22 6 6 5 1 1 3 1 1 2
Nghost:         1923.6 ave        2400 max        1330 min
Histogram: 8 0 0 0 24 0 0 0 0 16
Neighs:              0 ave           0 max           0 min
Histogram: 48 0 0 0 0 0 0 0 0 0

Total # of neighbors = 0
Ave neighs/atom = 0
Ave special neighs/atom = 15.567568
Neighbor list builds = 22
Dangerous builds = 0
fix             myat1 all ave/time 1000 10 10000 v_zave v_zdes file simulation_data/abpot/${cpt}.dat
fix             myat1 all ave/time 1000 10 10000 v_zave v_zdes file simulation_data/abpot/11.dat
run             50000
Generated 0 of 1 mixed pair_coeff terms from geometric mixing rule
Per MPI rank memory allocation (min/avg/max) = 13.32 | 13.86 | 14.98 Mbytes
   Step          Temp          E_pair         E_mol          TotEng         Press     
    630000   335.35402      388.08288      18501.99       19369.894      69.715743    
    640000   304.77207      386.62518      18529.806      19352.496     -30.989672    
    650000   280.46928      387.95853      18545.384      19334.635      7.8595648    
    660000   298.05236      380.90362      18553.963      19361.317     -127.24694    
    670000   314.53351      376.35048      18538.875      19365.256     -15.205784    
    680000   313.7309       394.84734      18532.937      19376.667      182.62065    
Loop time of 15.352 on 48 procs for 50000 steps with 481 atoms

Performance: 14.070 ns/day, 1.706 hours/ns, 3256.905 timesteps/s, 1.567 Matom-step/s
100.0% CPU use with 48 MPI tasks x 1 OpenMP threads

MPI task timing breakdown:
Section |  min time  |  avg time  |  max time  |%varavg| %total
---------------------------------------------------------------
Pair    | 0.018269   | 0.77829    | 4.162      | 124.1 |  5.07
Bond    | 0.0052865  | 0.96394    | 4.2322     | 128.1 |  6.28
Neigh   | 0.04622    | 0.049642   | 0.052782   |   0.8 |  0.32
Comm    | 6.0016     | 11.087     | 13.854     |  82.7 | 72.22
Output  | 0.0062793  | 0.011549   | 0.016855   |   3.2 |  0.08
Modify  | 0.64337    | 1.923      | 7.8845     | 183.0 | 12.53
Other   |            | 0.5382     |            |       |  3.51

Nlocal:        10.0208 ave          45 max           0 min
Histogram: 21 6 10 3 0 1 2 3 1 1
Nghost:        1933.35 ave        2416 max        1328 min
Histogram: 8 0 0 0 24 0 0 0 0 16
Neighs:              0 ave           0 max           0 min
Histogram: 48 0 0 0 0 0 0 0 0 0

Total # of neighbors = 0
Ave neighs/atom = 0
Ave special neighs/atom = 15.567568
Neighbor list builds = 124
Dangerous builds = 0
unfix           myat1
next            cpt
jump            SELF loop
variable        zdes equal  -15+0.60*(${cpt}-1)
variable        zdes equal  -15+0.60*(12-1)
variable        zave equal xcm(H2,z)
fix             mytth2 H2 spring tether ${k1} 2.5 2.5 ${zdes} 0
fix             mytth2 H2 spring tether 5 2.5 2.5 ${zdes} 0
fix             mytth2 H2 spring tether 5 2.5 2.5 -8.4 0
run             10000
Generated 0 of 1 mixed pair_coeff terms from geometric mixing rule
Per MPI rank memory allocation (min/avg/max) = 13.32 | 13.86 | 14.98 Mbytes
   Step          Temp          E_pair         E_mol          TotEng         Press     
    680000   313.7309       394.84734      18532.937      19376.667      182.62065    
    690000   283.03289      392.18096      18541.461      19338.602     -44.991425    
Loop time of 3.03049 on 48 procs for 10000 steps with 481 atoms

Performance: 14.255 ns/day, 1.684 hours/ns, 3299.799 timesteps/s, 1.587 Matom-step/s
100.0% CPU use with 48 MPI tasks x 1 OpenMP threads

MPI task timing breakdown:
Section |  min time  |  avg time  |  max time  |%varavg| %total
---------------------------------------------------------------
Pair    | 0.0034813  | 0.1565     | 0.81569    |  55.1 |  5.16
Bond    | 0.0010464  | 0.19462    | 1.0478     |  59.3 |  6.42
Neigh   | 0.010366   | 0.011269   | 0.011993   |   0.4 |  0.37
Comm    | 1.2295     | 2.1678     | 2.7356     |  37.8 | 71.53
Output  | 0.0012936  | 0.0023092  | 0.0033706  |   1.4 |  0.08
Modify  | 0.12137    | 0.39172    | 1.6082     |  81.2 | 12.93
Other   |            | 0.1063     |            |       |  3.51

Nlocal:        10.0208 ave          49 max           0 min
Histogram: 21 8 10 1 1 1 4 1 0 1
Nghost:        1932.38 ave        2410 max        1324 min
Histogram: 8 0 0 0 24 0 0 0 0 16
Neighs:              0 ave           0 max           0 min
Histogram: 48 0 0 0 0 0 0 0 0 0

Total # of neighbors = 0
Ave neighs/atom = 0
Ave special neighs/atom = 15.567568
Neighbor list builds = 28
Dangerous builds = 0
fix             myat1 all ave/time 1000 10 10000 v_zave v_zdes file simulation_data/abpot/${cpt}.dat
fix             myat1 all ave/time 1000 10 10000 v_zave v_zdes file simulation_data/abpot/12.dat
run             50000
Generated 0 of 1 mixed pair_coeff terms from geometric mixing rule
Per MPI rank memory allocation (min/avg/max) = 13.32 | 13.86 | 14.98 Mbytes
   Step          Temp          E_pair         E_mol          TotEng         Press     
    690000   283.03289      392.18096      18541.461      19338.602     -44.991425    
    700000   291.1343       392.81108      18522.491      19331.854      45.61826     
    710000   289.72112      386.21988      18571.101      19371.851     -290.83725    
    720000   312.26671      397.06496      18545.333      19389.186      103.11071    
    730000   315.68606      385.92069      18546.387      19383.987     -121.97056    
    740000   297.89651      385.63333      18551.405      19363.266     -136.21806    
Loop time of 15.3021 on 48 procs for 50000 steps with 481 atoms

Performance: 14.116 ns/day, 1.700 hours/ns, 3267.533 timesteps/s, 1.572 Matom-step/s
100.0% CPU use with 48 MPI tasks x 1 OpenMP threads

MPI task timing breakdown:
Section |  min time  |  avg time  |  max time  |%varavg| %total
---------------------------------------------------------------
Pair    | 0.017649   | 0.77565    | 4.1206     | 124.1 |  5.07
Bond    | 0.0053075  | 0.96925    | 5.2827     | 133.5 |  6.33
Neigh   | 0.048426   | 0.051744   | 0.054183   |   0.7 |  0.34
Comm    | 5.9719     | 10.973     | 13.827     |  83.6 | 71.71
Output  | 0.0066097  | 0.011676   | 0.016831   |   3.1 |  0.08
Modify  | 0.60782    | 1.9878     | 7.8636     | 177.5 | 12.99
Other   |            | 0.5331     |            |       |  3.48

Nlocal:        10.0208 ave          40 max           0 min
Histogram: 19 7 7 5 2 0 2 2 0 4
Nghost:        1926.23 ave        2403 max        1333 min
Histogram: 8 0 0 0 24 0 0 0 0 16
Neighs:              0 ave           0 max           0 min
Histogram: 48 0 0 0 0 0 0 0 0 0

Total # of neighbors = 0
Ave neighs/atom = 0
Ave special neighs/atom = 15.567568
Neighbor list builds = 129
Dangerous builds = 0
unfix           myat1
next            cpt
jump            SELF loop
variable        zdes equal  -15+0.60*(${cpt}-1)
variable        zdes equal  -15+0.60*(13-1)
variable        zave equal xcm(H2,z)
fix             mytth2 H2 spring tether ${k1} 2.5 2.5 ${zdes} 0
fix             mytth2 H2 spring tether 5 2.5 2.5 ${zdes} 0
fix             mytth2 H2 spring tether 5 2.5 2.5 -7.8 0
run             10000
Generated 0 of 1 mixed pair_coeff terms from geometric mixing rule
Per MPI rank memory allocation (min/avg/max) = 13.32 | 13.86 | 14.98 Mbytes
   Step          Temp          E_pair         E_mol          TotEng         Press     
    740000   297.89651      385.63333      18551.405      19363.266     -136.21806    
    750000   286.42595      389.73822      18533.555      19333.108     -52.773331    
Loop time of 2.98004 on 48 procs for 10000 steps with 481 atoms

Performance: 14.496 ns/day, 1.656 hours/ns, 3355.663 timesteps/s, 1.614 Matom-step/s
100.0% CPU use with 48 MPI tasks x 1 OpenMP threads

MPI task timing breakdown:
Section |  min time  |  avg time  |  max time  |%varavg| %total
---------------------------------------------------------------
Pair    | 0.0035161  | 0.15303    | 0.84516    |  55.8 |  5.14
Bond    | 0.0010611  | 0.19169    | 1.0147     |  59.5 |  6.43
Neigh   | 0.0079637  | 0.0085236  | 0.0088868  |   0.3 |  0.29
Comm    | 1.0817     | 2.1416     | 2.6931     |  36.9 | 71.87
Output  | 0.00138    | 0.0024114  | 0.0034799  |   1.4 |  0.08
Modify  | 0.11418    | 0.37761    | 1.499      |  78.4 | 12.67
Other   |            | 0.1052     |            |       |  3.53

Nlocal:        10.0208 ave          44 max           0 min
Histogram: 21 7 9 3 1 1 1 2 1 2
Nghost:        1926.98 ave        2416 max        1335 min
Histogram: 8 0 0 0 24 0 0 0 0 16
Neighs:              0 ave           0 max           0 min
Histogram: 48 0 0 0 0 0 0 0 0 0

Total # of neighbors = 0
Ave neighs/atom = 0
Ave special neighs/atom = 15.567568
Neighbor list builds = 21
Dangerous builds = 0
fix             myat1 all ave/time 1000 10 10000 v_zave v_zdes file simulation_data/abpot/${cpt}.dat
fix             myat1 all ave/time 1000 10 10000 v_zave v_zdes file simulation_data/abpot/13.dat
run             50000
Generated 0 of 1 mixed pair_coeff terms from geometric mixing rule
Per MPI rank memory allocation (min/avg/max) = 13.32 | 13.86 | 14.98 Mbytes
   Step          Temp          E_pair         E_mol          TotEng         Press     
    750000   286.42595      389.73822      18533.555      19333.108     -52.773331    
    760000   290.45771      387.68375      18550.473      19353.741     -138.98771    
    770000   309.6472       392.01796      18537.512      19372.57       48.700781    
    780000   312.54281      396.20152      18554.321      19397.705     -48.770959    
    790000   291.24922      383.05252      18568.769      19368.538     -301.5808     
    800000   275.56721      390.8815       18569.05       19354.21      -161.58007    
Loop time of 15.0971 on 48 procs for 50000 steps with 481 atoms

Performance: 14.307 ns/day, 1.677 hours/ns, 3311.888 timesteps/s, 1.593 Matom-step/s
100.0% CPU use with 48 MPI tasks x 1 OpenMP threads

MPI task timing breakdown:
Section |  min time  |  avg time  |  max time  |%varavg| %total
---------------------------------------------------------------
Pair    | 0.017771   | 0.75997    | 4.2288     | 125.9 |  5.03
Bond    | 0.0052754  | 0.93915    | 3.909      | 128.1 |  6.22
Neigh   | 0.037771   | 0.040655   | 0.042724   |   0.6 |  0.27
Comm    | 5.6733     | 10.941     | 13.501     |  81.4 | 72.47
Output  | 0.0061125  | 0.011157   | 0.016278   |   3.2 |  0.07
Modify  | 0.63125    | 1.8827     | 7.7237     | 177.9 | 12.47
Other   |            | 0.523      |            |       |  3.46

Nlocal:        10.0208 ave          38 max           0 min
Histogram: 17 10 7 3 2 1 0 2 4 2
Nghost:           1919 ave        2388 max        1335 min
Histogram: 8 0 0 0 24 0 0 0 0 16
Neighs:              0 ave           0 max           0 min
Histogram: 48 0 0 0 0 0 0 0 0 0

Total # of neighbors = 0
Ave neighs/atom = 0
Ave special neighs/atom = 15.567568
Neighbor list builds = 102
Dangerous builds = 0
unfix           myat1
next            cpt
jump            SELF loop
variable        zdes equal  -15+0.60*(${cpt}-1)
variable        zdes equal  -15+0.60*(14-1)
variable        zave equal xcm(H2,z)
fix             mytth2 H2 spring tether ${k1} 2.5 2.5 ${zdes} 0
fix             mytth2 H2 spring tether 5 2.5 2.5 ${zdes} 0
fix             mytth2 H2 spring tether 5 2.5 2.5 -7.2 0
run             10000
Generated 0 of 1 mixed pair_coeff terms from geometric mixing rule
Per MPI rank memory allocation (min/avg/max) = 13.32 | 13.86 | 14.98 Mbytes
   Step          Temp          E_pair         E_mol          TotEng         Press     
    800000   275.56721      390.8815       18569.05       19354.21      -161.58007    
    810000   299.41223      403.36013      18508.627      19340.382      285.2677     
Loop time of 3.07539 on 48 procs for 10000 steps with 481 atoms

Performance: 14.047 ns/day, 1.709 hours/ns, 3251.621 timesteps/s, 1.564 Matom-step/s
100.0% CPU use with 48 MPI tasks x 1 OpenMP threads

MPI task timing breakdown:
Section |  min time  |  avg time  |  max time  |%varavg| %total
---------------------------------------------------------------
Pair    | 0.0034853  | 0.15228    | 0.94855    |  57.7 |  4.95
Bond    | 0.0010612  | 0.18724    | 0.88518    |  57.6 |  6.09
Neigh   | 0.0077309  | 0.0084622  | 0.0090366  |   0.3 |  0.28
Comm    | 0.99754    | 2.2264     | 2.7671     |  38.2 | 72.39
Output  | 0.0011943  | 0.0021819  | 0.0032092  |   1.4 |  0.07
Modify  | 0.12652    | 0.39327    | 1.6405     |  84.1 | 12.79
Other   |            | 0.1056     |            |       |  3.43

Nlocal:        10.0208 ave          41 max           0 min
Histogram: 22 6 7 3 2 0 2 3 0 3
Nghost:        1929.23 ave        2408 max        1332 min
Histogram: 8 0 0 0 24 0 0 0 0 16
Neighs:              0 ave           0 max           0 min
Histogram: 48 0 0 0 0 0 0 0 0 0

Total # of neighbors = 0
Ave neighs/atom = 0
Ave special neighs/atom = 15.567568
Neighbor list builds = 23
Dangerous builds = 0
fix             myat1 all ave/time 1000 10 10000 v_zave v_zdes file simulation_data/abpot/${cpt}.dat
fix             myat1 all ave/time 1000 10 10000 v_zave v_zdes file simulation_data/abpot/14.dat
run             50000
Generated 0 of 1 mixed pair_coeff terms from geometric mixing rule
Per MPI rank memory allocation (min/avg/max) = 13.32 | 13.86 | 14.98 Mbytes
   Step          Temp          E_pair         E_mol          TotEng         Press     
    810000   299.41223      403.36013      18508.627      19340.382      285.2677     
    820000   286.82799      393.78333      18519.96       19324.134     -14.612782    
    830000   317.56874      383.50066      18535.867      19373.741     -266.26166    
    840000   302.62636      388.7039       18545.167      19366.865     -284.93529    
    850000   284.66212      389.44202      18516.19       19312.924     -187.23066    
    860000   287.9864       382.18535      18550.976      19345.209     -218.31595    
Loop time of 14.6376 on 48 procs for 50000 steps with 481 atoms

Performance: 14.757 ns/day, 1.626 hours/ns, 3415.860 timesteps/s, 1.643 Matom-step/s
100.0% CPU use with 48 MPI tasks x 1 OpenMP threads

MPI task timing breakdown:
Section |  min time  |  avg time  |  max time  |%varavg| %total
---------------------------------------------------------------
Pair    | 0.017845   | 0.7527     | 4.1383     | 124.7 |  5.14
Bond    | 0.0052598  | 0.92978    | 3.8085     | 126.4 |  6.35
Neigh   | 0.042545   | 0.046238   | 0.049244   |   0.8 |  0.32
Comm    | 5.4307     | 10.558     | 13.206     |  81.3 | 72.13
Output  | 0.0058559  | 0.010916   | 0.016032   |   3.2 |  0.07
Modify  | 0.6151     | 1.8212     | 7.5732     | 176.7 | 12.44
Other   |            | 0.519      |            |       |  3.55

Nlocal:        10.0208 ave          50 max           0 min
Histogram: 21 8 7 5 0 2 2 1 1 1
Nghost:         1928.1 ave        2407 max        1323 min
Histogram: 8 0 0 0 24 0 0 0 0 16
Neighs:              0 ave           0 max           0 min
Histogram: 48 0 0 0 0 0 0 0 0 0

Total # of neighbors = 0
Ave neighs/atom = 0
Ave special neighs/atom = 15.567568
Neighbor list builds = 122
Dangerous builds = 0
unfix           myat1
next            cpt
jump            SELF loop
variable        zdes equal  -15+0.60*(${cpt}-1)
variable        zdes equal  -15+0.60*(15-1)
variable        zave equal xcm(H2,z)
fix             mytth2 H2 spring tether ${k1} 2.5 2.5 ${zdes} 0
fix             mytth2 H2 spring tether 5 2.5 2.5 ${zdes} 0
fix             mytth2 H2 spring tether 5 2.5 2.5 -6.6 0
run             10000
Generated 0 of 1 mixed pair_coeff terms from geometric mixing rule
Per MPI rank memory allocation (min/avg/max) = 13.32 | 13.86 | 14.98 Mbytes
   Step          Temp          E_pair         E_mol          TotEng         Press     
    860000   287.9864       382.18535      18550.976      19345.209     -218.31595    
    870000   308.95766      391.92544      18530.903      19364.881     -78.081042    
Loop time of 2.8916 on 48 procs for 10000 steps with 481 atoms

Performance: 14.940 ns/day, 1.606 hours/ns, 3458.289 timesteps/s, 1.663 Matom-step/s
100.0% CPU use with 48 MPI tasks x 1 OpenMP threads

MPI task timing breakdown:
Section |  min time  |  avg time  |  max time  |%varavg| %total
---------------------------------------------------------------
Pair    | 0.0035211  | 0.15008    | 0.82117    |  55.4 |  5.19
Bond    | 0.0010478  | 0.18553    | 0.77845    |  56.5 |  6.42
Neigh   | 0.01022    | 0.011125   | 0.011923   |   0.4 |  0.38
Comm    | 1.0608     | 2.0732     | 2.5845     |  35.6 | 71.70
Output  | 0.0012403  | 0.0022729  | 0.0033426  |   1.4 |  0.08
Modify  | 0.11656    | 0.36609    | 1.454      |  76.9 | 12.66
Other   |            | 0.1034     |            |       |  3.57

Nlocal:        10.0208 ave          43 max           0 min
Histogram: 22 7 5 5 1 1 2 1 2 2
Nghost:        1931.62 ave        2419 max        1333 min
Histogram: 8 0 0 0 24 0 0 0 0 16
Neighs:              0 ave           0 max           0 min
Histogram: 48 0 0 0 0 0 0 0 0 0

Total # of neighbors = 0
Ave neighs/atom = 0
Ave special neighs/atom = 15.567568
Neighbor list builds = 30
Dangerous builds = 0
fix             myat1 all ave/time 1000 10 10000 v_zave v_zdes file simulation_data/abpot/${cpt}.dat
fix             myat1 all ave/time 1000 10 10000 v_zave v_zdes file simulation_data/abpot/15.dat
run             50000
Generated 0 of 1 mixed pair_coeff terms from geometric mixing rule
Per MPI rank memory allocation (min/avg/max) = 13.32 | 13.86 | 14.98 Mbytes
   Step          Temp          E_pair         E_mol          TotEng         Press     
    870000   308.95766      391.92544      18530.903      19364.881     -78.081042    
    880000   314.38652      386.74591      18546.092      19382.659     -126.57191    
    890000   302.15279      391.97815      18547.231      19371.526     -51.140292    
    900000   283.78083      386.02601      18542.948      19335.004     -187.83491    
    910000   296.11331      394.82261      18553.554      19372.052      6.8731817    
    920000   307.78818      382.76701      18557.483      19380.63      -210.22178    
Loop time of 14.5576 on 48 procs for 50000 steps with 481 atoms

Performance: 14.838 ns/day, 1.618 hours/ns, 3434.640 timesteps/s, 1.652 Matom-step/s
100.0% CPU use with 48 MPI tasks x 1 OpenMP threads

MPI task timing breakdown:
Section |  min time  |  avg time  |  max time  |%varavg| %total
---------------------------------------------------------------
Pair    | 0.017407   | 0.74904    | 4.1049     | 124.4 |  5.15
Bond    | 0.0052607  | 0.92579    | 3.8595     | 125.9 |  6.36
Neigh   | 0.058127   | 0.063342   | 0.067452   |   0.9 |  0.44
Comm    | 5.5369     | 10.528     | 13.184     |  80.3 | 72.32
Output  | 0.0056349  | 0.010594   | 0.015635   |   3.2 |  0.07
Modify  | 0.59122    | 1.7678     | 7.2454     | 176.0 | 12.14
Other   |            | 0.5126     |            |       |  3.52

Nlocal:        10.0208 ave          44 max           0 min
Histogram: 21 5 11 3 0 1 1 5 0 1
Nghost:        1930.85 ave        2410 max        1329 min
Histogram: 8 0 0 0 24 0 0 0 0 16
Neighs:              0 ave           0 max           0 min
Histogram: 48 0 0 0 0 0 0 0 0 0

Total # of neighbors = 0
Ave neighs/atom = 0
Ave special neighs/atom = 15.567568
Neighbor list builds = 172
Dangerous builds = 0
unfix           myat1
next            cpt
jump            SELF loop
variable        zdes equal  -15+0.60*(${cpt}-1)
variable        zdes equal  -15+0.60*(16-1)
variable        zave equal xcm(H2,z)
fix             mytth2 H2 spring tether ${k1} 2.5 2.5 ${zdes} 0
fix             mytth2 H2 spring tether 5 2.5 2.5 ${zdes} 0
fix             mytth2 H2 spring tether 5 2.5 2.5 -6 0
run             10000
Generated 0 of 1 mixed pair_coeff terms from geometric mixing rule
Per MPI rank memory allocation (min/avg/max) = 13.32 | 13.86 | 14.98 Mbytes
   Step          Temp          E_pair         E_mol          TotEng         Press     
    920000   307.78818      382.76701      18557.483      19380.63      -210.22178    
    930000   307.02787      393.57693      18567.86       19400.729     -29.51821     
Loop time of 2.91405 on 48 procs for 10000 steps with 481 atoms

Performance: 14.825 ns/day, 1.619 hours/ns, 3431.646 timesteps/s, 1.651 Matom-step/s
100.0% CPU use with 48 MPI tasks x 1 OpenMP threads

MPI task timing breakdown:
Section |  min time  |  avg time  |  max time  |%varavg| %total
---------------------------------------------------------------
Pair    | 0.0034235  | 0.1509     | 0.83182    |  56.0 |  5.18
Bond    | 0.00105    | 0.18614    | 0.77352    |  56.6 |  6.39
Neigh   | 0.014293   | 0.015591   | 0.01671    |   0.5 |  0.54
Comm    | 1.0835     | 2.0961     | 2.6319     |  35.8 | 71.93
Output  | 0.0011304  | 0.0021309  | 0.0031726  |   1.4 |  0.07
Modify  | 0.11525    | 0.36015    | 1.4444     |  77.6 | 12.36
Other   |            | 0.103      |            |       |  3.54

Nlocal:        10.0208 ave          46 max           0 min
Histogram: 20 10 6 5 0 2 0 3 0 2
Nghost:        1933.85 ave        2416 max        1327 min
Histogram: 8 0 0 0 24 0 0 0 0 16
Neighs:              0 ave           0 max           0 min
Histogram: 48 0 0 0 0 0 0 0 0 0

Total # of neighbors = 0
Ave neighs/atom = 0
Ave special neighs/atom = 15.567568
Neighbor list builds = 42
Dangerous builds = 0
fix             myat1 all ave/time 1000 10 10000 v_zave v_zdes file simulation_data/abpot/${cpt}.dat
fix             myat1 all ave/time 1000 10 10000 v_zave v_zdes file simulation_data/abpot/16.dat
run             50000
Generated 0 of 1 mixed pair_coeff terms from geometric mixing rule
Per MPI rank memory allocation (min/avg/max) = 13.32 | 13.86 | 14.98 Mbytes
   Step          Temp          E_pair         E_mol          TotEng         Press     
    930000   307.02787      393.57693      18567.86       19400.729     -29.51821     
    940000   310.62182      392.25346      18549.144      19385.831      12.844777    
    950000   289.1412       391.06476      18556.925      19361.69      -91.520641    
    960000   313.77525      387.57261      18522.912      19359.43       2.1707158    
    970000   310.11579      384.31622      18552.482      19380.509     -255.23463    
    980000   299.79323      392.71446      18562.842      19384.498     -53.17256     
Loop time of 14.9417 on 48 procs for 50000 steps with 481 atoms

Performance: 14.456 ns/day, 1.660 hours/ns, 3346.349 timesteps/s, 1.610 Matom-step/s
100.0% CPU use with 48 MPI tasks x 1 OpenMP threads

MPI task timing breakdown:
Section |  min time  |  avg time  |  max time  |%varavg| %total
---------------------------------------------------------------
Pair    | 0.017453   | 0.75222    | 4.0941     | 124.6 |  5.03
Bond    | 0.0052468  | 0.9284     | 4.0996     | 126.5 |  6.21
Neigh   | 0.071098   | 0.077481   | 0.083007   |   1.0 |  0.52
Comm    | 5.894      | 10.816     | 13.509     |  82.5 | 72.39
Output  | 0.0057241  | 0.010673   | 0.015699   |   3.2 |  0.07
Modify  | 0.55991    | 1.8417     | 7.7262     | 183.9 | 12.33
Other   |            | 0.5151     |            |       |  3.45

Nlocal:        10.0208 ave          40 max           0 min
Histogram: 22 3 7 6 2 0 1 2 2 3
Nghost:        1934.23 ave        2416 max        1333 min
Histogram: 8 0 0 0 24 0 0 0 0 16
Neighs:              0 ave           0 max           0 min
Histogram: 48 0 0 0 0 0 0 0 0 0

Total # of neighbors = 0
Ave neighs/atom = 0
Ave special neighs/atom = 15.567568
Neighbor list builds = 203
Dangerous builds = 0
unfix           myat1
next            cpt
jump            SELF loop
variable        zdes equal  -15+0.60*(${cpt}-1)
variable        zdes equal  -15+0.60*(17-1)
variable        zave equal xcm(H2,z)
fix             mytth2 H2 spring tether ${k1} 2.5 2.5 ${zdes} 0
fix             mytth2 H2 spring tether 5 2.5 2.5 ${zdes} 0
fix             mytth2 H2 spring tether 5 2.5 2.5 -5.4 0
run             10000
Generated 0 of 1 mixed pair_coeff terms from geometric mixing rule
Per MPI rank memory allocation (min/avg/max) = 13.32 | 13.86 | 14.98 Mbytes
   Step          Temp          E_pair         E_mol          TotEng         Press     
    980000   299.79323      392.71446      18562.842      19384.498     -53.17256     
    990000   308.10038      392.18997      18543.166      19376.183     -72.9347      
Loop time of 2.96794 on 48 procs for 10000 steps with 481 atoms

Performance: 14.556 ns/day, 1.649 hours/ns, 3369.337 timesteps/s, 1.621 Matom-step/s
100.0% CPU use with 48 MPI tasks x 1 OpenMP threads

MPI task timing breakdown:
Section |  min time  |  avg time  |  max time  |%varavg| %total
---------------------------------------------------------------
Pair    | 0.0034225  | 0.14926    | 0.82498    |  55.3 |  5.03
Bond    | 0.0010492  | 0.18423    | 0.81598    |  56.3 |  6.21
Neigh   | 0.016046   | 0.017717   | 0.019152   |   0.6 |  0.60
Comm    | 1.1284     | 2.1504     | 2.6934     |  36.6 | 72.45
Output  | 0.0011466  | 0.0021467  | 0.0031891  |   1.4 |  0.07
Modify  | 0.11317    | 0.36154    | 1.5291     |  81.7 | 12.18
Other   |            | 0.1027     |            |       |  3.46

Nlocal:        10.0208 ave          43 max           0 min
Histogram: 22 5 9 4 0 1 1 3 2 1
Nghost:        1927.98 ave        2408 max        1331 min
Histogram: 8 0 0 0 24 0 0 0 0 16
Neighs:              0 ave           0 max           0 min
Histogram: 48 0 0 0 0 0 0 0 0 0

Total # of neighbors = 0
Ave neighs/atom = 0
Ave special neighs/atom = 15.567568
Neighbor list builds = 48
Dangerous builds = 0
[...]

MPI task timing breakdown:
Section |  min time  |  avg time  |  max time  |%varavg| %total
---------------------------------------------------------------
Pair    | 0.0038355  | 0.16241    | 0.84291    |  54.1 |  5.19
Bond    | 0.0010528  | 0.20038    | 0.84788    |  56.9 |  6.40
Neigh   | 0.0074096  | 0.0082084  | 0.0088381  |   0.4 |  0.26
Comm    | 1.2577     | 2.2488     | 2.7837     |  33.1 | 71.80
Output  | 0.0012854  | 0.0023987  | 0.0035689  |   1.5 |  0.08
Modify  | 0.12074    | 0.39619    | 1.4348     |  68.4 | 12.65
Other   |            | 0.1138     |            |       |  3.63

Nlocal:        10.0208 ave          41 max           0 min
Histogram: 22 3 10 5 0 0 1 3 1 3
Nghost:        1926.98 ave        2403 max        1332 min
Histogram: 8 0 0 0 24 0 0 0 0 16
Neighs:              0 ave           0 max           0 min
Histogram: 48 0 0 0 0 0 0 0 0 0

Total # of neighbors = 0
Ave neighs/atom = 0
Ave special neighs/atom = 15.567568
Neighbor list builds = 20
Dangerous builds = 0
fix             myat1 all ave/time 1000 10 10000 v_zave v_zdes file simulation_data/abpot/${cpt}.dat
fix             myat1 all ave/time 1000 10 10000 v_zave v_zdes file simulation_data/abpot/47.dat
run             50000
Generated 0 of 1 mixed pair_coeff terms from geometric mixing rule
Per MPI rank memory allocation (min/avg/max) = 13.32 | 13.87 | 14.98 Mbytes
   Step          Temp          E_pair         E_mol          TotEng         Press     
   2790000   298.17133      374.82212      18497.421      19298.863     -43.355709    
   2800000   306.11231      379.587        18504.281      19321.85       211.20072    
   2810000   305.17107      369.05344      18538.778      19344.467     -192.36571    
   2820000   297.98119      378.19676      18516.825      19321.37       122.92736    
   2830000   292.91838      370.21263      18492.275      19281.592      0.52971821   
   2840000   313.30287      356.84779      18527.434      19332.552     -401.53466    
Loop time of 15.619 on 48 procs for 50000 steps with 481 atoms

Performance: 13.829 ns/day, 1.735 hours/ns, 3201.229 timesteps/s, 1.540 Matom-step/s
100.0% CPU use with 48 MPI tasks x 1 OpenMP threads

MPI task timing breakdown:
Section |  min time  |  avg time  |  max time  |%varavg| %total
---------------------------------------------------------------
Pair    | 0.01888    | 0.79038    | 4.1456     | 120.6 |  5.06
Bond    | 0.0052418  | 0.97906    | 3.9945     | 125.2 |  6.27
Neigh   | 0.029945   | 0.032811   | 0.035685   |   0.9 |  0.21
Comm    | 6.5896     | 11.376     | 13.919     |  72.8 | 72.84
Output  | 0.0063194  | 0.011883   | 0.017474   |   3.4 |  0.08
Modify  | 0.61457    | 1.8399     | 7.2726     | 157.7 | 11.78
Other   |            | 0.5885     |            |       |  3.77

Nlocal:        10.0208 ave          48 max           0 min
Histogram: 21 8 10 1 1 3 0 2 0 2
Nghost:        1921.85 ave        2395 max        1325 min
Histogram: 8 0 0 0 24 0 0 0 0 16
Neighs:              0 ave           0 max           0 min
Histogram: 48 0 0 0 0 0 0 0 0 0

Total # of neighbors = 0
Ave neighs/atom = 0
Ave special neighs/atom = 15.567568
Neighbor list builds = 82
Dangerous builds = 0
unfix           myat1
next            cpt
jump            SELF loop
variable        zdes equal  -15+0.60*(${cpt}-1)
variable        zdes equal  -15+0.60*(48-1)
variable        zave equal xcm(H2,z)
fix             mytth2 H2 spring tether ${k1} 2.5 2.5 ${zdes} 0
fix             mytth2 H2 spring tether 5 2.5 2.5 ${zdes} 0
fix             mytth2 H2 spring tether 5 2.5 2.5 13.2 0
run             10000
Generated 0 of 1 mixed pair_coeff terms from geometric mixing rule
Per MPI rank memory allocation (min/avg/max) = 13.32 | 13.87 | 14.98 Mbytes
   Step          Temp          E_pair         E_mol          TotEng         Press     
   2840000   313.30287      356.84779      18527.434      19332.552     -401.53466    
   2850000   309.98427      369.96828      18527.323      19340.813      35.799749    
Loop time of 3.16249 on 48 procs for 10000 steps with 481 atoms

Performance: 13.660 ns/day, 1.757 hours/ns, 3162.070 timesteps/s, 1.521 Matom-step/s
100.0% CPU use with 48 MPI tasks x 1 OpenMP threads

MPI task timing breakdown:
Section |  min time  |  avg time  |  max time  |%varavg| %total
---------------------------------------------------------------
Pair    | 0.003718   | 0.15951    | 0.82685    |  53.3 |  5.04
Bond    | 0.001056   | 0.19696    | 0.81316    |  55.7 |  6.23
Neigh   | 0.0043186  | 0.0046976  | 0.0051605  |   0.3 |  0.15
Comm    | 1.3479     | 2.3146     | 2.8436     |  32.7 | 73.19
Output  | 0.0012033  | 0.0022815  | 0.0034002  |   1.5 |  0.07
Modify  | 0.12455    | 0.36568    | 1.4889     |  72.7 | 11.56
Other   |            | 0.1188     |            |       |  3.76

Nlocal:        10.0208 ave          43 max           0 min
Histogram: 20 7 7 6 1 0 2 1 2 2
Nghost:         1928.6 ave        2411 max        1330 min
Histogram: 8 0 0 0 24 0 0 0 0 16
Neighs:              0 ave           0 max           0 min
Histogram: 48 0 0 0 0 0 0 0 0 0

Total # of neighbors = 0
Ave neighs/atom = 0
Ave special neighs/atom = 15.567568
Neighbor list builds = 12
Dangerous builds = 0
fix             myat1 all ave/time 1000 10 10000 v_zave v_zdes file simulation_data/abpot/${cpt}.dat
fix             myat1 all ave/time 1000 10 10000 v_zave v_zdes file simulation_data/abpot/48.dat
run             50000
Generated 0 of 1 mixed pair_coeff terms from geometric mixing rule
Per MPI rank memory allocation (min/avg/max) = 13.32 | 13.87 | 14.98 Mbytes
   Step          Temp          E_pair         E_mol          TotEng         Press     
   2850000   309.98427      369.96828      18527.323      19340.813      35.799749    
   2860000   297.95633      376.60539      18540.246      19343.164      165.68394    
   2870000   293.66858      356.5934       18531.826      19308.597     -423.39646    
   2880000   309.89039      378.78309      18502.497      19324.668      178.59534    
   2890000   311.66824      373.42638      18522.031      19341.389     -0.12263538   
   2900000   286.86         370.21482      18532.03       19312.681     -134.76812    
Loop time of 15.6442 on 48 procs for 50000 steps with 481 atoms

Performance: 13.807 ns/day, 1.738 hours/ns, 3196.075 timesteps/s, 1.537 Matom-step/s
100.0% CPU use with 48 MPI tasks x 1 OpenMP threads

MPI task timing breakdown:
Section |  min time  |  avg time  |  max time  |%varavg| %total
---------------------------------------------------------------
Pair    | 0.018947   | 0.78359    | 4.1067     | 118.6 |  5.01
Bond    | 0.0052756  | 0.97472    | 4.0009     | 123.8 |  6.23
Neigh   | 0.024135   | 0.026373   | 0.029285   |   0.9 |  0.17
Comm    | 6.6419     | 11.454     | 13.956     |  72.0 | 73.21
Output  | 0.0062789  | 0.011705   | 0.017192   |   3.3 |  0.07
Modify  | 0.60946    | 1.801      | 7.2526     | 161.6 | 11.51
Other   |            | 0.5932     |            |       |  3.79

Nlocal:        10.0208 ave          44 max           0 min
Histogram: 22 8 4 5 1 2 2 0 2 2
Nghost:        1925.23 ave        2403 max        1334 min
Histogram: 8 0 0 0 24 0 0 0 0 16
Neighs:              0 ave           0 max           0 min
Histogram: 48 0 0 0 0 0 0 0 0 0

Total # of neighbors = 0
Ave neighs/atom = 0
Ave special neighs/atom = 15.567568
Neighbor list builds = 68
Dangerous builds = 0
unfix           myat1
next            cpt
jump            SELF loop
variable        zdes equal  -15+0.60*(${cpt}-1)
variable        zdes equal  -15+0.60*(49-1)
variable        zave equal xcm(H2,z)
fix             mytth2 H2 spring tether ${k1} 2.5 2.5 ${zdes} 0
fix             mytth2 H2 spring tether 5 2.5 2.5 ${zdes} 0
fix             mytth2 H2 spring tether 5 2.5 2.5 13.8 0
run             10000
Generated 0 of 1 mixed pair_coeff terms from geometric mixing rule
Per MPI rank memory allocation (min/avg/max) = 13.32 | 13.87 | 14.98 Mbytes
   Step          Temp          E_pair         E_mol          TotEng         Press     
   2900000   286.86         370.21482      18532.03       19312.681     -134.76812    
   2910000   289.62911      377.92759      18528.865      19321.191      52.00526     
Loop time of 3.14177 on 48 procs for 10000 steps with 481 atoms

Performance: 13.750 ns/day, 1.745 hours/ns, 3182.915 timesteps/s, 1.531 Matom-step/s
100.0% CPU use with 48 MPI tasks x 1 OpenMP threads

MPI task timing breakdown:
Section |  min time  |  avg time  |  max time  |%varavg| %total
---------------------------------------------------------------
Pair    | 0.0036856  | 0.15518    | 0.80373    |  52.3 |  4.94
Bond    | 0.0010461  | 0.19391    | 0.77955    |  55.0 |  6.17
Neigh   | 0.0056301  | 0.0061697  | 0.0068508  |   0.4 |  0.20
Comm    | 1.3304     | 2.3088     | 2.8136     |  32.2 | 73.49
Output  | 0.001184   | 0.0022634  | 0.0033874  |   1.5 |  0.07
Modify  | 0.11914    | 0.35902    | 1.4884     |  74.1 | 11.43
Other   |            | 0.1164     |            |       |  3.70

Nlocal:        10.0208 ave          43 max           0 min
Histogram: 20 11 2 6 2 0 2 2 1 2
Nghost:        1933.73 ave        2413 max        1333 min
Histogram: 8 0 0 0 24 0 0 0 0 16
Neighs:              0 ave           0 max           0 min
Histogram: 48 0 0 0 0 0 0 0 0 0

Total # of neighbors = 0
Ave neighs/atom = 0
Ave special neighs/atom = 15.567568
Neighbor list builds = 16
Dangerous builds = 0
fix             myat1 all ave/time 1000 10 10000 v_zave v_zdes file simulation_data/abpot/${cpt}.dat
fix             myat1 all ave/time 1000 10 10000 v_zave v_zdes file simulation_data/abpot/49.dat
run             50000
Generated 0 of 1 mixed pair_coeff terms from geometric mixing rule
Per MPI rank memory allocation (min/avg/max) = 13.32 | 13.87 | 14.98 Mbytes
   Step          Temp          E_pair         E_mol          TotEng         Press     
   2910000   289.62911      377.92759      18528.865      19321.191      52.00526     
   2920000   301.69808      379.62732      18542.297      19353.591      133.9729     
   2930000   330.31964      361.72948      18526.5        19360.847     -194.50846    
   2940000   294.55928      369.00368      18542.938      19333.394     -146.72947    
   2950000   287.15192      375.49327      18537.691      19324.038      153.98164    
   2960000   295.16271      372.42816      18506.712      19301.456     -32.939948    
Loop time of 15.6199 on 48 procs for 50000 steps with 481 atoms

Performance: 13.829 ns/day, 1.736 hours/ns, 3201.051 timesteps/s, 1.540 Matom-step/s
100.0% CPU use with 48 MPI tasks x 1 OpenMP threads

MPI task timing breakdown:
Section |  min time  |  avg time  |  max time  |%varavg| %total
---------------------------------------------------------------
Pair    | 0.019103   | 0.7735     | 4.2368     | 120.0 |  4.95
Bond    | 0.0052711  | 0.96053    | 3.9118     | 124.4 |  6.15
Neigh   | 0.026727   | 0.029376   | 0.032332   |   0.9 |  0.19
Comm    | 6.6853     | 11.408     | 13.976     |  76.2 | 73.04
Output  | 0.0061717  | 0.011504   | 0.016854   |   3.3 |  0.07
Modify  | 0.60273    | 1.8561     | 7.8913     | 172.5 | 11.88
Other   |            | 0.5805     |            |       |  3.72

Nlocal:        10.0208 ave          40 max           0 min
Histogram: 19 8 5 6 2 0 3 0 2 3
Nghost:        1931.98 ave        2413 max        1334 min
Histogram: 8 0 0 0 24 0 0 0 0 16
Neighs:              0 ave           0 max           0 min
Histogram: 48 0 0 0 0 0 0 0 0 0

Total # of neighbors = 0
Ave neighs/atom = 0
Ave special neighs/atom = 15.567568
Neighbor list builds = 75
Dangerous builds = 0
unfix           myat1
next            cpt
jump            SELF loop
variable        zdes equal  -15+0.60*(${cpt}-1)
variable        zdes equal  -15+0.60*(50-1)
variable        zave equal xcm(H2,z)
fix             mytth2 H2 spring tether ${k1} 2.5 2.5 ${zdes} 0
fix             mytth2 H2 spring tether 5 2.5 2.5 ${zdes} 0
fix             mytth2 H2 spring tether 5 2.5 2.5 14.4 0
run             10000
Generated 0 of 1 mixed pair_coeff terms from geometric mixing rule
Per MPI rank memory allocation (min/avg/max) = 13.32 | 13.87 | 14.98 Mbytes
   Step          Temp          E_pair         E_mol          TotEng         Press     
   2960000   295.16271      372.42816      18506.712      19301.456     -32.939948    
   2970000   315.41583      374.33297      18526.163      19351.789      116.88137    
Loop time of 3.06343 on 48 procs for 10000 steps with 481 atoms

Performance: 14.102 ns/day, 1.702 hours/ns, 3264.318 timesteps/s, 1.570 Matom-step/s
100.0% CPU use with 48 MPI tasks x 1 OpenMP threads

MPI task timing breakdown:
Section |  min time  |  avg time  |  max time  |%varavg| %total
---------------------------------------------------------------
Pair    | 0.0038262  | 0.1538     | 0.81305    |  52.8 |  5.02
Bond    | 0.0010519  | 0.1912     | 0.86285    |  56.5 |  6.24
Neigh   | 0.0049552  | 0.0054777  | 0.0059703  |   0.3 |  0.18
Comm    | 1.1802     | 2.241      | 2.7387     |  32.6 | 73.15
Output  | 0.0011263  | 0.0021657  | 0.003237   |   1.5 |  0.07
Modify  | 0.11581    | 0.35488    | 1.4881     |  72.9 | 11.58
Other   |            | 0.1149     |            |       |  3.75

Nlocal:        10.0208 ave          35 max           0 min
Histogram: 20 3 9 6 1 1 0 0 0 8
Nghost:        1927.48 ave        2404 max        1338 min
Histogram: 8 0 0 0 24 0 0 0 0 16
Neighs:              0 ave           0 max           0 min
Histogram: 48 0 0 0 0 0 0 0 0 0

Total # of neighbors = 0
Ave neighs/atom = 0
Ave special neighs/atom = 15.567568
Neighbor list builds = 14
Dangerous builds = 0
fix             myat1 all ave/time 1000 10 10000 v_zave v_zdes file simulation_data/abpot/${cpt}.dat
fix             myat1 all ave/time 1000 10 10000 v_zave v_zdes file simulation_data/abpot/50.dat
run             50000
Generated 0 of 1 mixed pair_coeff terms from geometric mixing rule
Per MPI rank memory allocation (min/avg/max) = 13.32 | 13.87 | 14.98 Mbytes
   Step          Temp          E_pair         E_mol          TotEng         Press     
   2970000   315.41583      374.33297      18526.163      19351.789      116.88137    
   2980000   311.27343      374.87724      18542.176      19362.42       102.64726    
   2990000   296.12985      367.22308      18557.997      19348.92      -165.15947    
   3000000   298.31528      369.00178      18528.662      19324.49       35.332656    
   3010000   276.69253      370.12876      18536.444      19302.462     -71.921666    
   3020000   299.0627       362.9231       18484.011      19274.83      -94.597431    
Loop time of 14.9622 on 48 procs for 50000 steps with 481 atoms

Performance: 14.436 ns/day, 1.662 hours/ns, 3341.757 timesteps/s, 1.607 Matom-step/s
100.0% CPU use with 48 MPI tasks x 1 OpenMP threads

MPI task timing breakdown:
Section |  min time  |  avg time  |  max time  |%varavg| %total
---------------------------------------------------------------
Pair    | 0.018801   | 0.76504    | 4.0619     | 119.9 |  5.11
Bond    | 0.0054651  | 0.9551     | 4.261      | 125.9 |  6.38
Neigh   | 0.019989   | 0.021568   | 0.023332   |   0.6 |  0.14
Comm    | 6.2406     | 10.834     | 13.297     |  74.3 | 72.41
Output  | 0.0061557  | 0.012067   | 0.018145   |   3.7 |  0.08
Modify  | 0.6121     | 1.7975     | 7.4547     | 160.9 | 12.01
Other   |            | 0.5768     |            |       |  3.86

Nlocal:        10.0208 ave          41 max           0 min
Histogram: 21 7 7 3 2 1 1 0 4 2
Nghost:        1931.98 ave        2419 max        1336 min
Histogram: 8 0 0 0 24 0 0 0 0 16
Neighs:              0 ave           0 max           0 min
Histogram: 48 0 0 0 0 0 0 0 0 0

Total # of neighbors = 0
Ave neighs/atom = 0
Ave special neighs/atom = 15.567568
Neighbor list builds = 55
Dangerous builds = 0
unfix           myat1
next            cpt
jump            SELF loop
variable        zdes equal  -15+0.60*(${cpt}-1)
variable        zdes equal  -15+0.60*(51-1)
variable        zave equal xcm(H2,z)
fix             mytth2 H2 spring tether ${k1} 2.5 2.5 ${zdes} 0
fix             mytth2 H2 spring tether 5 2.5 2.5 ${zdes} 0
fix             mytth2 H2 spring tether 5 2.5 2.5 15 0
run             10000
Generated 0 of 1 mixed pair_coeff terms from geometric mixing rule
Per MPI rank memory allocation (min/avg/max) = 13.32 | 13.87 | 14.98 Mbytes
   Step          Temp          E_pair         E_mol          TotEng         Press     
   3020000   299.0627       362.9231       18484.011      19274.83      -94.597431    
   3030000   330.95599      362.39107      18515.507      19351.427     -183.67496    
Loop time of 2.96434 on 48 procs for 10000 steps with 481 atoms

Performance: 14.573 ns/day, 1.647 hours/ns, 3373.430 timesteps/s, 1.623 Matom-step/s
100.0% CPU use with 48 MPI tasks x 1 OpenMP threads

MPI task timing breakdown:
Section |  min time  |  avg time  |  max time  |%varavg| %total
---------------------------------------------------------------
Pair    | 0.0034406  | 0.14984    | 0.79314    |  53.6 |  5.05
Bond    | 0.0010698  | 0.18767    | 0.8628     |  56.9 |  6.33
Neigh   | 0.0039482  | 0.0043152  | 0.0047141  |   0.3 |  0.15
Comm    | 1.0751     | 2.17       | 2.6615     |  33.2 | 73.20
Output  | 0.0011498  | 0.0021749  | 0.0032294  |   1.4 |  0.07
Modify  | 0.11148    | 0.33574    | 1.4675     |  72.8 | 11.33
Other   |            | 0.1146     |            |       |  3.87

Nlocal:        10.0208 ave          46 max           0 min
Histogram: 20 10 7 3 1 0 2 4 0 1
Nghost:        1929.48 ave        2408 max        1339 min
Histogram: 8 0 0 0 24 0 0 0 0 16
Neighs:              0 ave           0 max           0 min
Histogram: 48 0 0 0 0 0 0 0 0 0

Total # of neighbors = 0
Ave neighs/atom = 0
Ave special neighs/atom = 15.567568
Neighbor list builds = 12
Dangerous builds = 0
fix             myat1 all ave/time 1000 10 10000 v_zave v_zdes file simulation_data/abpot/${cpt}.dat
fix             myat1 all ave/time 1000 10 10000 v_zave v_zdes file simulation_data/abpot/51.dat
run             50000
Generated 0 of 1 mixed pair_coeff terms from geometric mixing rule
Per MPI rank memory allocation (min/avg/max) = 13.32 | 13.87 | 14.98 Mbytes
   Step          Temp          E_pair         E_mol          TotEng         Press     
   3030000   330.95599      362.39107      18515.507      19351.427     -183.67496    
   3040000   313.79408      369.79562      18512.199      19330.968     -14.679236    
   3050000   289.7526       368.57412      18524.272      19307.421     -118.99876    
   3060000   292.06176      363.08163      18533.023      19313.984     -238.48584    
   3070000   297.0574       378.89964      18532.453      19336.379      155.78486    
   3080000   313.35122      373.70004      18540.88       19362.919      5.7991377    
Loop time of 14.877 on 48 procs for 50000 steps with 481 atoms

Performance: 14.519 ns/day, 1.653 hours/ns, 3360.881 timesteps/s, 1.617 Matom-step/s
100.0% CPU use with 48 MPI tasks x 1 OpenMP threads

MPI task timing breakdown:
Section |  min time  |  avg time  |  max time  |%varavg| %total
---------------------------------------------------------------
Pair    | 0.017475   | 0.74292    | 4.0243     | 119.9 |  4.99
Bond    | 0.0056696  | 0.93077    | 4.2696     | 126.4 |  6.26
Neigh   | 0.022424   | 0.024216   | 0.026247   |   0.7 |  0.16
Comm    | 6.2813     | 10.851     | 13.495     |  77.8 | 72.94
Output  | 0.0057605  | 0.010889   | 0.016189   |   3.2 |  0.07
Modify  | 0.53822    | 1.7786     | 7.6642     | 174.3 | 11.96
Other   |            | 0.5382     |            |       |  3.62

Nlocal:        10.0208 ave          41 max           0 min
Histogram: 22 6 6 5 1 1 2 0 2 3
Nghost:        1932.73 ave        2412 max        1332 min
Histogram: 8 0 0 0 24 0 0 0 0 16
Neighs:              0 ave           0 max           0 min
Histogram: 48 0 0 0 0 0 0 0 0 0

Total # of neighbors = 0
Ave neighs/atom = 0
Ave special neighs/atom = 15.567568
Neighbor list builds = 64
Dangerous builds = 0
unfix           myat1
next            cpt
jump            SELF loop

Total wall time: 0:17:02
