# --- log file ---

variable pre equal 112 # desired pressure (Atm)
variable tem equal 300 # desired temperature (K)

variable k1 equal 2.5 # spring constant
variable k2 equal 3.5 # spring constant

units real
atom_style molecular
boundary p p p
neighbor 1.0 bin
neigh_modify delay 3 one 6000
bond_style harmonic
angle_style harmonic
dihedral_style opls
improper_style harmonic
pair_style hybrid lj/cut 14 sg 15 cb 30 # Fluid-fluid interactions have a cutoff of 15 Å, fluid-solid interactions have a cutoff of 30 Å
# *--* C-C parameters *--*
bond_style harmonic
angle_style harmonic
dihedral_style opls
improper_style harmonic
# *--* C-C parameters *--*


# 2. Read the graphite platelet data file and define potentials parameters
read_data       ../geometry/carbonPlatelets/simulation_data/abpot_sys.data  extra/atom/types 1
Reading data file ...
  orthogonal box = (-30 -30 -30) to (30 30 30)
  3 by 4 by 4 MPI processor grid
  reading atoms ...
  480 atoms
  reading velocities ...
  480 velocities
  scanning bonds ...
  2 = max bonds/atom
  scanning angles ...
  3 = max angles/atom
  scanning dihedrals ...
  8 = max dihedrals/atom
  scanning impropers ...
  2 = max impropers/atom
  orthogonal box = (-30 -30 -30) to (30 30 30)
  3 by 4 by 4 MPI processor grid
  reading bonds ...
  676 bonds
  reading angles ...
  1268 angles
  reading dihedrals ...
  2394 dihedrals
  reading impropers ...
  396 impropers
Finding 1-2 1-3 1-4 neighbors ...
  special bond factors lj:    0        0        0       
  special bond factors coul:  0        0        0       
     3 = max # of 1-2 neighbors
     6 = max # of 1-3 neighbors
    18 = max # of 1-4 neighbors
    18 = max # of special neighbors
  special bonds CPU = 0.002 seconds
  read_data CPU = 0.052 seconds
include         PARM.lammps

#////////////////////////////////////////////////////////////////////////////////////////////////////////////////////////////////
#//     Filename: PARM.lammps
#//     File Type: LAMMPS input script
#//     Description: This script defines the parameters for the simulation of hydrogen absorption in graphite platelets.
#//     Author: Edoardo Cabiati
#//     Date: 2024-07-27
#////////////////////////////////////////////////////////////////////////////////////////////////////////////////////////////////

mass 2 2.016 # For now at least, in accordance with the paper by Wang and Johnson,
             # 1998, the hydrogen atoms are regarded as simple spherical atoms

# //////////////////////////////////////    C-C potentials    //////////////////////////////////////
pair_coeff 1 1 lj/cut 0.066 3.4
bond_coeff 1 469 1.4
angle_coeff 1 63 120
dihedral_coeff 1 0 7.25 0 0
improper_coeff 1 5 180
special_bonds lj 0.0 0.0 0.5
Finding 1-2 1-3 1-4 neighbors ...
  special bond factors lj:    0        0        0.5     
  special bond factors coul:  0        0        0       
     3 = max # of 1-2 neighbors
     6 = max # of 1-3 neighbors
    18 = max # of 1-4 neighbors
    18 = max # of special neighbors
  special bonds CPU = 0.002 seconds
# //////////////////////////////////////    C-C potentials    //////////////////////////////////////
# -------------------------------------------------------------------------------------------------
# //////////////////////////////////////    H-H potentials    //////////////////////////////////////
variable alpha equal 1.713          #|
variable sigma equal 1.567          #|
variable gamma equal 0.00993        #|
variable c6 equal 12.14             #|      The parameters are all in atomic units, the conversion to kcal/mol
variable c8 equal 215.2             #|      is performed in the pair_sg.cpp file
variable c9 equal 143.1             #|
variable c10 equal 4813.9           #|
variable rc equal 8.321             #|
pair_coeff 2 2 sg ${alpha} ${sigma} ${gamma} ${c6} ${c8} ${c9} ${c10} ${rc} # H-H potentials
pair_coeff 2 2 sg 1.713 ${sigma} ${gamma} ${c6} ${c8} ${c9} ${c10} ${rc} 
pair_coeff 2 2 sg 1.713 1.567 ${gamma} ${c6} ${c8} ${c9} ${c10} ${rc} 
pair_coeff 2 2 sg 1.713 1.567 0.00993 ${c6} ${c8} ${c9} ${c10} ${rc} 
pair_coeff 2 2 sg 1.713 1.567 0.00993 12.14 ${c8} ${c9} ${c10} ${rc} 
pair_coeff 2 2 sg 1.713 1.567 0.00993 12.14 215.2 ${c9} ${c10} ${rc} 
pair_coeff 2 2 sg 1.713 1.567 0.00993 12.14 215.2 143.1 ${c10} ${rc} 
pair_coeff 2 2 sg 1.713 1.567 0.00993 12.14 215.2 143.1 4813.9 ${rc} 
pair_coeff 2 2 sg 1.713 1.567 0.00993 12.14 215.2 143.1 4813.9 8.321 
#pair_coeff 2 2 sg 1.713 1.567 0.00993 12.14 215.2 143.1 4813.9 8.321 # H-H potentials
# //////////////////////////////////////    H-H potentials    //////////////////////////////////////
# -------------------------------------------------------------------------------------------------
# //////////////////////////////////////    C-H potentials    //////////////////////////////////////
variable sigma_CC equal 3.43 # Å
variable sigma_HH equal 3.075 # Å
variable sigma_CH_geo equal sqrt(${sigma_CC}*${sigma_HH}) # Å
variable sigma_CH_geo equal sqrt(3.43*${sigma_HH}) 
variable sigma_CH_geo equal sqrt(3.43*3.075) 
variable sigma_CH_arit equal 0.5*(${sigma_CC}+${sigma_HH}) # Å
variable sigma_CH_arit equal 0.5*(3.43+${sigma_HH}) 
variable sigma_CH_arit equal 0.5*(3.43+3.075) 

variable P_par equal 0.57 # Å^3
variable P_perp equal 1.995 # Å^3
variable P_h equal 0.81 # Å^3
variable E_h equal 2.337e5*(1/503.23) # K * 1/503.23 kcal/mol/K = kcal/mol
variable E_c equal 1.39254e5*(1/503.23) # K * 1/503.23 kcal/mol/K = kcal/mol

variable epsilon equal 4*v_E_h*v_E_c*v_P_h*(v_P_par+v_P_perp/2)/(v_sigma_CH_geo^6*(v_E_h+v_E_c)) # kcal/mol

pair_coeff 1 2 cb ${epsilon} ${sigma_CH_geo} ${P_par} ${P_perp} # C-H potential
pair_coeff 1 2 cb 0.750549668586509 ${sigma_CH_geo} ${P_par} ${P_perp} 
pair_coeff 1 2 cb 0.750549668586509 3.24765299870537 ${P_par} ${P_perp} 
pair_coeff 1 2 cb 0.750549668586509 3.24765299870537 0.57 ${P_perp} 
pair_coeff 1 2 cb 0.750549668586509 3.24765299870537 0.57 1.995 
#pair_coeff 1 2 lj/cut 0.3025 2.065
# //////////////////////////////////////    C-H potentials    //////////////////////////////////////

# 3. Add a single hydrogen molecule to the system, close to the center of the first platelet
create_atoms    2 single 0 0 -2
Created 1 atoms
  using lattice units in orthogonal box = (-30 -30 -30) to (30 30 30)
  create_atoms CPU = 0.000 seconds

group           C type 1
480 atoms in group C
group           H2 type 2
1 atoms in group H2

# 4. Equilibration
timestep        0.05
fix             mytth1 C spring/self ${k2} # Apply a spring force to the carbon atoms
fix             mytth1 C spring/self 3.5 
velocity        all create ${tem} 48 rot yes mom yes dist gaussian # Initialize velocities
velocity        all create 300 48 rot yes mom yes dist gaussian 
fix             mynpt all npt temp ${tem} ${tem} 100 x ${pre} ${pre} 1000 y ${pre} ${pre} 1000 # Apply NPT ensemble to the system
fix             mynpt all npt temp 300 ${tem} 100 x ${pre} ${pre} 1000 y ${pre} ${pre} 1000 
fix             mynpt all npt temp 300 300 100 x ${pre} ${pre} 1000 y ${pre} ${pre} 1000 
fix             mynpt all npt temp 300 300 100 x 112 ${pre} 1000 y ${pre} ${pre} 1000 
fix             mynpt all npt temp 300 300 100 x 112 112 1000 y ${pre} ${pre} 1000 
fix             mynpt all npt temp 300 300 100 x 112 112 1000 y 112 ${pre} 1000 
fix             mynpt all npt temp 300 300 100 x 112 112 1000 y 112 112 1000 

thermo          10000
dump            dump all atom 1000 simulation_data/absorption_pot.lammpstrj

run             20000

CITE-CITE-CITE-CITE-CITE-CITE-CITE-CITE-CITE-CITE-CITE-CITE-CITE

Your simulation uses code contributions which should be cited:

- Type Label Framework: https://doi.org/10.1021/acs.jpcb.3c08419

@Article{Gissinger24,
 author = {Jacob R. Gissinger, Ilia Nikiforov, Yaser Afshar, Brendon Waters, Moon-ki Choi, Daniel S. Karls, Alexander Stukowski, Wonpil Im, Hendrik Heinz, Axel Kohlmeyer, and Ellad B. Tadmor},
 title = {Type Label Framework for Bonded Force Fields in LAMMPS},
 journal = {J. Phys. Chem. B},
 year =    2024,
 volume =  128,
 number =  13,
 pages =   {3282–-3297}
}

CITE-CITE-CITE-CITE-CITE-CITE-CITE-CITE-CITE-CITE-CITE-CITE-CITE

Generated 0 of 1 mixed pair_coeff terms from geometric mixing rule
Neighbor list info ...
  update: every = 1 steps, delay = 3 steps, check = yes
  max neighbors/atom: 6000, page size: 100000
  master list distance cutoff = 31
  ghost atom cutoff = 31
  binsize = 15.5, bins = 4 4 4
  4 neighbor lists, perpetual/occasional/extra = 4 0 0
  (1) pair lj/cut, perpetual, skip trim from (4)
      attributes: half, newton on, cut 15
      pair build: skip/trim
      stencil: none
      bin: none
  (2) pair sg, perpetual, skip trim from (4)
      attributes: half, newton on, cut 16
      pair build: skip/trim
      stencil: none
      bin: none
  (3) pair cb, perpetual, skip from (4)
      attributes: half, newton on
      pair build: skip
      stencil: none
      bin: none
  (4) neighbor class addition, perpetual
      attributes: half, newton on
      pair build: half/bin/newton
      stencil: half/bin/3d
      bin: standard
Per MPI rank memory allocation (min/avg/max) = 13.28 | 13.37 | 13.93 Mbytes
   Step          Temp          E_pair         E_mol          TotEng         Press          Volume    
         0   300            308.43814      19603.922      20341.597     -432.48369      216000       
     10000   308.72719      373.58236      18568.419      19383.724     -313.9945       172136.64    
     20000   322.02648      371.05675      18538.378      19370.187     -418.66256      126544.33    
Loop time of 7.95957 on 48 procs for 20000 steps with 481 atoms

Performance: 10.855 ns/day, 2.211 hours/ns, 2512.698 timesteps/s, 1.209 Matom-step/s
99.7% CPU use with 48 MPI tasks x 1 OpenMP threads

MPI task timing breakdown:
Section |  min time  |  avg time  |  max time  |%varavg| %total
---------------------------------------------------------------
Pair    | 0.12754    | 0.46326    | 2.1826     |  77.7 |  5.82
Bond    | 0.0036626  | 0.42823    | 2.2932     | 113.6 |  5.38
Neigh   | 0.021151   | 0.0238     | 0.026348   |   0.9 |  0.30
Comm    | 2.5677     | 4.5215     | 6.5672     |  70.6 | 56.81
Output  | 0.0039817  | 0.0089327  | 0.014704   |   3.7 |  0.11
Modify  | 0.72572    | 2.2411     | 4.8469     | 109.1 | 28.16
Other   |            | 0.2728     |            |       |  3.43

Nlocal:        10.0208 ave          42 max           0 min
Histogram: 21 4 10 5 0 1 0 3 3 1
Nghost:        1907.85 ave        2370 max        1332 min
Histogram: 8 0 0 0 24 0 0 0 0 16
Neighs:              0 ave           0 max           0 min
Histogram: 48 0 0 0 0 0 0 0 0 0

Total # of neighbors = 0
Ave neighs/atom = 0
Ave special neighs/atom = 15.567568
Neighbor list builds = 55
Dangerous builds = 0
unfix           mynpt
unfix           mytth1

# 5. Umbrella sampling
fix             mynvt all nvt temp ${tem} ${tem} 100
fix             mynvt all nvt temp 300 ${tem} 100
fix             mynvt all nvt temp 300 300 100
fix             mytth1 C spring/self ${k2}
fix             mytth1 C spring/self 3.5

variable        cpt loop 51
label           loop
variable        zdes equal  -15+0.60*(${cpt}-1)
variable        zdes equal  -15+0.60*(1-1)
variable        zave equal xcm(H2,z)
fix             mytth2 H2 spring tether ${k1} 2.5 2.5 ${zdes} 0
fix             mytth2 H2 spring tether 2.5 2.5 2.5 ${zdes} 0
fix             mytth2 H2 spring tether 2.5 2.5 2.5 -15 0
run             10000
Generated 0 of 1 mixed pair_coeff terms from geometric mixing rule
Per MPI rank memory allocation (min/avg/max) = 13.32 | 13.74 | 14.98 Mbytes
   Step          Temp          E_pair         E_mol          TotEng         Press     
     20000   322.02648      371.05675      18538.378      19370.187     -418.66256    
     30000   311.4398       335.02356      18596.414      19377.042     -1169.9516    
Loop time of 3.08286 on 48 procs for 10000 steps with 481 atoms

Performance: 14.013 ns/day, 1.713 hours/ns, 3243.745 timesteps/s, 1.560 Matom-step/s
100.0% CPU use with 48 MPI tasks x 1 OpenMP threads

MPI task timing breakdown:
Section |  min time  |  avg time  |  max time  |%varavg| %total
---------------------------------------------------------------
Pair    | 0.0033007  | 0.14363    | 0.79588    |  54.1 |  4.66
Bond    | 0.0010126  | 0.18216    | 0.76372    |  56.0 |  5.91
Neigh   | 0.03017    | 0.034056   | 0.036929   |   0.9 |  1.10
Comm    | 1.2376     | 2.254      | 2.7444     |  32.3 | 73.11
Output  | 0.0012168  | 0.0029889  | 0.0049891  |   2.2 |  0.10
Modify  | 0.1204     | 0.35697    | 1.3328     |  70.7 | 11.58
Other   |            | 0.1091     |            |       |  3.54

Nlocal:        10.0208 ave          38 max           0 min
Histogram: 21 3 9 6 1 0 1 1 2 4
Nghost:        1914.35 ave        2384 max        1335 min
Histogram: 8 0 0 0 24 0 0 0 0 16
Neighs:              0 ave           0 max           0 min
Histogram: 48 0 0 0 0 0 0 0 0 0

Total # of neighbors = 0
Ave neighs/atom = 0
Ave special neighs/atom = 15.567568
Neighbor list builds = 97
Dangerous builds = 0
fix             myat1 all ave/time 1000 10 10000 v_zave v_zdes file simulation_data/abpot/${cpt}.dat
fix             myat1 all ave/time 1000 10 10000 v_zave v_zdes file simulation_data/abpot/1.dat
run             50000
Generated 0 of 1 mixed pair_coeff terms from geometric mixing rule
Per MPI rank memory allocation (min/avg/max) = 13.32 | 13.78 | 14.98 Mbytes
   Step          Temp          E_pair         E_mol          TotEng         Press     
     30000   311.4398       335.02356      18596.414      19377.042     -1169.9516    
     40000   292.16198      394.98754      18517.043      19330.053      480.5835     
     50000   296.35961      380.55253      18532.289      19336.87       29.606383    
     60000   291.18513      365.32146      18569.425      19351.371     -319.40062    
     70000   283.34631      371.56052      18583.135      19360.104     -193.21       
     80000   296.29051      393.25151      18588.451      19405.631      337.67622    
Loop time of 14.9783 on 48 procs for 50000 steps with 481 atoms

Performance: 14.421 ns/day, 1.664 hours/ns, 3338.159 timesteps/s, 1.606 Matom-step/s
100.0% CPU use with 48 MPI tasks x 1 OpenMP threads

MPI task timing breakdown:
Section |  min time  |  avg time  |  max time  |%varavg| %total
---------------------------------------------------------------
Pair    | 0.017124   | 0.71541    | 3.7062     | 119.7 |  4.78
Bond    | 0.0051384  | 0.91299    | 3.7758     | 125.2 |  6.10
Neigh   | 0.038854   | 0.043966   | 0.047494   |   1.0 |  0.29
Comm    | 6.4083     | 10.992     | 13.369     |  71.4 | 73.39
Output  | 0.0057286  | 0.012859   | 0.020485   |   4.1 |  0.09
Modify  | 0.59304    | 1.7516     | 6.577      | 152.7 | 11.69
Other   |            | 0.5495     |            |       |  3.67

Nlocal:        10.0208 ave          42 max           0 min
Histogram: 21 6 7 5 1 1 0 3 3 1
Nghost:        1923.48 ave        2404 max        1338 min
Histogram: 8 0 0 0 24 0 0 0 0 16
Neighs:              0 ave           0 max           0 min
Histogram: 48 0 0 0 0 0 0 0 0 0

Total # of neighbors = 0
Ave neighs/atom = 0
Ave special neighs/atom = 15.567568
Neighbor list builds = 122
Dangerous builds = 0
unfix           myat1
next            cpt
jump            SELF loop
variable        zdes equal  -15+0.60*(${cpt}-1)
variable        zdes equal  -15+0.60*(2-1)
variable        zave equal xcm(H2,z)
fix             mytth2 H2 spring tether ${k1} 2.5 2.5 ${zdes} 0
fix             mytth2 H2 spring tether 2.5 2.5 2.5 ${zdes} 0
fix             mytth2 H2 spring tether 2.5 2.5 2.5 -14.4 0
run             10000
Generated 0 of 1 mixed pair_coeff terms from geometric mixing rule
Per MPI rank memory allocation (min/avg/max) = 13.32 | 13.83 | 14.98 Mbytes
   Step          Temp          E_pair         E_mol          TotEng         Press     
     80000   296.29051      393.25151      18588.451      19405.631      337.67622    
     90000   317.45179      363.26393      18548.63       19366.101     -320.85882    
Loop time of 3.00453 on 48 procs for 10000 steps with 481 atoms

Performance: 14.378 ns/day, 1.669 hours/ns, 3328.312 timesteps/s, 1.601 Matom-step/s
100.0% CPU use with 48 MPI tasks x 1 OpenMP threads

MPI task timing breakdown:
Section |  min time  |  avg time  |  max time  |%varavg| %total
---------------------------------------------------------------
Pair    | 0.0033927  | 0.14298    | 0.76624    |  53.7 |  4.76
Bond    | 0.0010083  | 0.18253    | 0.77977    |  56.1 |  6.08
Neigh   | 0.0038508  | 0.0043667  | 0.0047322  |   0.3 |  0.15
Comm    | 1.2363     | 2.2125     | 2.7048     |  32.5 | 73.64
Output  | 0.0010752  | 0.0022357  | 0.0034938  |   1.6 |  0.07
Modify  | 0.11379    | 0.35038    | 1.3619     |  70.8 | 11.66
Other   |            | 0.1095     |            |       |  3.65

Nlocal:        10.0208 ave          41 max           0 min
Histogram: 22 5 9 3 1 1 0 3 2 2
Nghost:        1929.98 ave        2409 max        1337 min
Histogram: 8 0 0 0 24 0 0 0 0 16
Neighs:              0 ave           0 max           0 min
Histogram: 48 0 0 0 0 0 0 0 0 0

Total # of neighbors = 0
Ave neighs/atom = 0
Ave special neighs/atom = 15.567568
Neighbor list builds = 12
Dangerous builds = 0
fix             myat1 all ave/time 1000 10 10000 v_zave v_zdes file simulation_data/abpot/${cpt}.dat
fix             myat1 all ave/time 1000 10 10000 v_zave v_zdes file simulation_data/abpot/2.dat
run             50000
Generated 0 of 1 mixed pair_coeff terms from geometric mixing rule
Per MPI rank memory allocation (min/avg/max) = 13.32 | 13.84 | 14.98 Mbytes
   Step          Temp          E_pair         E_mol          TotEng         Press     
     90000   317.45179      363.26393      18548.63       19366.101     -320.85882    
    100000   310.0487       367.71575      18546.847      19358.177     -314.78611    
    110000   280.39022      390.4527       18541.174      19332.806      418.16713    
    120000   289.89456      371.20679      18530.037      19316.022     -37.344142    
    130000   307.67699      361.86969      18550.676      19352.766     -406.76326    
    140000   308.64466      378.77998      18554.462      19374.848      39.134972    
Loop time of 15.0759 on 48 procs for 50000 steps with 481 atoms

Performance: 14.328 ns/day, 1.675 hours/ns, 3316.556 timesteps/s, 1.595 Matom-step/s
100.0% CPU use with 48 MPI tasks x 1 OpenMP threads

MPI task timing breakdown:
Section |  min time  |  avg time  |  max time  |%varavg| %total
---------------------------------------------------------------
Pair    | 0.017153   | 0.71536    | 3.704      | 120.2 |  4.75
Bond    | 0.0050956  | 0.91282    | 3.839      | 125.3 |  6.05
Neigh   | 0.025502   | 0.028922   | 0.031343   |   0.8 |  0.19
Comm    | 6.6461     | 11.112     | 13.531     |  71.7 | 73.71
Output  | 0.005573   | 0.011058   | 0.016937   |   3.3 |  0.07
Modify  | 0.57495    | 1.7486     | 6.7171     | 155.5 | 11.60
Other   |            | 0.547      |            |       |  3.63

Nlocal:        10.0208 ave          40 max           0 min
Histogram: 19 7 8 4 2 2 0 1 1 4
Nghost:        1929.48 ave        2411 max        1335 min
Histogram: 8 0 0 0 24 0 0 0 0 16
Neighs:              0 ave           0 max           0 min
Histogram: 48 0 0 0 0 0 0 0 0 0

Total # of neighbors = 0
Ave neighs/atom = 0
Ave special neighs/atom = 15.567568
Neighbor list builds = 80
Dangerous builds = 0
unfix           myat1
next            cpt
jump            SELF loop
variable        zdes equal  -15+0.60*(${cpt}-1)
variable        zdes equal  -15+0.60*(3-1)
variable        zave equal xcm(H2,z)
fix             mytth2 H2 spring tether ${k1} 2.5 2.5 ${zdes} 0
fix             mytth2 H2 spring tether 2.5 2.5 2.5 ${zdes} 0
fix             mytth2 H2 spring tether 2.5 2.5 2.5 -13.8 0
run             10000
Generated 0 of 1 mixed pair_coeff terms from geometric mixing rule
Per MPI rank memory allocation (min/avg/max) = 13.32 | 13.84 | 14.98 Mbytes
   Step          Temp          E_pair         E_mol          TotEng         Press     
    140000   308.64466      378.77998      18554.462      19374.848      39.134972    
    150000   312.27642      377.93748      18574.67       19399.409      21.820258    
Loop time of 3.02943 on 48 procs for 10000 steps with 481 atoms

Performance: 14.260 ns/day, 1.683 hours/ns, 3300.948 timesteps/s, 1.588 Matom-step/s
100.0% CPU use with 48 MPI tasks x 1 OpenMP threads

MPI task timing breakdown:
Section |  min time  |  avg time  |  max time  |%varavg| %total
---------------------------------------------------------------
Pair    | 0.0033633  | 0.1433     | 0.7553     |  54.1 |  4.73
Bond    | 0.0010515  | 0.18299    | 0.7565     |  56.1 |  6.04
Neigh   | 0.0057354  | 0.0065189  | 0.0070781  |   0.4 |  0.22
Comm    | 1.3054     | 2.2366     | 2.7321     |  32.3 | 73.83
Output  | 0.0011122  | 0.0021702  | 0.0032832  |   1.4 |  0.07
Modify  | 0.11454    | 0.34829    | 1.3193     |  70.6 | 11.50
Other   |            | 0.1096     |            |       |  3.62

Nlocal:        10.0208 ave          39 max           0 min
Histogram: 20 5 8 6 1 0 1 3 1 3
Nghost:        1934.62 ave        2417 max        1336 min
Histogram: 8 0 0 0 24 0 0 0 0 16
Neighs:              0 ave           0 max           0 min
Histogram: 48 0 0 0 0 0 0 0 0 0

Total # of neighbors = 0
Ave neighs/atom = 0
Ave special neighs/atom = 15.567568
Neighbor list builds = 18
Dangerous builds = 0
fix             myat1 all ave/time 1000 10 10000 v_zave v_zdes file simulation_data/abpot/${cpt}.dat
fix             myat1 all ave/time 1000 10 10000 v_zave v_zdes file simulation_data/abpot/3.dat
run             50000
Generated 0 of 1 mixed pair_coeff terms from geometric mixing rule
Per MPI rank memory allocation (min/avg/max) = 13.32 | 13.84 | 14.98 Mbytes
   Step          Temp          E_pair         E_mol          TotEng         Press     
    150000   312.27642      377.93748      18574.67       19399.409      21.820258    
    160000   290.42685      360.661        18574.754      19350.954     -361.72688    
    170000   296.03989      389.61626      18528.889      19342.075      378.47123    
    180000   304.61399      366.96684      18521.053      19323.858     -153.33674    
    190000   290.37013      368.92804      18545.621      19330.007     -165.1541     
    200000   292.48074      384.62322      18542.924      19346.025      195.8127     
Loop time of 15.161 on 48 procs for 50000 steps with 481 atoms

Performance: 14.247 ns/day, 1.685 hours/ns, 3297.941 timesteps/s, 1.586 Matom-step/s
100.0% CPU use with 48 MPI tasks x 1 OpenMP threads

MPI task timing breakdown:
Section |  min time  |  avg time  |  max time  |%varavg| %total
---------------------------------------------------------------
Pair    | 0.017347   | 0.71581    | 3.7633     | 119.8 |  4.72
Bond    | 0.0051057  | 0.91295    | 3.954      | 125.5 |  6.02
Neigh   | 0.028816   | 0.032705   | 0.035499   |   0.9 |  0.22
Comm    | 6.2722     | 11.191     | 13.608     |  71.6 | 73.82
Output  | 0.0054711  | 0.010595   | 0.015833   |   3.2 |  0.07
Modify  | 0.5792     | 1.7518     | 6.7169     | 156.2 | 11.55
Other   |            | 0.5458     |            |       |  3.60

Nlocal:        10.0208 ave          42 max           0 min
Histogram: 22 2 11 5 0 0 2 3 2 1
Nghost:        1939.85 ave        2424 max        1331 min
Histogram: 8 0 0 0 24 0 0 0 0 16
Neighs:              0 ave           0 max           0 min
Histogram: 48 0 0 0 0 0 0 0 0 0

Total # of neighbors = 0
Ave neighs/atom = 0
Ave special neighs/atom = 15.567568
Neighbor list builds = 91
Dangerous builds = 0
unfix           myat1
next            cpt
jump            SELF loop
variable        zdes equal  -15+0.60*(${cpt}-1)
variable        zdes equal  -15+0.60*(4-1)
variable        zave equal xcm(H2,z)
fix             mytth2 H2 spring tether ${k1} 2.5 2.5 ${zdes} 0
fix             mytth2 H2 spring tether 2.5 2.5 2.5 ${zdes} 0
fix             mytth2 H2 spring tether 2.5 2.5 2.5 -13.2 0
run             10000
Generated 0 of 1 mixed pair_coeff terms from geometric mixing rule
Per MPI rank memory allocation (min/avg/max) = 13.32 | 13.85 | 14.98 Mbytes
   Step          Temp          E_pair         E_mol          TotEng         Press     
    200000   292.48074      384.62322      18542.924      19346.025      195.8127     
    210000   297.5028       365.1685       18547.064      19337.896     -349.03789    
Loop time of 3.03132 on 48 procs for 10000 steps with 481 atoms

Performance: 14.251 ns/day, 1.684 hours/ns, 3298.895 timesteps/s, 1.587 Matom-step/s
100.0% CPU use with 48 MPI tasks x 1 OpenMP threads

MPI task timing breakdown:
Section |  min time  |  avg time  |  max time  |%varavg| %total
---------------------------------------------------------------
Pair    | 0.0034528  | 0.14319    | 0.7796     |  53.8 |  4.72
Bond    | 0.0010118  | 0.18277    | 0.84746    |  56.7 |  6.03
Neigh   | 0.0038481  | 0.0043594  | 0.0047553  |   0.3 |  0.14
Comm    | 1.1638     | 2.2355     | 2.7215     |  32.5 | 73.75
Output  | 0.0011472  | 0.0021546  | 0.0032024  |   1.4 |  0.07
Modify  | 0.11204    | 0.35407    | 1.3332     |  70.6 | 11.68
Other   |            | 0.1093     |            |       |  3.60

Nlocal:        10.0208 ave          36 max           0 min
Histogram: 18 6 7 6 3 0 0 1 2 5
Nghost:        1933.48 ave        2415 max        1337 min
Histogram: 8 0 0 0 24 0 0 0 0 16
Neighs:              0 ave           0 max           0 min
Histogram: 48 0 0 0 0 0 0 0 0 0

Total # of neighbors = 0
Ave neighs/atom = 0
Ave special neighs/atom = 15.567568
Neighbor list builds = 12
Dangerous builds = 0
fix             myat1 all ave/time 1000 10 10000 v_zave v_zdes file simulation_data/abpot/${cpt}.dat
fix             myat1 all ave/time 1000 10 10000 v_zave v_zdes file simulation_data/abpot/4.dat
run             50000
Generated 0 of 1 mixed pair_coeff terms from geometric mixing rule
Per MPI rank memory allocation (min/avg/max) = 13.32 | 13.85 | 14.98 Mbytes
   Step          Temp          E_pair         E_mol          TotEng         Press     
    210000   297.5028       365.1685       18547.064      19337.896     -349.03789    
    220000   322.50052      358.20156      18543.064      19362.696     -397.31679    
    230000   325.27788      377.3884       18547.851      19390.644      278.7973     
    240000   305.45844      374.52743      18530.592      19342.166     -28.905911    
    250000   304.72027      365.67403      18533.42       19335.084     -128.029      
    260000   287.75985      373.87374      18541.089      19326.686      6.465333     
Loop time of 14.9399 on 48 procs for 50000 steps with 481 atoms

Performance: 14.458 ns/day, 1.660 hours/ns, 3346.752 timesteps/s, 1.610 Matom-step/s
100.0% CPU use with 48 MPI tasks x 1 OpenMP threads

MPI task timing breakdown:
Section |  min time  |  avg time  |  max time  |%varavg| %total
---------------------------------------------------------------
Pair    | 0.017095   | 0.7158     | 3.6644     | 119.7 |  4.79
Bond    | 0.0051016  | 0.91374    | 3.8316     | 125.4 |  6.12
Neigh   | 0.020148   | 0.022912   | 0.025079   |   0.8 |  0.15
Comm    | 6.1992     | 10.997     | 13.374     |  71.7 | 73.61
Output  | 0.0054342  | 0.010497   | 0.015652   |   3.1 |  0.07
Modify  | 0.56977    | 1.7339     | 6.6281     | 154.3 | 11.61
Other   |            | 0.5464     |            |       |  3.66

Nlocal:        10.0208 ave          45 max           0 min
Histogram: 21 6 11 2 2 0 0 3 1 2
Nghost:        1929.35 ave        2407 max        1337 min
Histogram: 8 0 0 0 24 0 0 0 0 16
Neighs:              0 ave           0 max           0 min
Histogram: 48 0 0 0 0 0 0 0 0 0

Total # of neighbors = 0
Ave neighs/atom = 0
Ave special neighs/atom = 15.567568
Neighbor list builds = 65
Dangerous builds = 0
unfix           myat1
next            cpt
jump            SELF loop
variable        zdes equal  -15+0.60*(${cpt}-1)
variable        zdes equal  -15+0.60*(5-1)
variable        zave equal xcm(H2,z)
fix             mytth2 H2 spring tether ${k1} 2.5 2.5 ${zdes} 0
fix             mytth2 H2 spring tether 2.5 2.5 2.5 ${zdes} 0
fix             mytth2 H2 spring tether 2.5 2.5 2.5 -12.6 0
run             10000
Generated 0 of 1 mixed pair_coeff terms from geometric mixing rule
Per MPI rank memory allocation (min/avg/max) = 13.32 | 13.85 | 14.98 Mbytes
   Step          Temp          E_pair         E_mol          TotEng         Press     
    260000   287.75985      373.87374      18541.089      19326.686      6.465333     
    270000   331.99057      375.69792      18544.748      19395.454     -68.812455    
Loop time of 3.07855 on 48 procs for 10000 steps with 481 atoms

Performance: 14.033 ns/day, 1.710 hours/ns, 3248.282 timesteps/s, 1.562 Matom-step/s
100.0% CPU use with 48 MPI tasks x 1 OpenMP threads

MPI task timing breakdown:
Section |  min time  |  avg time  |  max time  |%varavg| %total
---------------------------------------------------------------
Pair    | 0.0034899  | 0.14263    | 0.75641    |  53.1 |  4.63
Bond    | 0.0010227  | 0.18249    | 0.80164    |  56.2 |  5.93
Neigh   | 0.0043046  | 0.0048206  | 0.0052512  |   0.3 |  0.16
Comm    | 1.2667     | 2.2831     | 2.7873     |  32.5 | 74.16
Output  | 0.0011325  | 0.0021501  | 0.0034103  |   1.4 |  0.07
Modify  | 0.11419    | 0.35397    | 1.4004     |  72.9 | 11.50
Other   |            | 0.1094     |            |       |  3.55

Nlocal:        10.0208 ave          48 max           0 min
Histogram: 22 7 6 7 0 0 2 0 2 2
Nghost:         1934.1 ave        2416 max        1332 min
Histogram: 8 0 0 0 24 0 0 0 0 16
Neighs:              0 ave           0 max           0 min
Histogram: 48 0 0 0 0 0 0 0 0 0

Total # of neighbors = 0
Ave neighs/atom = 0
Ave special neighs/atom = 15.567568
Neighbor list builds = 13
Dangerous builds = 0
fix             myat1 all ave/time 1000 10 10000 v_zave v_zdes file simulation_data/abpot/${cpt}.dat
fix             myat1 all ave/time 1000 10 10000 v_zave v_zdes file simulation_data/abpot/5.dat
run             50000
Generated 0 of 1 mixed pair_coeff terms from geometric mixing rule
Per MPI rank memory allocation (min/avg/max) = 13.32 | 13.85 | 14.98 Mbytes
   Step          Temp          E_pair         E_mol          TotEng         Press     
    270000   331.99057      375.69792      18544.748      19395.454     -68.812455    
    280000   298.1641       373.74558      18554.906      19355.262      123.15136    
    290000   289.63726      381.0564       18544.451      19339.917      186.43812    
    300000   308.03898      367.25474      18554.147      19362.141     -102.5632     
    310000   298.40947      365.83881      18514.867      19307.666     -282.4262     
    320000   278.91421      370.8531       18525.529      19295.449      57.016351    
Loop time of 15.0853 on 48 procs for 50000 steps with 481 atoms

Performance: 14.319 ns/day, 1.676 hours/ns, 3314.482 timesteps/s, 1.594 Matom-step/s
100.0% CPU use with 48 MPI tasks x 1 OpenMP threads

MPI task timing breakdown:
Section |  min time  |  avg time  |  max time  |%varavg| %total
---------------------------------------------------------------
Pair    | 0.01684    | 0.71596    | 3.811      | 120.5 |  4.75
Bond    | 0.0050992  | 0.91318    | 3.8413     | 125.3 |  6.05
Neigh   | 0.02169    | 0.02465    | 0.026865   |   0.8 |  0.16
Comm    | 6.6353     | 11.139     | 13.644     |  72.4 | 73.84
Output  | 0.0055424  | 0.010629   | 0.015985   |   3.1 |  0.07
Modify  | 0.57023    | 1.7369     | 6.7249     | 158.1 | 11.51
Other   |            | 0.5452     |            |       |  3.61

Nlocal:        10.0208 ave          43 max           0 min
Histogram: 22 5 7 6 0 1 1 2 3 1
Nghost:         1924.1 ave        2403 max        1338 min
Histogram: 8 0 0 0 24 0 0 0 0 16
Neighs:              0 ave           0 max           0 min
Histogram: 48 0 0 0 0 0 0 0 0 0

Total # of neighbors = 0
Ave neighs/atom = 0
Ave special neighs/atom = 15.567568
Neighbor list builds = 68
Dangerous builds = 0
unfix           myat1
next            cpt
jump            SELF loop
variable        zdes equal  -15+0.60*(${cpt}-1)
variable        zdes equal  -15+0.60*(6-1)
variable        zave equal xcm(H2,z)
fix             mytth2 H2 spring tether ${k1} 2.5 2.5 ${zdes} 0
fix             mytth2 H2 spring tether 2.5 2.5 2.5 ${zdes} 0
fix             mytth2 H2 spring tether 2.5 2.5 2.5 -12 0
run             10000
Generated 0 of 1 mixed pair_coeff terms from geometric mixing rule
Per MPI rank memory allocation (min/avg/max) = 13.32 | 13.85 | 14.98 Mbytes
   Step          Temp          E_pair         E_mol          TotEng         Press     
    320000   278.91421      370.8531       18525.529      19295.449      57.016351    
    330000   306.03389      379.93339      18524.063      19341.867      216.94205    
Loop time of 2.95093 on 48 procs for 10000 steps with 481 atoms

Performance: 14.639 ns/day, 1.639 hours/ns, 3388.761 timesteps/s, 1.630 Matom-step/s
100.0% CPU use with 48 MPI tasks x 1 OpenMP threads

MPI task timing breakdown:
Section |  min time  |  avg time  |  max time  |%varavg| %total
---------------------------------------------------------------
Pair    | 0.0033612  | 0.14278    | 0.74707    |  53.9 |  4.84
Bond    | 0.0010051  | 0.18238    | 0.81999    |  56.3 |  6.18
Neigh   | 0.0037919  | 0.0042806  | 0.0046461  |   0.3 |  0.15
Comm    | 1.265      | 2.1716     | 2.6508     |  31.7 | 73.59
Output  | 0.0011043  | 0.0020968  | 0.0031304  |   1.4 |  0.07
Modify  | 0.12116    | 0.3381     | 1.2572     |  66.4 | 11.46
Other   |            | 0.1097     |            |       |  3.72

Nlocal:        10.0208 ave          37 max           0 min
Histogram: 18 6 10 5 1 0 0 1 3 4
Nghost:        1926.98 ave        2410 max        1337 min
Histogram: 8 0 0 0 24 0 0 0 0 16
Neighs:              0 ave           0 max           0 min
Histogram: 48 0 0 0 0 0 0 0 0 0

Total # of neighbors = 0
Ave neighs/atom = 0
Ave special neighs/atom = 15.567568
Neighbor list builds = 12
Dangerous builds = 0
fix             myat1 all ave/time 1000 10 10000 v_zave v_zdes file simulation_data/abpot/${cpt}.dat
fix             myat1 all ave/time 1000 10 10000 v_zave v_zdes file simulation_data/abpot/6.dat
run             50000
Generated 0 of 1 mixed pair_coeff terms from geometric mixing rule
Per MPI rank memory allocation (min/avg/max) = 13.32 | 13.85 | 14.98 Mbytes
   Step          Temp          E_pair         E_mol          TotEng         Press     
    330000   306.03389      379.93339      18524.063      19341.867      216.94205    
    340000   297.49709      374.78718      18555.368      19355.811     -29.528419    
    350000   307.0459       371.04588      18501.51       19311.874     -45.731923    
    360000   300.22654      370.17806      18509.451      19309.19      -105.60191    
    370000   299.794        371.65662      18532.229      19332.828     -74.73088     
    380000   295.1954       370.51496      18564.83       19357.707     -162.86711    
Loop time of 14.9147 on 48 procs for 50000 steps with 481 atoms

Performance: 14.482 ns/day, 1.657 hours/ns, 3352.407 timesteps/s, 1.613 Matom-step/s
100.0% CPU use with 48 MPI tasks x 1 OpenMP threads

MPI task timing breakdown:
Section |  min time  |  avg time  |  max time  |%varavg| %total
---------------------------------------------------------------
Pair    | 0.016803   | 0.71601    | 3.7126     | 120.5 |  4.80
Bond    | 0.0050855  | 0.91254    | 3.9981     | 125.8 |  6.12
Neigh   | 0.019804   | 0.022567   | 0.024597   |   0.8 |  0.15
Comm    | 6.1862     | 10.99      | 13.457     |  71.5 | 73.69
Output  | 0.0054858  | 0.010583   | 0.016      |   3.1 |  0.07
Modify  | 0.57216    | 1.7174     | 6.5154     | 152.0 | 11.51
Other   |            | 0.5456     |            |       |  3.66

Nlocal:        10.0208 ave          45 max           0 min
Histogram: 22 5 10 3 0 3 0 2 1 2
Nghost:        1922.23 ave        2396 max        1328 min
Histogram: 8 0 0 0 24 0 0 0 0 16
Neighs:              0 ave           0 max           0 min
Histogram: 48 0 0 0 0 0 0 0 0 0

Total # of neighbors = 0
Ave neighs/atom = 0
Ave special neighs/atom = 15.567568
Neighbor list builds = 63
Dangerous builds = 0
unfix           myat1
next            cpt
jump            SELF loop
variable        zdes equal  -15+0.60*(${cpt}-1)
variable        zdes equal  -15+0.60*(7-1)
variable        zave equal xcm(H2,z)
fix             mytth2 H2 spring tether ${k1} 2.5 2.5 ${zdes} 0
fix             mytth2 H2 spring tether 2.5 2.5 2.5 ${zdes} 0
fix             mytth2 H2 spring tether 2.5 2.5 2.5 -11.4 0
run             10000
Generated 0 of 1 mixed pair_coeff terms from geometric mixing rule
Per MPI rank memory allocation (min/avg/max) = 13.32 | 13.85 | 14.98 Mbytes
   Step          Temp          E_pair         E_mol          TotEng         Press     
    380000   295.1954       370.51496      18564.83       19357.707     -162.86711    
    390000   282.02844      387.16464      18532.8        19323.488      256.18884    
Loop time of 3.06854 on 48 procs for 10000 steps with 481 atoms

Performance: 14.078 ns/day, 1.705 hours/ns, 3258.880 timesteps/s, 1.568 Matom-step/s
100.0% CPU use with 48 MPI tasks x 1 OpenMP threads

MPI task timing breakdown:
Section |  min time  |  avg time  |  max time  |%varavg| %total
---------------------------------------------------------------
Pair    | 0.0033316  | 0.14348    | 0.75896    |  54.1 |  4.68
Bond    | 0.0010515  | 0.18262    | 0.7835     |  56.3 |  5.95
Neigh   | 0.0051084  | 0.0057752  | 0.0062327  |   0.4 |  0.19
Comm    | 1.3585     | 2.2624     | 2.7522     |  32.8 | 73.73
Output  | 0.0011137  | 0.0021224  | 0.0032814  |   1.4 |  0.07
Modify  | 0.11619    | 0.36232    | 1.3742     |  71.7 | 11.81
Other   |            | 0.1098     |            |       |  3.58

Nlocal:        10.0208 ave          40 max           0 min
Histogram: 20 7 5 6 2 0 0 3 3 2
Nghost:        1924.85 ave        2404 max        1333 min
Histogram: 8 0 0 0 24 0 0 0 0 16
Neighs:              0 ave           0 max           0 min
Histogram: 48 0 0 0 0 0 0 0 0 0

Total # of neighbors = 0
Ave neighs/atom = 0
Ave special neighs/atom = 15.567568
Neighbor list builds = 16
Dangerous builds = 0
fix             myat1 all ave/time 1000 10 10000 v_zave v_zdes file simulation_data/abpot/${cpt}.dat
fix             myat1 all ave/time 1000 10 10000 v_zave v_zdes file simulation_data/abpot/7.dat
run             50000
Generated 0 of 1 mixed pair_coeff terms from geometric mixing rule
Per MPI rank memory allocation (min/avg/max) = 13.32 | 13.85 | 14.98 Mbytes
   Step          Temp          E_pair         E_mol          TotEng         Press     
    390000   282.02844      387.16464      18532.8        19323.488      256.18884    
    400000   293.38482      378.68137      18521.807      19320.26       153.07497    
    410000   296.18475      370.58247      18544.097      19338.457     -56.779391    
    420000   307.92264      380.72228      18534.545      19355.839      140.83481    
    430000   327.29484      367.209        18533.444      19368.943     -43.41906     
    440000   286.29922      367.93382      18537.261      19314.829     -197.22172    
Loop time of 15.4016 on 48 procs for 50000 steps with 481 atoms

Performance: 14.025 ns/day, 1.711 hours/ns, 3246.421 timesteps/s, 1.562 Matom-step/s
100.0% CPU use with 48 MPI tasks x 1 OpenMP threads

MPI task timing breakdown:
Section |  min time  |  avg time  |  max time  |%varavg| %total
---------------------------------------------------------------
Pair    | 0.016804   | 0.71715    | 3.8761     | 121.8 |  4.66
Bond    | 0.0050722  | 0.91332    | 4.1933     | 127.0 |  5.93
Neigh   | 0.023701   | 0.026696   | 0.028954   |   0.8 |  0.17
Comm    | 6.1058     | 11.382     | 13.794     |  73.3 | 73.90
Output  | 0.0056945  | 0.010819   | 0.015907   |   3.1 |  0.07
Modify  | 0.58895    | 1.8015     | 6.9402     | 160.8 | 11.70
Other   |            | 0.5501     |            |       |  3.57

Nlocal:        10.0208 ave          41 max           0 min
Histogram: 21 7 8 3 1 0 1 3 2 2
Nghost:        1922.98 ave        2400 max        1333 min
Histogram: 8 0 0 0 24 0 0 0 0 16
Neighs:              0 ave           0 max           0 min
Histogram: 48 0 0 0 0 0 0 0 0 0

Total # of neighbors = 0
Ave neighs/atom = 0
Ave special neighs/atom = 15.567568
Neighbor list builds = 73
Dangerous builds = 0
unfix           myat1
next            cpt
jump            SELF loop
variable        zdes equal  -15+0.60*(${cpt}-1)
variable        zdes equal  -15+0.60*(8-1)
variable        zave equal xcm(H2,z)
fix             mytth2 H2 spring tether ${k1} 2.5 2.5 ${zdes} 0
fix             mytth2 H2 spring tether 2.5 2.5 2.5 ${zdes} 0
fix             mytth2 H2 spring tether 2.5 2.5 2.5 -10.8 0
run             10000
Generated 0 of 1 mixed pair_coeff terms from geometric mixing rule
Per MPI rank memory allocation (min/avg/max) = 13.32 | 13.86 | 14.98 Mbytes
   Step          Temp          E_pair         E_mol          TotEng         Press     
    440000   286.29922      367.93382      18537.261      19314.829     -197.22172    
    450000   307.23493      376.91097      18485.794      19302.293      210.2365     
Loop time of 3.06831 on 48 procs for 10000 steps with 481 atoms

Performance: 14.079 ns/day, 1.705 hours/ns, 3259.121 timesteps/s, 1.568 Matom-step/s
100.0% CPU use with 48 MPI tasks x 1 OpenMP threads

MPI task timing breakdown:
Section |  min time  |  avg time  |  max time  |%varavg| %total
---------------------------------------------------------------
Pair    | 0.003325   | 0.14349    | 0.76092    |  54.6 |  4.68
Bond    | 0.0010036  | 0.18257    | 0.82621    |  56.8 |  5.95
Neigh   | 0.0052164  | 0.0058974  | 0.00641    |   0.4 |  0.19
Comm    | 1.2927     | 2.2709     | 2.7696     |  32.9 | 74.01
Output  | 0.0011491  | 0.0021969  | 0.0032699  |   1.4 |  0.07
Modify  | 0.11678    | 0.35321    | 1.3936     |  72.0 | 11.51
Other   |            | 0.11       |            |       |  3.58

Nlocal:        10.0208 ave          37 max           0 min
Histogram: 20 8 4 5 2 1 0 1 3 4
Nghost:        1929.75 ave        2411 max        1339 min
Histogram: 8 0 0 0 24 0 0 0 0 16
Neighs:              0 ave           0 max           0 min
Histogram: 48 0 0 0 0 0 0 0 0 0

Total # of neighbors = 0
Ave neighs/atom = 0
Ave special neighs/atom = 15.567568
Neighbor list builds = 16
Dangerous builds = 0
fix             myat1 all ave/time 1000 10 10000 v_zave v_zdes file simulation_data/abpot/${cpt}.dat
fix             myat1 all ave/time 1000 10 10000 v_zave v_zdes file simulation_data/abpot/8.dat
run             50000
Generated 0 of 1 mixed pair_coeff terms from geometric mixing rule
Per MPI rank memory allocation (min/avg/max) = 13.32 | 13.86 | 14.98 Mbytes
   Step          Temp          E_pair         E_mol          TotEng         Press     
    450000   307.23493      376.91097      18485.794      19302.293      210.2365     
    460000   298.72206      374.79157      18532.677      19334.876      38.642236    
    470000   291.3846       375.8472       18560.955      19353.712     -0.1717346    
    480000   300.54098      372.43414      18534.91       19337.355     -138.28343    
    490000   283.18276      374.15537      18547.833      19327.163      60.033112    
    500000   305.24381      370.79067      18542.664      19350.194     -229.08161    
Loop time of 15.288 on 48 procs for 50000 steps with 481 atoms

Performance: 14.129 ns/day, 1.699 hours/ns, 3270.542 timesteps/s, 1.573 Matom-step/s
100.0% CPU use with 48 MPI tasks x 1 OpenMP threads

MPI task timing breakdown:
Section |  min time  |  avg time  |  max time  |%varavg| %total
---------------------------------------------------------------
Pair    | 0.017295   | 0.71754    | 3.8256     | 121.0 |  4.69
Bond    | 0.0051283  | 0.91321    | 4.1622     | 126.7 |  5.97
Neigh   | 0.037342   | 0.042093   | 0.045728   |   1.0 |  0.28
Comm    | 6.0208     | 11.289     | 13.714     |  72.3 | 73.84
Output  | 0.0056172  | 0.01079    | 0.016299   |   3.2 |  0.07
Modify  | 0.58142    | 1.7682     | 6.7569     | 157.5 | 11.57
Other   |            | 0.5474     |            |       |  3.58

Nlocal:        10.0208 ave          45 max           0 min
Histogram: 20 9 6 5 1 2 0 2 0 3
Nghost:        1930.48 ave        2418 max        1328 min
Histogram: 8 0 0 0 24 0 0 0 0 16
Neighs:              0 ave           0 max           0 min
Histogram: 48 0 0 0 0 0 0 0 0 0

Total # of neighbors = 0
Ave neighs/atom = 0
Ave special neighs/atom = 15.567568
Neighbor list builds = 116
Dangerous builds = 0
unfix           myat1
next            cpt
jump            SELF loop
variable        zdes equal  -15+0.60*(${cpt}-1)
variable        zdes equal  -15+0.60*(9-1)
variable        zave equal xcm(H2,z)
fix             mytth2 H2 spring tether ${k1} 2.5 2.5 ${zdes} 0
fix             mytth2 H2 spring tether 2.5 2.5 2.5 ${zdes} 0
fix             mytth2 H2 spring tether 2.5 2.5 2.5 -10.2 0
run             10000
Generated 0 of 1 mixed pair_coeff terms from geometric mixing rule
Per MPI rank memory allocation (min/avg/max) = 13.32 | 13.86 | 14.98 Mbytes
   Step          Temp          E_pair         E_mol          TotEng         Press     
    500000   305.24381      370.79067      18542.664      19350.194     -229.08161    
    510000   299.03684      379.55381      18556.495      19363.908      92.753485    
Loop time of 3.06355 on 48 procs for 10000 steps with 481 atoms

Performance: 14.101 ns/day, 1.702 hours/ns, 3264.190 timesteps/s, 1.570 Matom-step/s
100.0% CPU use with 48 MPI tasks x 1 OpenMP threads

MPI task timing breakdown:
Section |  min time  |  avg time  |  max time  |%varavg| %total
---------------------------------------------------------------
Pair    | 0.0033807  | 0.14354    | 0.78769    |  54.3 |  4.69
Bond    | 0.0010292  | 0.18265    | 0.90336    |  57.7 |  5.96
Neigh   | 0.0060033  | 0.0067888  | 0.0073919  |   0.4 |  0.22
Comm    | 1.144      | 2.2695     | 2.7697     |  32.7 | 74.08
Output  | 0.0011407  | 0.0021733  | 0.0032254  |   1.4 |  0.07
Modify  | 0.11162    | 0.34934    | 1.3737     |  71.3 | 11.40
Other   |            | 0.1096     |            |       |  3.58

Nlocal:        10.0208 ave          48 max           0 min
Histogram: 21 10 7 2 1 2 1 2 1 1
Nghost:        1929.35 ave        2412 max        1325 min
Histogram: 8 0 0 0 24 0 0 0 0 16
Neighs:              0 ave           0 max           0 min
Histogram: 48 0 0 0 0 0 0 0 0 0

Total # of neighbors = 0
Ave neighs/atom = 0
Ave special neighs/atom = 15.567568
Neighbor list builds = 19
Dangerous builds = 0
fix             myat1 all ave/time 1000 10 10000 v_zave v_zdes file simulation_data/abpot/${cpt}.dat
fix             myat1 all ave/time 1000 10 10000 v_zave v_zdes file simulation_data/abpot/9.dat
run             50000
Generated 0 of 1 mixed pair_coeff terms from geometric mixing rule
Per MPI rank memory allocation (min/avg/max) = 13.32 | 13.86 | 14.98 Mbytes
   Step          Temp          E_pair         E_mol          TotEng         Press     
    510000   299.03684      379.55381      18556.495      19363.908      92.753485    
    520000   311.11622      371.61412      18552.85       19369.606     -206.02079    
    530000   314.02054      369.89091      18542.269      19361.457     -146.9349     
    540000   291.20217      376.89099      18541.265      19334.804     -44.710921    
    550000   294.66097      369.52462      18531.169      19322.291     -159.79423    
    560000   300.25216      372.99577      18559.931      19362.524     -110.43602    
Loop time of 15.2058 on 48 procs for 50000 steps with 481 atoms

Performance: 14.205 ns/day, 1.690 hours/ns, 3288.220 timesteps/s, 1.582 Matom-step/s
100.0% CPU use with 48 MPI tasks x 1 OpenMP threads

MPI task timing breakdown:
Section |  min time  |  avg time  |  max time  |%varavg| %total
---------------------------------------------------------------
Pair    | 0.017024   | 0.7174     | 3.7421     | 121.4 |  4.72
Bond    | 0.0051171  | 0.9125     | 4.1622     | 127.8 |  6.00
Neigh   | 0.029251   | 0.033139   | 0.036171   |   0.9 |  0.22
Comm    | 6.0525     | 11.236     | 13.647     |  72.2 | 73.89
Output  | 0.0056679  | 0.010887   | 0.01614    |   3.2 |  0.07
Modify  | 0.60442    | 1.7466     | 6.6252     | 155.7 | 11.49
Other   |            | 0.5493     |            |       |  3.61

Nlocal:        10.0208 ave          40 max           0 min
Histogram: 19 5 10 5 1 0 0 4 3 1
Nghost:        1925.48 ave        2401 max        1333 min
Histogram: 8 0 0 0 24 0 0 0 0 16
Neighs:              0 ave           0 max           0 min
Histogram: 48 0 0 0 0 0 0 0 0 0

Total # of neighbors = 0
Ave neighs/atom = 0
Ave special neighs/atom = 15.567568
Neighbor list builds = 93
Dangerous builds = 0
unfix           myat1
next            cpt
jump            SELF loop
variable        zdes equal  -15+0.60*(${cpt}-1)
variable        zdes equal  -15+0.60*(10-1)
variable        zave equal xcm(H2,z)
fix             mytth2 H2 spring tether ${k1} 2.5 2.5 ${zdes} 0
fix             mytth2 H2 spring tether 2.5 2.5 2.5 ${zdes} 0
fix             mytth2 H2 spring tether 2.5 2.5 2.5 -9.6 0
run             10000
Generated 0 of 1 mixed pair_coeff terms from geometric mixing rule
Per MPI rank memory allocation (min/avg/max) = 13.32 | 13.86 | 14.98 Mbytes
   Step          Temp          E_pair         E_mol          TotEng         Press     
    560000   300.25216      372.99577      18559.931      19362.524     -110.43602    
    570000   311.43496      374.46378      18560.091      19380.152      87.601977    
Loop time of 3.08665 on 48 procs for 10000 steps with 481 atoms

Performance: 13.996 ns/day, 1.715 hours/ns, 3239.763 timesteps/s, 1.558 Matom-step/s
100.0% CPU use with 48 MPI tasks x 1 OpenMP threads

MPI task timing breakdown:
Section |  min time  |  avg time  |  max time  |%varavg| %total
---------------------------------------------------------------
Pair    | 0.0035687  | 0.14364    | 0.77778    |  54.5 |  4.65
Bond    | 0.0010218  | 0.18273    | 0.89655    |  57.5 |  5.92
Neigh   | 0.005782   | 0.006492   | 0.0070446  |   0.4 |  0.21
Comm    | 1.1686     | 2.2854     | 2.788      |  33.2 | 74.04
Output  | 0.0011855  | 0.0027359  | 0.0043992  |   2.2 |  0.09
Modify  | 0.12098    | 0.35531    | 1.4005     |  72.9 | 11.51
Other   |            | 0.1103     |            |       |  3.57

Nlocal:        10.0208 ave          48 max           0 min
Histogram: 22 6 8 4 1 1 2 2 1 1
Nghost:        1930.98 ave        2410 max        1325 min
Histogram: 8 0 0 0 24 0 0 0 0 16
Neighs:              0 ave           0 max           0 min
Histogram: 48 0 0 0 0 0 0 0 0 0

Total # of neighbors = 0
Ave neighs/atom = 0
Ave special neighs/atom = 15.567568
Neighbor list builds = 18
Dangerous builds = 0
fix             myat1 all ave/time 1000 10 10000 v_zave v_zdes file simulation_data/abpot/${cpt}.dat
fix             myat1 all ave/time 1000 10 10000 v_zave v_zdes file simulation_data/abpot/10.dat
run             50000
Generated 0 of 1 mixed pair_coeff terms from geometric mixing rule
Per MPI rank memory allocation (min/avg/max) = 13.32 | 13.86 | 14.98 Mbytes
   Step          Temp          E_pair         E_mol          TotEng         Press     
    570000   311.43496      374.46378      18560.091      19380.152      87.601977    
    580000   308.72339      377.88482      18520.156      19339.758     -35.816812    
    590000   301.42396      381.30378      18511.802      19324.38       179.09464    
    600000   281.95183      375.11681      18548.147      19326.677     -151.22076    
    610000   293.86859      376.55566      18524.218      19321.237     -110.17999    
    620000   293.62859      374.91638      18526.018      19321.055     -52.832715    
Loop time of 15.0902 on 48 procs for 50000 steps with 481 atoms

Performance: 14.314 ns/day, 1.677 hours/ns, 3313.417 timesteps/s, 1.594 Matom-step/s
100.0% CPU use with 48 MPI tasks x 1 OpenMP threads

MPI task timing breakdown:
Section |  min time  |  avg time  |  max time  |%varavg| %total
---------------------------------------------------------------
Pair    | 0.016837   | 0.71729    | 3.6511     | 121.0 |  4.75
Bond    | 0.005092   | 0.91195    | 4.1197     | 127.7 |  6.04
Neigh   | 0.020595   | 0.023339   | 0.025457   |   0.8 |  0.15
Comm    | 6.0791     | 11.114     | 13.515     |  72.1 | 73.65
Output  | 0.005631   | 0.01065    | 0.015763   |   3.1 |  0.07
Modify  | 0.59426    | 1.7657     | 6.6344     | 154.1 | 11.70
Other   |            | 0.5471     |            |       |  3.63

Nlocal:        10.0208 ave          46 max           0 min
Histogram: 21 5 13 1 0 2 2 2 1 1
Nghost:        1938.48 ave        2426 max        1327 min
Histogram: 8 0 0 0 24 0 0 0 0 16
Neighs:              0 ave           0 max           0 min
Histogram: 48 0 0 0 0 0 0 0 0 0

Total # of neighbors = 0
Ave neighs/atom = 0
Ave special neighs/atom = 15.567568
Neighbor list builds = 66
Dangerous builds = 0
unfix           myat1
next            cpt
jump            SELF loop
variable        zdes equal  -15+0.60*(${cpt}-1)
variable        zdes equal  -15+0.60*(11-1)
variable        zave equal xcm(H2,z)
fix             mytth2 H2 spring tether ${k1} 2.5 2.5 ${zdes} 0
fix             mytth2 H2 spring tether 2.5 2.5 2.5 ${zdes} 0
fix             mytth2 H2 spring tether 2.5 2.5 2.5 -9 0
run             10000
Generated 0 of 1 mixed pair_coeff terms from geometric mixing rule
Per MPI rank memory allocation (min/avg/max) = 13.32 | 13.86 | 14.98 Mbytes
   Step          Temp          E_pair         E_mol          TotEng         Press     
    620000   293.62859      374.91638      18526.018      19321.055     -52.832715    
    630000   302.57479      376.14793      18538.763      19347.831     -78.129896    
Loop time of 3.00745 on 48 procs for 10000 steps with 481 atoms

Performance: 14.364 ns/day, 1.671 hours/ns, 3325.078 timesteps/s, 1.599 Matom-step/s
100.0% CPU use with 48 MPI tasks x 1 OpenMP threads

MPI task timing breakdown:
Section |  min time  |  avg time  |  max time  |%varavg| %total
---------------------------------------------------------------
Pair    | 0.0033999  | 0.14397    | 0.76854    |  54.1 |  4.79
Bond    | 0.00101    | 0.18285    | 0.83164    |  57.3 |  6.08
Neigh   | 0.0016013  | 0.0018007  | 0.0019602  |   0.2 |  0.06
Comm    | 1.1804     | 2.2181     | 2.7102     |  33.0 | 73.75
Output  | 0.0011317  | 0.0021243  | 0.0031437  |   1.4 |  0.07
Modify  | 0.11906    | 0.34895    | 1.3462     |  71.0 | 11.60
Other   |            | 0.1097     |            |       |  3.65

Nlocal:        10.0208 ave          40 max           0 min
Histogram: 19 5 10 5 1 0 2 1 2 3
Nghost:         1934.1 ave        2417 max        1334 min
Histogram: 8 0 0 0 24 0 0 0 0 16
Neighs:              0 ave           0 max           0 min
Histogram: 48 0 0 0 0 0 0 0 0 0

Total # of neighbors = 0
Ave neighs/atom = 0
Ave special neighs/atom = 15.567568
Neighbor list builds = 5
Dangerous builds = 0
fix             myat1 all ave/time 1000 10 10000 v_zave v_zdes file simulation_data/abpot/${cpt}.dat
fix             myat1 all ave/time 1000 10 10000 v_zave v_zdes file simulation_data/abpot/11.dat
run             50000
Generated 0 of 1 mixed pair_coeff terms from geometric mixing rule
Per MPI rank memory allocation (min/avg/max) = 13.32 | 13.86 | 14.98 Mbytes
   Step          Temp          E_pair         E_mol          TotEng         Press     
    630000   302.57479      376.14793      18538.763      19347.831     -78.129896    
    640000   298.82044      373.88785      18549.947      19351.384     -63.458612    
    650000   291.85359      386.86018      18514.801      19319.242      212.05729    
    660000   291.02826      373.51962      18526.287      19316.207     -75.875473    
    670000   298.73522      379.75069      18512.593      19319.77       168.31565    
    680000   294.70711      371.18665      18535.58       19328.43      -297.55877    
Loop time of 15.2299 on 48 procs for 50000 steps with 481 atoms

Performance: 14.183 ns/day, 1.692 hours/ns, 3283.025 timesteps/s, 1.579 Matom-step/s
100.0% CPU use with 48 MPI tasks x 1 OpenMP threads

MPI task timing breakdown:
Section |  min time  |  avg time  |  max time  |%varavg| %total
---------------------------------------------------------------
Pair    | 0.017259   | 0.7178     | 3.7248     | 120.9 |  4.71
Bond    | 0.0050783  | 0.91224    | 4.2472     | 128.0 |  5.99
Neigh   | 0.018229   | 0.020637   | 0.022456   |   0.7 |  0.14
Comm    | 6.0379     | 11.247     | 13.694     |  73.1 | 73.85
Output  | 0.0056585  | 0.010699   | 0.016116   |   3.1 |  0.07
Modify  | 0.59378    | 1.773      | 6.7894     | 159.0 | 11.64
Other   |            | 0.5481     |            |       |  3.60

Nlocal:        10.0208 ave          50 max           0 min
Histogram: 22 8 7 3 1 3 0 3 0 1
Nghost:        1931.85 ave        2408 max        1323 min
Histogram: 8 0 0 0 24 0 0 0 0 16
Neighs:              0 ave           0 max           0 min
Histogram: 48 0 0 0 0 0 0 0 0 0

Total # of neighbors = 0
Ave neighs/atom = 0
Ave special neighs/atom = 15.567568
Neighbor list builds = 58
Dangerous builds = 0
unfix           myat1
next            cpt
jump            SELF loop
variable        zdes equal  -15+0.60*(${cpt}-1)
variable        zdes equal  -15+0.60*(12-1)
variable        zave equal xcm(H2,z)
fix             mytth2 H2 spring tether ${k1} 2.5 2.5 ${zdes} 0
fix             mytth2 H2 spring tether 2.5 2.5 2.5 ${zdes} 0
fix             mytth2 H2 spring tether 2.5 2.5 2.5 -8.4 0
run             10000
Generated 0 of 1 mixed pair_coeff terms from geometric mixing rule
Per MPI rank memory allocation (min/avg/max) = 13.32 | 13.86 | 14.98 Mbytes
   Step          Temp          E_pair         E_mol          TotEng         Press     
    680000   294.70711      371.18665      18535.58       19328.43      -297.55877    
    690000   305.20668      373.61861      18541.963      19352.268     -131.5177     
Loop time of 3.0054 on 48 procs for 10000 steps with 481 atoms

Performance: 14.374 ns/day, 1.670 hours/ns, 3327.348 timesteps/s, 1.600 Matom-step/s
100.0% CPU use with 48 MPI tasks x 1 OpenMP threads

MPI task timing breakdown:
Section |  min time  |  avg time  |  max time  |%varavg| %total
---------------------------------------------------------------
Pair    | 0.0033594  | 0.14381    | 0.7352     |  54.3 |  4.79
Bond    | 0.0010363  | 0.18232    | 0.81923    |  56.8 |  6.07
Neigh   | 0.0048988  | 0.0055765  | 0.0060655  |   0.4 |  0.19
Comm    | 1.243      | 2.2142     | 2.6977     |  32.4 | 73.68
Output  | 0.0011508  | 0.0021514  | 0.0033972  |   1.4 |  0.07
Modify  | 0.1133     | 0.34766    | 1.3218     |  69.7 | 11.57
Other   |            | 0.1096     |            |       |  3.65

Nlocal:        10.0208 ave          51 max           0 min
Histogram: 24 8 4 5 2 1 0 3 0 1
Nghost:        1928.48 ave        2404 max        1322 min
Histogram: 8 0 0 0 24 0 0 0 0 16
Neighs:              0 ave           0 max           0 min
Histogram: 48 0 0 0 0 0 0 0 0 0

Total # of neighbors = 0
Ave neighs/atom = 0
Ave special neighs/atom = 15.567568
Neighbor list builds = 16
Dangerous builds = 0
fix             myat1 all ave/time 1000 10 10000 v_zave v_zdes file simulation_data/abpot/${cpt}.dat
fix             myat1 all ave/time 1000 10 10000 v_zave v_zdes file simulation_data/abpot/12.dat
run             50000
Generated 0 of 1 mixed pair_coeff terms from geometric mixing rule
Per MPI rank memory allocation (min/avg/max) = 13.32 | 13.86 | 14.98 Mbytes
   Step          Temp          E_pair         E_mol          TotEng         Press     
    690000   305.20668      373.61861      18541.963      19352.268     -131.5177     
    700000   290.0517       387.17427      18513.505      19315.682      225.52463    
    710000   286.31863      371.34295      18534.165      19315.17      -118.58454    
    720000   300.28398      368.2581       18532.638      19330.539     -359.93386    
    730000   301.01499      380.13753      18533.232      19344.058      98.631163    
    740000   295.99509      379.13202      18509.007      19311.645     -216.09724    
Loop time of 15.3582 on 48 procs for 50000 steps with 481 atoms

Performance: 14.064 ns/day, 1.706 hours/ns, 3255.585 timesteps/s, 1.566 Matom-step/s
100.0% CPU use with 48 MPI tasks x 1 OpenMP threads

MPI task timing breakdown:
Section |  min time  |  avg time  |  max time  |%varavg| %total
---------------------------------------------------------------
Pair    | 0.017016   | 0.71959    | 3.8184     | 121.4 |  4.69
Bond    | 0.0050856  | 0.91268    | 4.3154     | 128.1 |  5.94
Neigh   | 0.023775   | 0.02692    | 0.029255   |   0.8 |  0.18
Comm    | 5.9899     | 11.351     | 13.79      |  73.1 | 73.91
Output  | 0.0058881  | 0.010967   | 0.016223   |   3.1 |  0.07
Modify  | 0.60033    | 1.788      | 6.9231     | 159.2 | 11.64
Other   |            | 0.549      |            |       |  3.57

Nlocal:        10.0208 ave          44 max           0 min
Histogram: 22 4 11 3 0 2 0 4 0 2
Nghost:        1933.48 ave        2414 max        1329 min
Histogram: 8 0 0 0 24 0 0 0 0 16
Neighs:              0 ave           0 max           0 min
Histogram: 48 0 0 0 0 0 0 0 0 0

Total # of neighbors = 0
Ave neighs/atom = 0
Ave special neighs/atom = 15.567568
Neighbor list builds = 75
Dangerous builds = 0
unfix           myat1
next            cpt
jump            SELF loop
variable        zdes equal  -15+0.60*(${cpt}-1)
variable        zdes equal  -15+0.60*(13-1)
variable        zave equal xcm(H2,z)
fix             mytth2 H2 spring tether ${k1} 2.5 2.5 ${zdes} 0
fix             mytth2 H2 spring tether 2.5 2.5 2.5 ${zdes} 0
fix             mytth2 H2 spring tether 2.5 2.5 2.5 -7.8 0
run             10000
Generated 0 of 1 mixed pair_coeff terms from geometric mixing rule
Per MPI rank memory allocation (min/avg/max) = 13.32 | 13.86 | 14.98 Mbytes
   Step          Temp          E_pair         E_mol          TotEng         Press     
    740000   295.99509      379.13202      18509.007      19311.645     -216.09724    
    750000   290.55272      371.67779      18526.045      19313.443     -240.71012    
Loop time of 3.14891 on 48 procs for 10000 steps with 481 atoms

Performance: 13.719 ns/day, 1.749 hours/ns, 3175.704 timesteps/s, 1.528 Matom-step/s
100.0% CPU use with 48 MPI tasks x 1 OpenMP threads

MPI task timing breakdown:
Section |  min time  |  avg time  |  max time  |%varavg| %total
---------------------------------------------------------------
Pair    | 0.0033508  | 0.1441     | 0.80679    |  54.6 |  4.58
Bond    | 0.0010227  | 0.18254    | 0.88757    |  57.8 |  5.80
Neigh   | 0.0048536  | 0.0054658  | 0.0059096  |   0.3 |  0.17
Comm    | 1.2249     | 2.3357     | 2.846      |  33.7 | 74.17
Output  | 0.001174   | 0.0021818  | 0.0032024  |   1.4 |  0.07
Modify  | 0.11881    | 0.36907    | 1.453      |  74.7 | 11.72
Other   |            | 0.1099     |            |       |  3.49

Nlocal:        10.0208 ave          43 max           0 min
Histogram: 22 3 11 4 0 0 3 2 2 1
Nghost:        1927.73 ave        2414 max        1330 min
Histogram: 8 0 0 0 24 0 0 0 0 16
Neighs:              0 ave           0 max           0 min
Histogram: 48 0 0 0 0 0 0 0 0 0

Total # of neighbors = 0
Ave neighs/atom = 0
Ave special neighs/atom = 15.567568
Neighbor list builds = 14
Dangerous builds = 0
fix             myat1 all ave/time 1000 10 10000 v_zave v_zdes file simulation_data/abpot/${cpt}.dat
fix             myat1 all ave/time 1000 10 10000 v_zave v_zdes file simulation_data/abpot/13.dat
run             50000
Generated 0 of 1 mixed pair_coeff terms from geometric mixing rule
Per MPI rank memory allocation (min/avg/max) = 13.32 | 13.86 | 14.98 Mbytes
   Step          Temp          E_pair         E_mol          TotEng         Press     
    750000   290.55272      371.67779      18526.045      19313.443     -240.71012    
    760000   294.92676      379.14653      18537.069      19338.194     -62.273011    
    770000   314.58272      376.84078      18512.68       19339.622     -131.25734    
    780000   297.74168      379.8619       18519.505      19325.372      96.332674    
    790000   304.67757      377.38318      18506.403      19319.716     -196.47085    
    800000   305.36464      367.73174      18525.41       19330.054     -274.15283    
Loop time of 15.7161 on 48 procs for 50000 steps with 481 atoms

Performance: 13.744 ns/day, 1.746 hours/ns, 3181.459 timesteps/s, 1.530 Matom-step/s
100.0% CPU use with 48 MPI tasks x 1 OpenMP threads

MPI task timing breakdown:
Section |  min time  |  avg time  |  max time  |%varavg| %total
---------------------------------------------------------------
Pair    | 0.016914   | 0.72144    | 3.865      | 122.1 |  4.59
Bond    | 0.0050561  | 0.91307    | 4.2568     | 127.9 |  5.81
Neigh   | 0.026      | 0.029397   | 0.031797   |   0.8 |  0.19
Comm    | 6.3493     | 11.651     | 14.135     |  74.5 | 74.14
Output  | 0.0057644  | 0.010833   | 0.016069   |   3.1 |  0.07
Modify  | 0.58809    | 1.8421     | 7.2006     | 166.5 | 11.72
Other   |            | 0.5481     |            |       |  3.49

Nlocal:        10.0208 ave          44 max           0 min
Histogram: 21 8 6 5 1 0 2 2 1 2
Nghost:         1927.6 ave        2408 max        1330 min
Histogram: 8 0 0 0 24 0 0 0 0 16
Neighs:              0 ave           0 max           0 min
Histogram: 48 0 0 0 0 0 0 0 0 0

Total # of neighbors = 0
Ave neighs/atom = 0
Ave special neighs/atom = 15.567568
Neighbor list builds = 80
Dangerous builds = 0
unfix           myat1
next            cpt
jump            SELF loop
variable        zdes equal  -15+0.60*(${cpt}-1)
variable        zdes equal  -15+0.60*(14-1)
variable        zave equal xcm(H2,z)
fix             mytth2 H2 spring tether ${k1} 2.5 2.5 ${zdes} 0
fix             mytth2 H2 spring tether 2.5 2.5 2.5 ${zdes} 0
fix             mytth2 H2 spring tether 2.5 2.5 2.5 -7.2 0
run             10000
Generated 0 of 1 mixed pair_coeff terms from geometric mixing rule
Per MPI rank memory allocation (min/avg/max) = 13.32 | 13.86 | 14.98 Mbytes
   Step          Temp          E_pair         E_mol          TotEng         Press     
    800000   305.36464      367.73174      18525.41       19330.054     -274.15283    
    810000   292.81805      394.47324      18493.914      19307.348      6.0647075    
Loop time of 3.10948 on 48 procs for 10000 steps with 481 atoms

Performance: 13.893 ns/day, 1.727 hours/ns, 3215.971 timesteps/s, 1.547 Matom-step/s
100.0% CPU use with 48 MPI tasks x 1 OpenMP threads

MPI task timing breakdown:
Section |  min time  |  avg time  |  max time  |%varavg| %total
---------------------------------------------------------------
Pair    | 0.0033309  | 0.14507    | 0.79775    |  55.2 |  4.67
Bond    | 0.0010208  | 0.18226    | 0.79856    |  56.5 |  5.86
Neigh   | 0.0097533  | 0.011131   | 0.012026   |   0.5 |  0.36
Comm    | 1.3047     | 2.2915     | 2.7991     |  32.7 | 73.69
Output  | 0.0011411  | 0.0021749  | 0.0032267  |   1.4 |  0.07
Modify  | 0.11784    | 0.36817    | 1.3968     |  71.8 | 11.84
Other   |            | 0.1092     |            |       |  3.51

Nlocal:        10.0208 ave          36 max           0 min
Histogram: 18 7 7 5 3 0 0 1 2 5
Nghost:        1933.48 ave        2414 max        1337 min
Histogram: 8 0 0 0 24 0 0 0 0 16
Neighs:              0 ave           0 max           0 min
Histogram: 48 0 0 0 0 0 0 0 0 0

Total # of neighbors = 0
Ave neighs/atom = 0
Ave special neighs/atom = 15.567568
Neighbor list builds = 32
Dangerous builds = 0
fix             myat1 all ave/time 1000 10 10000 v_zave v_zdes file simulation_data/abpot/${cpt}.dat
fix             myat1 all ave/time 1000 10 10000 v_zave v_zdes file simulation_data/abpot/14.dat
run             50000
Generated 0 of 1 mixed pair_coeff terms from geometric mixing rule
Per MPI rank memory allocation (min/avg/max) = 13.32 | 13.86 | 14.98 Mbytes
   Step          Temp          E_pair         E_mol          TotEng         Press     
    810000   292.81805      394.47324      18493.914      19307.348      6.0647075    
    820000   293.34996      394.18327      18475.854      19289.759      40.107217    
    830000   293.65949      390.82005      18523.511      19334.495     -86.555521    
    840000   300.23854      387.86924      18520.531      19337.979     -138.03642    
    850000   293.98787      373.04101      18548.274      19341.95      -267.999      
    860000   313.17182      382.6717       18490.169      19320.923      165.65976    
Loop time of 15.4038 on 48 procs for 50000 steps with 481 atoms

Performance: 14.023 ns/day, 1.712 hours/ns, 3245.959 timesteps/s, 1.561 Matom-step/s
100.0% CPU use with 48 MPI tasks x 1 OpenMP threads

MPI task timing breakdown:
Section |  min time  |  avg time  |  max time  |%varavg| %total
---------------------------------------------------------------
Pair    | 0.017316   | 0.7279     | 4.095      | 123.8 |  4.73
Bond    | 0.0051066  | 0.91252    | 3.9978     | 126.9 |  5.92
Neigh   | 0.052531   | 0.059481   | 0.064452   |   1.2 |  0.39
Comm    | 6.0443     | 11.368     | 13.786     |  72.6 | 73.80
Output  | 0.0056432  | 0.010812   | 0.016113   |   3.1 |  0.07
Modify  | 0.59309    | 1.7786     | 6.7354     | 157.1 | 11.55
Other   |            | 0.5462     |            |       |  3.55

Nlocal:        10.0208 ave          42 max           0 min
Histogram: 22 3 10 4 1 0 3 0 4 1
Nghost:        1934.98 ave        2418 max        1331 min
Histogram: 8 0 0 0 24 0 0 0 0 16
Neighs:              0 ave           0 max           0 min
Histogram: 48 0 0 0 0 0 0 0 0 0

Total # of neighbors = 0
Ave neighs/atom = 0
Ave special neighs/atom = 15.567568
Neighbor list builds = 167
Dangerous builds = 0
unfix           myat1
next            cpt
jump            SELF loop
variable        zdes equal  -15+0.60*(${cpt}-1)
variable        zdes equal  -15+0.60*(15-1)
variable        zave equal xcm(H2,z)
fix             mytth2 H2 spring tether ${k1} 2.5 2.5 ${zdes} 0
fix             mytth2 H2 spring tether 2.5 2.5 2.5 ${zdes} 0
fix             mytth2 H2 spring tether 2.5 2.5 2.5 -6.6 0
run             10000
Generated 0 of 1 mixed pair_coeff terms from geometric mixing rule
Per MPI rank memory allocation (min/avg/max) = 13.32 | 13.86 | 14.98 Mbytes
   Step          Temp          E_pair         E_mol          TotEng         Press     
    860000   313.17182      382.6717       18490.169      19320.923      165.65976    
    870000   311.04403      381.00875      18514.397      19340.445     -278.95943    
Loop time of 3.12631 on 48 procs for 10000 steps with 481 atoms

Performance: 13.818 ns/day, 1.737 hours/ns, 3198.658 timesteps/s, 1.539 Matom-step/s
100.0% CPU use with 48 MPI tasks x 1 OpenMP threads

MPI task timing breakdown:
Section |  min time  |  avg time  |  max time  |%varavg| %total
---------------------------------------------------------------
Pair    | 0.0033836  | 0.14521    | 0.80752    |  54.9 |  4.64
Bond    | 0.0010079  | 0.18252    | 0.82936    |  56.6 |  5.84
Neigh   | 0.013265   | 0.014863   | 0.016085   |   0.6 |  0.48
Comm    | 1.2286     | 2.3036     | 2.8016     |  32.7 | 73.68
Output  | 0.0011091  | 0.0021374  | 0.0031893  |   1.4 |  0.07
Modify  | 0.1124     | 0.36875    | 1.4214     |  72.7 | 11.79
Other   |            | 0.1093     |            |       |  3.50

Nlocal:        10.0208 ave          38 max           0 min
Histogram: 20 6 6 6 1 1 1 1 2 4
Nghost:        1926.35 ave        2406 max        1335 min
Histogram: 8 0 0 0 24 0 0 0 0 16
Neighs:              0 ave           0 max           0 min
Histogram: 48 0 0 0 0 0 0 0 0 0

Total # of neighbors = 0
Ave neighs/atom = 0
Ave special neighs/atom = 15.567568
Neighbor list builds = 39
Dangerous builds = 0
fix             myat1 all ave/time 1000 10 10000 v_zave v_zdes file simulation_data/abpot/${cpt}.dat
fix             myat1 all ave/time 1000 10 10000 v_zave v_zdes file simulation_data/abpot/15.dat
run             50000
Generated 0 of 1 mixed pair_coeff terms from geometric mixing rule
Per MPI rank memory allocation (min/avg/max) = 13.32 | 13.86 | 14.98 Mbytes
   Step          Temp          E_pair         E_mol          TotEng         Press     
    870000   311.04403      381.00875      18514.397      19340.445     -278.95943    
    880000   293.32356      387.41864      18525.625      19332.728     -252.15014    
    890000   318.162        397.47023      18511.08       19363.773      7.2603473    
    900000   322.28476      384.47414      18535.554      19381.149     -53.628719    
    910000   298.95214      386.98383      18523.957      19338.679     -187.73742    
    920000   281.1709       394.14218      18523.328      19319.766     -40.65602     
Loop time of 15.5683 on 48 procs for 50000 steps with 481 atoms

Performance: 13.874 ns/day, 1.730 hours/ns, 3211.653 timesteps/s, 1.545 Matom-step/s
100.0% CPU use with 48 MPI tasks x 1 OpenMP threads

MPI task timing breakdown:
Section |  min time  |  avg time  |  max time  |%varavg| %total
---------------------------------------------------------------
Pair    | 0.016872   | 0.72822    | 3.9993     | 123.1 |  4.68
Bond    | 0.0051038  | 0.91275    | 4.0502     | 126.2 |  5.86
Neigh   | 0.066731   | 0.075518   | 0.082214   |   1.4 |  0.49
Comm    | 6.4161     | 11.466     | 13.937     |  73.9 | 73.65
Output  | 0.0058016  | 0.011033   | 0.016296   |   3.1 |  0.07
Modify  | 0.59327    | 1.8292     | 7.0489     | 162.9 | 11.75
Other   |            | 0.5453     |            |       |  3.50

Nlocal:        10.0208 ave          49 max           0 min
Histogram: 21 9 6 5 0 2 1 2 1 1
Nghost:        1928.25 ave        2408 max        1324 min
Histogram: 8 0 0 0 24 0 0 0 0 16
Neighs:              0 ave           0 max           0 min
Histogram: 48 0 0 0 0 0 0 0 0 0

Total # of neighbors = 0
Ave neighs/atom = 0
Ave special neighs/atom = 15.567568
Neighbor list builds = 209
Dangerous builds = 0
unfix           myat1
next            cpt
jump            SELF loop
variable        zdes equal  -15+0.60*(${cpt}-1)
variable        zdes equal  -15+0.60*(16-1)
variable        zave equal xcm(H2,z)
fix             mytth2 H2 spring tether ${k1} 2.5 2.5 ${zdes} 0
fix             mytth2 H2 spring tether 2.5 2.5 2.5 ${zdes} 0
fix             mytth2 H2 spring tether 2.5 2.5 2.5 -6 0
run             10000
Generated 0 of 1 mixed pair_coeff terms from geometric mixing rule
Per MPI rank memory allocation (min/avg/max) = 13.32 | 13.86 | 14.98 Mbytes
   Step          Temp          E_pair         E_mol          TotEng         Press     
    920000   281.1709       394.14218      18523.328      19319.766     -40.65602     
    930000   298.49305      386.76268      18506.906      19320.749     -217.16482    
Loop time of 3.16267 on 48 procs for 10000 steps with 481 atoms

Performance: 13.659 ns/day, 1.757 hours/ns, 3161.889 timesteps/s, 1.521 Matom-step/s
100.0% CPU use with 48 MPI tasks x 1 OpenMP threads

MPI task timing breakdown:
Section |  min time  |  avg time  |  max time  |%varavg| %total
---------------------------------------------------------------
Pair    | 0.0033637  | 0.14611    | 0.77436    |  54.8 |  4.62
Bond    | 0.0010111  | 0.18263    | 0.80195    |  56.3 |  5.77
Neigh   | 0.017426   | 0.019755   | 0.021474   |   0.7 |  0.62
Comm    | 1.3469     | 2.3268     | 2.8477     |  33.4 | 73.57
Output  | 0.001162   | 0.0021758  | 0.0032183  |   1.4 |  0.07
Modify  | 0.11308    | 0.37659    | 1.4741     |  75.4 | 11.91
Other   |            | 0.1086     |            |       |  3.43

Nlocal:        10.0208 ave          49 max           0 min
Histogram: 21 8 9 2 1 2 1 3 0 1
Nghost:        1927.73 ave        2410 max        1324 min
Histogram: 8 0 0 0 24 0 0 0 0 16
Neighs:              0 ave           0 max           0 min
Histogram: 48 0 0 0 0 0 0 0 0 0

Total # of neighbors = 0
Ave neighs/atom = 0
Ave special neighs/atom = 15.567568
Neighbor list builds = 53
Dangerous builds = 0
fix             myat1 all ave/time 1000 10 10000 v_zave v_zdes file simulation_data/abpot/${cpt}.dat
fix             myat1 all ave/time 1000 10 10000 v_zave v_zdes file simulation_data/abpot/16.dat
run             50000
Generated 0 of 1 mixed pair_coeff terms from geometric mixing rule
Per MPI rank memory allocation (min/avg/max) = 13.32 | 13.86 | 14.98 Mbytes
   Step          Temp          E_pair         E_mol          TotEng         Press     
    930000   298.49305      386.76268      18506.906      19320.749     -217.16482    
    940000   297.29996      384.65078      18531.653      19341.677     -341.06305    
    950000   270.26694      391.05742      18522.047      19299.799     -69.745588    
    960000   285.39086      393.92669      18522.655      19324.915     -23.834344    
    970000   316.01667      387.63656      18507.836      19347.626      39.018824    
    980000   322.45693      394.80484      18512.565      19368.737      11.783437    
Loop time of 16.018 on 48 procs for 50000 steps with 481 atoms

Performance: 13.485 ns/day, 1.780 hours/ns, 3121.479 timesteps/s, 1.501 Matom-step/s
100.0% CPU use with 48 MPI tasks x 1 OpenMP threads

MPI task timing breakdown:
Section |  min time  |  avg time  |  max time  |%varavg| %total
---------------------------------------------------------------
Pair    | 0.016998   | 0.73026    | 4.0486     | 123.3 |  4.56
Bond    | 0.0050613  | 0.91351    | 3.9885     | 126.6 |  5.70
Neigh   | 0.089141   | 0.10027    | 0.10872    |   1.5 |  0.63
Comm    | 6.6999     | 11.834     | 14.348     |  74.9 | 73.88
Output  | 0.0058518  | 0.011035   | 0.016479   |   3.1 |  0.07
Modify  | 0.59704    | 1.884      | 7.3723     | 169.3 | 11.76
Other   |            | 0.545      |            |       |  3.40

Nlocal:        10.0208 ave          49 max           0 min
Histogram: 22 6 12 1 1 1 1 1 2 1
Nghost:        1927.35 ave        2402 max        1331 min
Histogram: 8 0 0 0 24 0 0 0 0 16
Neighs:              0 ave           0 max           0 min
Histogram: 48 0 0 0 0 0 0 0 0 0

Total # of neighbors = 0
Ave neighs/atom = 0
Ave special neighs/atom = 15.567568
Neighbor list builds = 266
Dangerous builds = 0
unfix           myat1
next            cpt
jump            SELF loop
variable        zdes equal  -15+0.60*(${cpt}-1)
variable        zdes equal  -15+0.60*(17-1)
variable        zave equal xcm(H2,z)
fix             mytth2 H2 spring tether ${k1} 2.5 2.5 ${zdes} 0
fix             mytth2 H2 spring tether 2.5 2.5 2.5 ${zdes} 0
fix             mytth2 H2 spring tether 2.5 2.5 2.5 -5.4 0
run             10000
Generated 0 of 1 mixed pair_coeff terms from geometric mixing rule
Per MPI rank memory allocation (min/avg/max) = 13.32 | 13.86 | 14.98 Mbytes
   Step          Temp          E_pair         E_mol          TotEng         Press     
    980000   322.45693      394.80484      18512.565      19368.737      11.783437    
    990000   297.24663      394.60757      18504.507      19324.412     -6.7246193    
Loop time of 3.23444 on 48 procs for 10000 steps with 481 atoms

Performance: 13.356 ns/day, 1.797 hours/ns, 3091.724 timesteps/s, 1.487 Matom-step/s
100.0% CPU use with 48 MPI tasks x 1 OpenMP threads

MPI task timing breakdown:
Section |  min time  |  avg time  |  max time  |%varavg| %total
---------------------------------------------------------------
Pair    | 0.003416   | 0.1463     | 0.80035    |  55.6 |  4.52
Bond    | 0.0010233  | 0.18321    | 0.79023    |  56.4 |  5.66
Neigh   | 0.018915   | 0.021194   | 0.023001   |   0.7 |  0.66
Comm    | 1.4376     | 2.3875     | 2.9262     |  34.2 | 73.82
Output  | 0.0011784  | 0.0022274  | 0.0032955  |   1.4 |  0.07
Modify  | 0.11688    | 0.38519    | 1.5042     |  78.2 | 11.91
Other   |            | 0.1088     |            |       |  3.36

Nlocal:        10.0208 ave          51 max           0 min
Histogram: 22 10 9 1 0 0 4 0 0 2
Nghost:        1927.48 ave        2402 max        1325 min
Histogram: 8 0 0 0 24 0 0 0 0 16
Neighs:              0 ave           0 max           0 min
Histogram: 48 0 0 0 0 0 0 0 0 0

Total # of neighbors = 0
Ave neighs/atom = 0
Ave special neighs/atom = 15.567568
[...]
Section |  min time  |  avg time  |  max time  |%varavg| %total
---------------------------------------------------------------
Pair    | 0.0033501  | 0.1435     | 0.78545    |  53.2 |  4.72
Bond    | 0.0010212  | 0.18189    | 0.77296    |  56.3 |  5.98
Neigh   | 0.0034087  | 0.0038953  | 0.0042496  |   0.3 |  0.13
Comm    | 1.3561     | 2.2636     | 2.7521     |  31.6 | 74.41
Output  | 0.0011251  | 0.0021357  | 0.0031884  |   1.4 |  0.07
Modify  | 0.11364    | 0.33826    | 1.3558     |  69.7 | 11.12
Other   |            | 0.1086     |            |       |  3.57

Nlocal:        10.0208 ave          43 max           0 min
Histogram: 22 8 4 6 0 2 1 2 0 3
Nghost:        1937.35 ave        2423 max        1330 min
Histogram: 8 0 0 0 24 0 0 0 0 16
Neighs:              0 ave           0 max           0 min
Histogram: 48 0 0 0 0 0 0 0 0 0

Total # of neighbors = 0
Ave neighs/atom = 0
Ave special neighs/atom = 15.567568
Neighbor list builds = 11
Dangerous builds = 0
fix             myat1 all ave/time 1000 10 10000 v_zave v_zdes file simulation_data/abpot/${cpt}.dat
fix             myat1 all ave/time 1000 10 10000 v_zave v_zdes file simulation_data/abpot/47.dat
run             50000
Generated 0 of 1 mixed pair_coeff terms from geometric mixing rule
Per MPI rank memory allocation (min/avg/max) = 13.32 | 13.88 | 14.98 Mbytes
   Step          Temp          E_pair         E_mol          TotEng         Press     
   2790000   304.76593      382.82906      18519.792      19338.676      378.41831    
   2800000   324.18266      357.89396      18522.07       19343.801     -388.52098    
   2810000   282.33274      358.20113      18546.97       19309.13      -382.848      
   2820000   295.96795      379.96384      18497.457      19300.888      170.71291    
   2830000   312.96482      364.97336      18515.63       19328.39      -106.03065    
   2840000   300.56142      360.04541      18547.667      19337.752     -411.99885    
Loop time of 15.7645 on 48 procs for 50000 steps with 481 atoms

Performance: 13.702 ns/day, 1.752 hours/ns, 3171.674 timesteps/s, 1.526 Matom-step/s
100.0% CPU use with 48 MPI tasks x 1 OpenMP threads

MPI task timing breakdown:
Section |  min time  |  avg time  |  max time  |%varavg| %total
---------------------------------------------------------------
Pair    | 0.016779   | 0.71753    | 4.1205     | 119.4 |  4.55
Bond    | 0.0050471  | 0.91125    | 3.8611     | 125.6 |  5.78
Neigh   | 0.02421    | 0.027397   | 0.02972    |   0.8 |  0.17
Comm    | 7.1        | 11.679     | 14.224     |  73.9 | 74.08
Output  | 0.0057363  | 0.010868   | 0.015956   |   3.1 |  0.07
Modify  | 0.57088    | 1.8754     | 7.2356     | 168.2 | 11.90
Other   |            | 0.5433     |            |       |  3.45

Nlocal:        10.0208 ave          39 max           0 min
Histogram: 21 7 4 5 2 1 2 0 3 3
Nghost:        1927.73 ave        2406 max        1335 min
Histogram: 8 0 0 0 24 0 0 0 0 16
Neighs:              0 ave           0 max           0 min
Histogram: 48 0 0 0 0 0 0 0 0 0

Total # of neighbors = 0
Ave neighs/atom = 0
Ave special neighs/atom = 15.567568
Neighbor list builds = 72
Dangerous builds = 0
unfix           myat1
next            cpt
jump            SELF loop
variable        zdes equal  -15+0.60*(${cpt}-1)
variable        zdes equal  -15+0.60*(48-1)
variable        zave equal xcm(H2,z)
fix             mytth2 H2 spring tether ${k1} 2.5 2.5 ${zdes} 0
fix             mytth2 H2 spring tether 2.5 2.5 2.5 ${zdes} 0
fix             mytth2 H2 spring tether 2.5 2.5 2.5 13.2 0
run             10000
Generated 0 of 1 mixed pair_coeff terms from geometric mixing rule
Per MPI rank memory allocation (min/avg/max) = 13.32 | 13.88 | 14.98 Mbytes
   Step          Temp          E_pair         E_mol          TotEng         Press     
   2840000   300.56142      360.04541      18547.667      19337.752     -411.99885    
   2850000   307.98234      374.10814      18516.91       19331.676      79.331962    
Loop time of 3.15204 on 48 procs for 10000 steps with 481 atoms

Performance: 13.705 ns/day, 1.751 hours/ns, 3172.553 timesteps/s, 1.526 Matom-step/s
100.0% CPU use with 48 MPI tasks x 1 OpenMP threads

MPI task timing breakdown:
Section |  min time  |  avg time  |  max time  |%varavg| %total
---------------------------------------------------------------
Pair    | 0.0033679  | 0.14326    | 0.80395    |  52.8 |  4.54
Bond    | 0.0010003  | 0.1819     | 0.8        |  56.4 |  5.77
Neigh   | 0.0043467  | 0.0048782  | 0.0052929  |   0.3 |  0.15
Comm    | 1.3987     | 2.3461     | 2.8565     |  33.2 | 74.43
Output  | 0.0011541  | 0.0021659  | 0.0032091  |   1.4 |  0.07
Modify  | 0.11088    | 0.36523    | 1.4836     |  76.6 | 11.59
Other   |            | 0.1085     |            |       |  3.44

Nlocal:        10.0208 ave          47 max           0 min
Histogram: 24 7 5 2 3 1 1 4 0 1
Nghost:        1920.48 ave        2397 max        1336 min
Histogram: 8 0 0 0 24 0 0 0 0 16
Neighs:              0 ave           0 max           0 min
Histogram: 48 0 0 0 0 0 0 0 0 0

Total # of neighbors = 0
Ave neighs/atom = 0
Ave special neighs/atom = 15.567568
Neighbor list builds = 13
Dangerous builds = 0
fix             myat1 all ave/time 1000 10 10000 v_zave v_zdes file simulation_data/abpot/${cpt}.dat
fix             myat1 all ave/time 1000 10 10000 v_zave v_zdes file simulation_data/abpot/48.dat
run             50000
Generated 0 of 1 mixed pair_coeff terms from geometric mixing rule
Per MPI rank memory allocation (min/avg/max) = 13.32 | 13.88 | 14.98 Mbytes
   Step          Temp          E_pair         E_mol          TotEng         Press     
   2850000   307.98234      374.10814      18516.91       19331.676      79.331962    
   2860000   282.20142      382.00845      18530.581      19316.36       273.56718    
   2870000   278.78509      371.70359      18489.026      19259.612     -111.52498    
   2880000   306.20415      362.41869      18497.651      19298.183     -203.15011    
   2890000   312.11336      374.37759      18500.676      19321.622      107.3749     
   2900000   310.62977      376.78696      18511.128      19332.361      149.87129    
Loop time of 16.1427 on 48 procs for 50000 steps with 481 atoms

Performance: 13.381 ns/day, 1.794 hours/ns, 3097.385 timesteps/s, 1.490 Matom-step/s
100.0% CPU use with 48 MPI tasks x 1 OpenMP threads

MPI task timing breakdown:
Section |  min time  |  avg time  |  max time  |%varavg| %total
---------------------------------------------------------------
Pair    | 0.017398   | 0.71697    | 4.0513     | 118.4 |  4.44
Bond    | 0.0050383  | 0.91084    | 3.7568     | 125.6 |  5.64
Neigh   | 0.018395   | 0.020638   | 0.022374   |   0.7 |  0.13
Comm    | 7.652      | 12.044     | 14.728     |  75.0 | 74.61
Output  | 0.0056935  | 0.010772   | 0.015829   |   3.1 |  0.07
Modify  | 0.56287    | 1.8977     | 7.6521     | 175.6 | 11.76
Other   |            | 0.5417     |            |       |  3.36

Nlocal:        10.0208 ave          51 max           0 min
Histogram: 21 11 6 4 1 1 1 1 0 2
Nghost:        1931.23 ave        2416 max        1322 min
Histogram: 8 0 0 0 24 0 0 0 0 16
Neighs:              0 ave           0 max           0 min
Histogram: 48 0 0 0 0 0 0 0 0 0

Total # of neighbors = 0
Ave neighs/atom = 0
Ave special neighs/atom = 15.567568
Neighbor list builds = 52
Dangerous builds = 0
unfix           myat1
next            cpt
jump            SELF loop
variable        zdes equal  -15+0.60*(${cpt}-1)
variable        zdes equal  -15+0.60*(49-1)
variable        zave equal xcm(H2,z)
fix             mytth2 H2 spring tether ${k1} 2.5 2.5 ${zdes} 0
fix             mytth2 H2 spring tether 2.5 2.5 2.5 ${zdes} 0
fix             mytth2 H2 spring tether 2.5 2.5 2.5 13.8 0
run             10000
Generated 0 of 1 mixed pair_coeff terms from geometric mixing rule
Per MPI rank memory allocation (min/avg/max) = 13.32 | 13.88 | 14.98 Mbytes
   Step          Temp          E_pair         E_mol          TotEng         Press     
   2900000   310.62977      376.78696      18511.128      19332.361      149.87129    
   2910000   291.47237      360.42651      18531.053      19308.515     -271.52478    
Loop time of 3.30455 on 48 procs for 10000 steps with 481 atoms

Performance: 13.073 ns/day, 1.836 hours/ns, 3026.128 timesteps/s, 1.456 Matom-step/s
100.0% CPU use with 48 MPI tasks x 1 OpenMP threads

MPI task timing breakdown:
Section |  min time  |  avg time  |  max time  |%varavg| %total
---------------------------------------------------------------
Pair    | 0.0033968  | 0.14386    | 0.84126    |  53.9 |  4.35
Bond    | 0.0010283  | 0.18268    | 0.73925    |  56.3 |  5.53
Neigh   | 0.0036851  | 0.0041486  | 0.0044829  |   0.3 |  0.13
Comm    | 1.5396     | 2.467      | 3.015      |  34.8 | 74.66
Output  | 0.0011441  | 0.0021709  | 0.003227   |   1.4 |  0.07
Modify  | 0.11178    | 0.39593    | 1.6311     |  82.2 | 11.98
Other   |            | 0.1087     |            |       |  3.29

Nlocal:        10.0208 ave          53 max           0 min
Histogram: 24 5 10 2 3 0 1 2 0 1
Nghost:        1926.23 ave        2405 max        1320 min
Histogram: 8 0 0 0 24 0 0 0 0 16
Neighs:              0 ave           0 max           0 min
Histogram: 48 0 0 0 0 0 0 0 0 0

Total # of neighbors = 0
Ave neighs/atom = 0
Ave special neighs/atom = 15.567568
Neighbor list builds = 10
Dangerous builds = 0
fix             myat1 all ave/time 1000 10 10000 v_zave v_zdes file simulation_data/abpot/${cpt}.dat
fix             myat1 all ave/time 1000 10 10000 v_zave v_zdes file simulation_data/abpot/49.dat
run             50000
Generated 0 of 1 mixed pair_coeff terms from geometric mixing rule
Per MPI rank memory allocation (min/avg/max) = 13.32 | 13.88 | 14.98 Mbytes
   Step          Temp          E_pair         E_mol          TotEng         Press     
   2910000   291.47237      360.42651      18531.053      19308.515     -271.52478    
   2920000   307.64865      375.95519      18480.339      19296.475      79.718735    
   2930000   289.48246      373.48734      18482.686      19270.362      63.419029    
   2940000   307.11483      372.84617      18490.294      19302.557      180.85064    
   2950000   297.86079      374.02415      18517.482      19317.682     -62.548862    
   2960000   288.29713      369.37769      18498.612      19280.482     -21.583355    
Loop time of 15.8047 on 48 procs for 50000 steps with 481 atoms

Performance: 13.667 ns/day, 1.756 hours/ns, 3163.616 timesteps/s, 1.522 Matom-step/s
100.0% CPU use with 48 MPI tasks x 1 OpenMP threads

MPI task timing breakdown:
Section |  min time  |  avg time  |  max time  |%varavg| %total
---------------------------------------------------------------
Pair    | 0.017293   | 0.71764    | 3.7989     | 118.4 |  4.54
Bond    | 0.0050763  | 0.91162    | 3.8739     | 126.2 |  5.77
Neigh   | 0.028947   | 0.032712   | 0.035529   |   0.9 |  0.21
Comm    | 7.4576     | 11.748     | 14.332     |  73.6 | 74.33
Output  | 0.0057633  | 0.010868   | 0.015969   |   3.1 |  0.07
Modify  | 0.576      | 1.8409     | 7.3742     | 168.6 | 11.65
Other   |            | 0.5429     |            |       |  3.44

Nlocal:        10.0208 ave          44 max           0 min
Histogram: 23 5 8 2 2 2 1 2 2 1
Nghost:        1926.23 ave        2409 max        1329 min
Histogram: 8 0 0 0 24 0 0 0 0 16
Neighs:              0 ave           0 max           0 min
Histogram: 48 0 0 0 0 0 0 0 0 0

Total # of neighbors = 0
Ave neighs/atom = 0
Ave special neighs/atom = 15.567568
Neighbor list builds = 86
Dangerous builds = 0
unfix           myat1
next            cpt
jump            SELF loop
variable        zdes equal  -15+0.60*(${cpt}-1)
variable        zdes equal  -15+0.60*(50-1)
variable        zave equal xcm(H2,z)
fix             mytth2 H2 spring tether ${k1} 2.5 2.5 ${zdes} 0
fix             mytth2 H2 spring tether 2.5 2.5 2.5 ${zdes} 0
fix             mytth2 H2 spring tether 2.5 2.5 2.5 14.4 0
run             10000
Generated 0 of 1 mixed pair_coeff terms from geometric mixing rule
Per MPI rank memory allocation (min/avg/max) = 13.32 | 13.88 | 14.98 Mbytes
   Step          Temp          E_pair         E_mol          TotEng         Press     
   2960000   288.29713      369.37769      18498.612      19280.482     -21.583355    
   2970000   313.46611      371.59563      18506.828      19326.928     -30.946476    
Loop time of 3.16265 on 48 procs for 10000 steps with 481 atoms

Performance: 13.659 ns/day, 1.757 hours/ns, 3161.908 timesteps/s, 1.521 Matom-step/s
100.0% CPU use with 48 MPI tasks x 1 OpenMP threads

MPI task timing breakdown:
Section |  min time  |  avg time  |  max time  |%varavg| %total
---------------------------------------------------------------
Pair    | 0.0033743  | 0.1432     | 0.7957     |  53.0 |  4.53
Bond    | 0.0010296  | 0.18224    | 0.75899    |  56.2 |  5.76
Neigh   | 0.0036225  | 0.0041237  | 0.0044839  |   0.3 |  0.13
Comm    | 1.4825     | 2.3547     | 2.8467     |  32.4 | 74.45
Output  | 0.0010996  | 0.0020891  | 0.0031126  |   1.4 |  0.07
Modify  | 0.11312    | 0.36762    | 1.4436     |  74.4 | 11.62
Other   |            | 0.1087     |            |       |  3.44

Nlocal:        10.0208 ave          41 max           0 min
Histogram: 22 7 4 4 3 0 1 3 3 1
Nghost:         1924.6 ave        2407 max        1332 min
Histogram: 8 0 0 0 24 0 0 0 0 16
Neighs:              0 ave           0 max           0 min
Histogram: 48 0 0 0 0 0 0 0 0 0

Total # of neighbors = 0
Ave neighs/atom = 0
Ave special neighs/atom = 15.567568
Neighbor list builds = 11
Dangerous builds = 0
fix             myat1 all ave/time 1000 10 10000 v_zave v_zdes file simulation_data/abpot/${cpt}.dat
fix             myat1 all ave/time 1000 10 10000 v_zave v_zdes file simulation_data/abpot/50.dat
run             50000
Generated 0 of 1 mixed pair_coeff terms from geometric mixing rule
Per MPI rank memory allocation (min/avg/max) = 13.32 | 13.88 | 14.98 Mbytes
   Step          Temp          E_pair         E_mol          TotEng         Press     
   2970000   313.46611      371.59563      18506.828      19326.928     -30.946476    
   2980000   312.94025      369.81673      18523.073      19340.641     -85.619941    
   2990000   305.33685      373.29342      18524.62       19334.786      166.69479    
   3000000   301.12217      364.21627      18502.338      19297.396     -317.41466    
   3010000   300.73415      365.77542      18494.385      19290.447     -179.99569    
   3020000   300.67514      379.27619      18494.397      19303.876      58.985303    
Loop time of 15.1124 on 48 procs for 50000 steps with 481 atoms

Performance: 14.293 ns/day, 1.679 hours/ns, 3308.549 timesteps/s, 1.591 Matom-step/s
100.0% CPU use with 48 MPI tasks x 1 OpenMP threads

MPI task timing breakdown:
Section |  min time  |  avg time  |  max time  |%varavg| %total
---------------------------------------------------------------
Pair    | 0.017683   | 0.71555    | 4.0947     | 119.1 |  4.73
Bond    | 0.0050539  | 0.91155    | 3.7565     | 125.6 |  6.03
Neigh   | 0.019989   | 0.02272    | 0.024761   |   0.8 |  0.15
Comm    | 6.5123     | 11.175     | 13.525     |  69.6 | 73.94
Output  | 0.0056659  | 0.01082    | 0.015957   |   3.1 |  0.07
Modify  | 0.5831     | 1.7333     | 6.5204     | 150.5 | 11.47
Other   |            | 0.5438     |            |       |  3.60

Nlocal:        10.0208 ave          40 max           0 min
Histogram: 18 8 7 6 1 0 0 4 2 2
Nghost:        1934.85 ave        2419 max        1334 min
Histogram: 8 0 0 0 24 0 0 0 0 16
Neighs:              0 ave           0 max           0 min
Histogram: 48 0 0 0 0 0 0 0 0 0

Total # of neighbors = 0
Ave neighs/atom = 0
Ave special neighs/atom = 15.567568
Neighbor list builds = 63
Dangerous builds = 0
unfix           myat1
next            cpt
jump            SELF loop
variable        zdes equal  -15+0.60*(${cpt}-1)
variable        zdes equal  -15+0.60*(51-1)
variable        zave equal xcm(H2,z)
fix             mytth2 H2 spring tether ${k1} 2.5 2.5 ${zdes} 0
fix             mytth2 H2 spring tether 2.5 2.5 2.5 ${zdes} 0
fix             mytth2 H2 spring tether 2.5 2.5 2.5 15 0
run             10000
Generated 0 of 1 mixed pair_coeff terms from geometric mixing rule
Per MPI rank memory allocation (min/avg/max) = 13.32 | 13.88 | 14.98 Mbytes
   Step          Temp          E_pair         E_mol          TotEng         Press     
   3020000   300.67514      379.27619      18494.397      19303.876      58.985303    
   3030000   308.42482      364.9616       18544.334      19350.586     -143.63995    
Loop time of 3.04914 on 48 procs for 10000 steps with 481 atoms

Performance: 14.168 ns/day, 1.694 hours/ns, 3279.616 timesteps/s, 1.577 Matom-step/s
100.0% CPU use with 48 MPI tasks x 1 OpenMP threads

MPI task timing breakdown:
Section |  min time  |  avg time  |  max time  |%varavg| %total
---------------------------------------------------------------
Pair    | 0.0033692  | 0.1432     | 0.78583    |  52.7 |  4.70
Bond    | 0.0010021  | 0.18244    | 0.78555    |  56.2 |  5.98
Neigh   | 0.0048179  | 0.0054763  | 0.0059849  |   0.4 |  0.18
Comm    | 1.3391     | 2.2601     | 2.732      |  31.2 | 74.12
Output  | 0.0011176  | 0.0021173  | 0.0031618  |   1.4 |  0.07
Modify  | 0.11475    | 0.34704    | 1.3049     |  68.8 | 11.38
Other   |            | 0.1087     |            |       |  3.57

Nlocal:        10.0208 ave          45 max           0 min
Histogram: 20 8 8 4 1 0 3 1 2 1
Nghost:        1931.98 ave        2420 max        1328 min
Histogram: 8 0 0 0 24 0 0 0 0 16
Neighs:              0 ave           0 max           0 min
Histogram: 48 0 0 0 0 0 0 0 0 0

Total # of neighbors = 0
Ave neighs/atom = 0
Ave special neighs/atom = 15.567568
Neighbor list builds = 15
Dangerous builds = 0
fix             myat1 all ave/time 1000 10 10000 v_zave v_zdes file simulation_data/abpot/${cpt}.dat
fix             myat1 all ave/time 1000 10 10000 v_zave v_zdes file simulation_data/abpot/51.dat
run             50000
Generated 0 of 1 mixed pair_coeff terms from geometric mixing rule
Per MPI rank memory allocation (min/avg/max) = 13.32 | 13.88 | 14.98 Mbytes
   Step          Temp          E_pair         E_mol          TotEng         Press     
   3030000   308.42482      364.9616       18544.334      19350.586     -143.63995    
   3040000   320.12692      366.89479      18510.409      19335.338     -86.375885    
   3050000   296.17539      376.94503      18499.451      19300.161      97.085304    
   3060000   301.35917      367.61266      18493.5        19292.294      35.27348     
   3070000   279.77473      371.9215       18502.192      19274.412     -81.792184    
   3080000   284.22498      374.67067      18490.656      19271.993      40.416372    
Loop time of 15.2153 on 48 procs for 50000 steps with 481 atoms

Performance: 14.196 ns/day, 1.691 hours/ns, 3286.156 timesteps/s, 1.581 Matom-step/s
100.0% CPU use with 48 MPI tasks x 1 OpenMP threads

MPI task timing breakdown:
Section |  min time  |  avg time  |  max time  |%varavg| %total
---------------------------------------------------------------
Pair    | 0.017745   | 0.71754    | 3.8649     | 118.1 |  4.72
Bond    | 0.0053304  | 0.91263    | 3.7299     | 125.5 |  6.00
Neigh   | 0.018241   | 0.020677   | 0.022471   |   0.7 |  0.14
Comm    | 6.8986     | 11.269     | 13.645     |  70.3 | 74.06
Output  | 0.005513   | 0.010619   | 0.015819   |   3.1 |  0.07
Modify  | 0.57207    | 1.7418     | 6.6234     | 154.6 | 11.45
Other   |            | 0.543      |            |       |  3.57

Nlocal:        10.0208 ave          52 max           0 min
Histogram: 23 6 10 2 0 3 1 2 0 1
Nghost:         1932.1 ave        2413 max        1321 min
Histogram: 8 0 0 0 24 0 0 0 0 16
Neighs:              0 ave           0 max           0 min
Histogram: 48 0 0 0 0 0 0 0 0 0

Total # of neighbors = 0
Ave neighs/atom = 0
Ave special neighs/atom = 15.567568
Neighbor list builds = 57
Dangerous builds = 0
unfix           myat1
next            cpt
jump            SELF loop

Total wall time: 0:16:03
