# --- log file ---

variable pre equal 112 # desired pressure (Atm)
variable tem equal 300 # desired temperature (K)

variable k1 equal 1. # spring constant
variable k2 equal 3.5 # spring constant

units real
atom_style molecular
boundary p p p
neighbor 1.0 bin
neigh_modify delay 3 one 6000
bond_style harmonic
angle_style harmonic
dihedral_style opls
improper_style harmonic
pair_style hybrid lj/cut 14 sg 15 cb 30 # Fluid-fluid interactions have a cutoff of 15 Å, fluid-solid interactions have a cutoff of 30 Å
# *--* C-C parameters *--*
bond_style harmonic
angle_style harmonic
dihedral_style opls
improper_style harmonic
# *--* C-C parameters *--*


# 2. Read the graphite platelet data file and define potentials parameters
read_data       ../geometry/carbonPlatelets/simulation_data/abpot_sys.data  extra/atom/types 1
Reading data file ...
  orthogonal box = (-30 -30 -30) to (30 30 30)
  4 by 4 by 4 MPI processor grid
  reading atoms ...
  480 atoms
  reading velocities ...
  480 velocities
  scanning bonds ...
  2 = max bonds/atom
  scanning angles ...
  3 = max angles/atom
  scanning dihedrals ...
  8 = max dihedrals/atom
  scanning impropers ...
  2 = max impropers/atom
  orthogonal box = (-30 -30 -30) to (30 30 30)
  4 by 4 by 4 MPI processor grid
  reading bonds ...
  676 bonds
  reading angles ...
  1268 angles
  reading dihedrals ...
  2394 dihedrals
  reading impropers ...
  396 impropers
Finding 1-2 1-3 1-4 neighbors ...
  special bond factors lj:    0        0        0       
  special bond factors coul:  0        0        0       
     3 = max # of 1-2 neighbors
     6 = max # of 1-3 neighbors
    18 = max # of 1-4 neighbors
    18 = max # of special neighbors
  special bonds CPU = 0.002 seconds
  read_data CPU = 0.051 seconds
include         PARM.lammps

#////////////////////////////////////////////////////////////////////////////////////////////////////////////////////////////////
#//     Filename: PARM.lammps
#//     File Type: LAMMPS input script
#//     Description: This script defines the parameters for the simulation of hydrogen absorption in graphite platelets.
#//     Author: Edoardo Cabiati
#//     Date: 2024-07-27
#////////////////////////////////////////////////////////////////////////////////////////////////////////////////////////////////

mass 2 2.016 # For now at least, in accordance with the paper by Wang and Johnson,
             # 1998, the hydrogen atoms are regarded as simple spherical atoms

# //////////////////////////////////////    C-C potentials    //////////////////////////////////////
pair_coeff 1 1 lj/cut 0.066 3.4
bond_coeff 1 469 1.4
angle_coeff 1 63 120
dihedral_coeff 1 0 7.25 0 0
improper_coeff 1 5 180
special_bonds lj 0.0 0.0 0.5
Finding 1-2 1-3 1-4 neighbors ...
  special bond factors lj:    0        0        0.5     
  special bond factors coul:  0        0        0       
     3 = max # of 1-2 neighbors
     6 = max # of 1-3 neighbors
    18 = max # of 1-4 neighbors
    18 = max # of special neighbors
  special bonds CPU = 0.001 seconds
# //////////////////////////////////////    C-C potentials    //////////////////////////////////////
# -------------------------------------------------------------------------------------------------
# //////////////////////////////////////    H-H potentials    //////////////////////////////////////
variable alpha equal 1.713          #|
variable sigma equal 1.567          #|
variable gamma equal 0.00993        #|
variable c6 equal 12.14             #|      The parameters are all in atomic units, the conversion to kcal/mol
variable c8 equal 215.2             #|      is performed in the pair_sg.cpp file
variable c9 equal 143.1             #|
variable c10 equal 4813.9           #|
variable rc equal 8.321             #|
pair_coeff 2 2 sg ${alpha} ${sigma} ${gamma} ${c6} ${c8} ${c9} ${c10} ${rc} # H-H potentials
pair_coeff 2 2 sg 1.713 ${sigma} ${gamma} ${c6} ${c8} ${c9} ${c10} ${rc} 
pair_coeff 2 2 sg 1.713 1.567 ${gamma} ${c6} ${c8} ${c9} ${c10} ${rc} 
pair_coeff 2 2 sg 1.713 1.567 0.00993 ${c6} ${c8} ${c9} ${c10} ${rc} 
pair_coeff 2 2 sg 1.713 1.567 0.00993 12.14 ${c8} ${c9} ${c10} ${rc} 
pair_coeff 2 2 sg 1.713 1.567 0.00993 12.14 215.2 ${c9} ${c10} ${rc} 
pair_coeff 2 2 sg 1.713 1.567 0.00993 12.14 215.2 143.1 ${c10} ${rc} 
pair_coeff 2 2 sg 1.713 1.567 0.00993 12.14 215.2 143.1 4813.9 ${rc} 
pair_coeff 2 2 sg 1.713 1.567 0.00993 12.14 215.2 143.1 4813.9 8.321 
#pair_coeff 2 2 sg 1.713 1.567 0.00993 12.14 215.2 143.1 4813.9 8.321 # H-H potentials
# //////////////////////////////////////    H-H potentials    //////////////////////////////////////
# -------------------------------------------------------------------------------------------------
# //////////////////////////////////////    C-H potentials    //////////////////////////////////////
# Parameters taken from the paper by Wang and Johnson, 1998
variable sigma_CC equal 3.43 # Å
variable sigma_HH equal 3.075 # Å
variable sigma_CH_geo equal sqrt(${sigma_CC}*${sigma_HH}) # Å
variable sigma_CH_geo equal sqrt(3.43*${sigma_HH}) 
variable sigma_CH_geo equal sqrt(3.43*3.075) 
variable sigma_CH_arit equal 0.5*(${sigma_CC}+${sigma_HH}) # Å
variable sigma_CH_arit equal 0.5*(3.43+${sigma_HH}) 
variable sigma_CH_arit equal 0.5*(3.43+3.075) 

variable P_par equal 0.57 # Å^3
variable P_perp equal 1.995 # Å^3
variable P_h equal 0.81 # Å^3
variable E_h equal 2.337e5*(1/503.23) # K * 1/503.23 kcal/mol/K = kcal/mol
variable E_c equal 1.39254e5*(1/503.23) # K * 1/503.23 kcal/mol/K = kcal/mol

variable epsilon equal 4*(5/11)*v_E_h*v_E_c*v_P_h*(v_P_par+v_P_perp/2)/(v_sigma_CH_geo^6*(v_E_h+v_E_c)) # kcal/mol
# The formula taken from paper by Wang and Johnson, 1998 to construct epsilon does not seem to be consistent with the
# results obtained from the LAMMPS simulation. We will be using the value of epsilon obtained from the simplified
# version of the CB potential as 12-6 lennard-jones potential, presented in the paper "Theoretical investigation of the
# effect of graphite interlayer spacing on hydrogen absorption" by Rachel S. Aga, C. L. Fu, Maja Krčmar, and James R. Morris.
variable epsilon_sub equal 4*0.085094 # kcal/mol
variable sigma equal 2.97 # Å

pair_coeff 1 2 cb ${epsilon_sub} ${sigma} ${P_par} ${P_perp} # C-H potential
pair_coeff 1 2 cb 0.340376 ${sigma} ${P_par} ${P_perp} 
pair_coeff 1 2 cb 0.340376 2.97 ${P_par} ${P_perp} 
pair_coeff 1 2 cb 0.340376 2.97 0.57 ${P_perp} 
pair_coeff 1 2 cb 0.340376 2.97 0.57 1.995 
#pair_coeff 1 2 lj/cut 0.3025 2.065
# //////////////////////////////////////    C-H potentials    //////////////////////////////////////

# 3. Add a single hydrogen molecule to the system, close to the center of the first platelet
create_atoms    2 single 0 0 -2
Created 1 atoms
  using lattice units in orthogonal box = (-30 -30 -30) to (30 30 30)
  create_atoms CPU = 0.000 seconds

group           C type 1
480 atoms in group C
group           H2 type 2
1 atoms in group H2

# 4. Equilibration
timestep        0.05
fix             mytth1 C spring/self ${k2} # Apply a spring force to the carbon atoms
fix             mytth1 C spring/self 3.5 
velocity        all create ${tem} 48 rot yes mom yes dist gaussian # Initialize velocities
velocity        all create 300 48 rot yes mom yes dist gaussian 
fix             mynpt all npt temp ${tem} ${tem} 100 x ${pre} ${pre} 1000 y ${pre} ${pre} 1000 # Apply NPT ensemble to the system
fix             mynpt all npt temp 300 ${tem} 100 x ${pre} ${pre} 1000 y ${pre} ${pre} 1000 
fix             mynpt all npt temp 300 300 100 x ${pre} ${pre} 1000 y ${pre} ${pre} 1000 
fix             mynpt all npt temp 300 300 100 x 112 ${pre} 1000 y ${pre} ${pre} 1000 
fix             mynpt all npt temp 300 300 100 x 112 112 1000 y ${pre} ${pre} 1000 
fix             mynpt all npt temp 300 300 100 x 112 112 1000 y 112 ${pre} 1000 
fix             mynpt all npt temp 300 300 100 x 112 112 1000 y 112 112 1000 

thermo          10000
dump            dump all atom 1000 simulation_data/absorption_pot.lammpstrj

run             20000

CITE-CITE-CITE-CITE-CITE-CITE-CITE-CITE-CITE-CITE-CITE-CITE-CITE

Your simulation uses code contributions which should be cited:

- Type Label Framework: https://doi.org/10.1021/acs.jpcb.3c08419

@Article{Gissinger24,
 author = {Jacob R. Gissinger, Ilia Nikiforov, Yaser Afshar, Brendon Waters, Moon-ki Choi, Daniel S. Karls, Alexander Stukowski, Wonpil Im, Hendrik Heinz, Axel Kohlmeyer, and Ellad B. Tadmor},
 title = {Type Label Framework for Bonded Force Fields in LAMMPS},
 journal = {J. Phys. Chem. B},
 year =    2024,
 volume =  128,
 number =  13,
 pages =   {3282–-3297}
}

CITE-CITE-CITE-CITE-CITE-CITE-CITE-CITE-CITE-CITE-CITE-CITE-CITE

Generated 0 of 1 mixed pair_coeff terms from geometric mixing rule
Neighbor list info ...
  update: every = 1 steps, delay = 3 steps, check = yes
  max neighbors/atom: 6000, page size: 100000
  master list distance cutoff = 31
  ghost atom cutoff = 31
  binsize = 15.5, bins = 4 4 4
  4 neighbor lists, perpetual/occasional/extra = 4 0 0
  (1) pair lj/cut, perpetual, skip trim from (4)
      attributes: half, newton on, cut 15
      pair build: skip/trim
      stencil: none
      bin: none
  (2) pair sg, perpetual, skip trim from (4)
      attributes: half, newton on, cut 16
      pair build: skip/trim
      stencil: none
      bin: none
  (3) pair cb, perpetual, skip from (4)
      attributes: half, newton on
      pair build: skip
      stencil: none
      bin: none
  (4) neighbor class addition, perpetual
      attributes: half, newton on
      pair build: half/bin/newton
      stencil: half/bin/3d
      bin: standard
Per MPI rank memory allocation (min/avg/max) = 13.29 | 13.4 | 13.93 Mbytes
   Step          Temp          E_pair         E_mol          TotEng         Press          Volume    
         0   300            308.5124       19603.922      20341.671     -432.43506      216000       
     10000   308.71881      373.71132      18568.425      19383.847     -313.89117      172136.83    
     20000   319.74694      375.11214      18539.114      19371.717     -417.40409      126541.73    
Loop time of 6.6181 on 64 procs for 20000 steps with 481 atoms

Performance: 13.055 ns/day, 1.838 hours/ns, 3022.016 timesteps/s, 1.454 Matom-step/s
99.8% CPU use with 64 MPI tasks x 1 OpenMP threads

MPI task timing breakdown:
Section |  min time  |  avg time  |  max time  |%varavg| %total
---------------------------------------------------------------
Pair    | 0.1381     | 0.42364    | 1.9241     |  62.4 |  6.40
Bond    | 0.0038763  | 0.33032    | 1.4701     |  97.0 |  4.99
Neigh   | 0.016085   | 0.018795   | 0.021306   |   1.1 |  0.28
Comm    | 2.3726     | 3.7514     | 4.6461     |  34.3 | 56.68
Output  | 0.0032719  | 0.010567   | 0.018905   |   5.0 |  0.16
Modify  | 0.73552    | 1.7784     | 3.2133     |  58.2 | 26.87
Other   |            | 0.305      |            |       |  4.61

Nlocal:        7.51562 ave          36 max           0 min
Histogram: 41 7 0 0 0 1 2 9 3 1
Nghost:        1804.95 ave        2371 max        1288 min
Histogram: 16 0 0 0 32 0 0 0 0 16
Neighs:              0 ave           0 max           0 min
Histogram: 64 0 0 0 0 0 0 0 0 0

Total # of neighbors = 0
Ave neighs/atom = 0
Ave special neighs/atom = 15.567568
Neighbor list builds = 52
Dangerous builds = 0
unfix           mynpt
unfix           mytth1

# 5. Umbrella sampling
fix             mynvt all nvt temp ${tem} ${tem} 100
fix             mynvt all nvt temp 300 ${tem} 100
fix             mynvt all nvt temp 300 300 100
fix             mytth1 C spring/self ${k2}
fix             mytth1 C spring/self 3.5

variable        cpt loop 51
label           loop
variable        zdes equal  -15+0.60*(${cpt}-1)
variable        zdes equal  -15+0.60*(1-1)
variable        zave equal xcm(H2,z)
fix             mytth2 H2 spring tether ${k1} 2.5 2.5 ${zdes} 0
fix             mytth2 H2 spring tether 1 2.5 2.5 ${zdes} 0
fix             mytth2 H2 spring tether 1 2.5 2.5 -15 0
run             10000
Generated 0 of 1 mixed pair_coeff terms from geometric mixing rule
Per MPI rank memory allocation (min/avg/max) = 13.32 | 13.62 | 14.95 Mbytes
   Step          Temp          E_pair         E_mol          TotEng         Press     
     20000   319.74694      375.11214      18539.114      19371.717     -417.40409    
     30000   301.85027      346.00526      18606.448      19384.337     -1315.9521    
Loop time of 3.07108 on 64 procs for 10000 steps with 481 atoms

Performance: 14.067 ns/day, 1.706 hours/ns, 3256.185 timesteps/s, 1.566 Matom-step/s
99.9% CPU use with 64 MPI tasks x 1 OpenMP threads

MPI task timing breakdown:
Section |  min time  |  avg time  |  max time  |%varavg| %total
---------------------------------------------------------------
Pair    | 0.0032674  | 0.12403    | 0.80942    |  58.9 |  4.04
Bond    | 0.001087   | 0.14789    | 0.77254    |  61.8 |  4.82
Neigh   | 0.038476   | 0.044508   | 0.049677   |   1.4 |  1.45
Comm    | 1.2221     | 2.2585     | 2.7337     |  30.3 | 73.54
Output  | 0.0014542  | 0.0040128  | 0.0068551  |   2.7 |  0.13
Modify  | 0.13116    | 0.36707    | 1.3064     |  55.7 | 11.95
Other   |            | 0.1251     |            |       |  4.07

Nlocal:        7.51562 ave          33 max           0 min
Histogram: 42 4 2 0 1 0 5 3 3 4
Nghost:        1806.73 ave        2378 max        1291 min
Histogram: 16 0 0 0 32 0 0 0 0 16
Neighs:              0 ave           0 max           0 min
Histogram: 64 0 0 0 0 0 0 0 0 0

Total # of neighbors = 0
Ave neighs/atom = 0
Ave special neighs/atom = 15.567568
Neighbor list builds = 109
Dangerous builds = 0
fix             myat1 all ave/time 1000 10 10000 v_zave v_zdes file simulation_data/abpot/${cpt}.dat
fix             myat1 all ave/time 1000 10 10000 v_zave v_zdes file simulation_data/abpot/1.dat
run             50000
Generated 0 of 1 mixed pair_coeff terms from geometric mixing rule
Per MPI rank memory allocation (min/avg/max) = 13.32 | 13.62 | 14.95 Mbytes
   Step          Temp          E_pair         E_mol          TotEng         Press     
     30000   301.85027      346.00526      18606.448      19384.337     -1315.9521    
     40000   290.5641       418.45714      18509.82       19344.013      590.26034    
     50000   262.29405      399.23107      18551.056      19325.574      59.725537    
     60000   294.19153      381.18314      18563.115      19365.224     -168.61122    
     70000   293.63671      383.97763      18552.66       19356.77      -93.247696    
     80000   296.08669      408.5309       18534.617      19366.785      336.48275    
Loop time of 13.9439 on 64 procs for 50000 steps with 481 atoms

Performance: 15.491 ns/day, 1.549 hours/ns, 3585.795 timesteps/s, 1.725 Matom-step/s
100.0% CPU use with 64 MPI tasks x 1 OpenMP threads

MPI task timing breakdown:
Section |  min time  |  avg time  |  max time  |%varavg| %total
---------------------------------------------------------------
Pair    | 0.017602   | 0.59072    | 3.2778     | 125.2 |  4.24
Bond    | 0.005459   | 0.72889    | 3.8713     | 137.7 |  5.23
Neigh   | 0.093479   | 0.11306    | 0.13212    |   3.1 |  0.81
Comm    | 5.9755     | 10.34      | 12.421     |  64.2 | 74.16
Output  | 0.006957   | 0.017388   | 0.028312   |   5.1 |  0.12
Modify  | 0.64132    | 1.5368     | 5.2516     | 107.7 | 11.02
Other   |            | 0.6168     |            |       |  4.42

Nlocal:        7.51562 ave          35 max           0 min
Histogram: 42 5 1 0 0 1 6 1 3 5
Nghost:        1826.33 ave        2425 max        1290 min
Histogram: 16 0 0 0 32 0 0 0 0 16
Neighs:              0 ave           0 max           0 min
Histogram: 64 0 0 0 0 0 0 0 0 0

Total # of neighbors = 0
Ave neighs/atom = 0
Ave special neighs/atom = 15.567568
Neighbor list builds = 358
Dangerous builds = 0
unfix           myat1
next            cpt
jump            SELF loop
variable        zdes equal  -15+0.60*(${cpt}-1)
variable        zdes equal  -15+0.60*(2-1)
variable        zave equal xcm(H2,z)
fix             mytth2 H2 spring tether ${k1} 2.5 2.5 ${zdes} 0
fix             mytth2 H2 spring tether 1 2.5 2.5 ${zdes} 0
fix             mytth2 H2 spring tether 1 2.5 2.5 -14.4 0
run             10000
Generated 0 of 1 mixed pair_coeff terms from geometric mixing rule
Per MPI rank memory allocation (min/avg/max) = 13.32 | 13.62 | 14.95 Mbytes
   Step          Temp          E_pair         E_mol          TotEng         Press     
     80000   296.08669      408.5309       18534.617      19366.785      336.48275    
     90000   300.25547      382.57231      18524.722      19336.896     -137.02427    
Loop time of 2.74913 on 64 procs for 10000 steps with 481 atoms

Performance: 15.714 ns/day, 1.527 hours/ns, 3637.513 timesteps/s, 1.750 Matom-step/s
100.0% CPU use with 64 MPI tasks x 1 OpenMP threads

MPI task timing breakdown:
Section |  min time  |  avg time  |  max time  |%varavg| %total
---------------------------------------------------------------
Pair    | 0.0035983  | 0.11732    | 0.70452    |  56.7 |  4.27
Bond    | 0.001092   | 0.14441    | 0.75446    |  61.4 |  5.25
Neigh   | 0.0071699  | 0.0086959  | 0.010147   |   0.9 |  0.32
Comm    | 1.0825     | 2.0569     | 2.4649     |  28.9 | 74.82
Output  | 0.001266   | 0.0029706  | 0.0047564  |   2.0 |  0.11
Modify  | 0.12372    | 0.29528    | 1.0125     |  48.2 | 10.74
Other   |            | 0.1236     |            |       |  4.50

Nlocal:        7.51562 ave          35 max           0 min
Histogram: 41 6 1 0 0 1 5 2 5 3
Nghost:         1819.3 ave        2410 max        1289 min
Histogram: 16 0 0 0 32 0 0 0 0 16
Neighs:              0 ave           0 max           0 min
Histogram: 64 0 0 0 0 0 0 0 0 0

Total # of neighbors = 0
Ave neighs/atom = 0
Ave special neighs/atom = 15.567568
Neighbor list builds = 28
Dangerous builds = 0
fix             myat1 all ave/time 1000 10 10000 v_zave v_zdes file simulation_data/abpot/${cpt}.dat
fix             myat1 all ave/time 1000 10 10000 v_zave v_zdes file simulation_data/abpot/2.dat
run             50000
Generated 0 of 1 mixed pair_coeff terms from geometric mixing rule
Per MPI rank memory allocation (min/avg/max) = 13.32 | 13.62 | 14.95 Mbytes
   Step          Temp          E_pair         E_mol          TotEng         Press     
     90000   300.25547      382.57231      18524.722      19336.896     -137.02427    
    100000   279.65607      382.11029      18532.569      19314.808     -270.51059    
    110000   295.19611      395.15972      18512.453      19329.976      203.22291    
    120000   291.78672      388.03034      18544.214      19349.73      -207.65105    
    130000   299.3386       379.95536      18552.863      19361.109     -119.67753    
    140000   302.53884      374.31202      18529.44       19336.621     -379.74408    
Loop time of 14.0359 on 64 procs for 50000 steps with 481 atoms

Performance: 15.389 ns/day, 1.560 hours/ns, 3562.291 timesteps/s, 1.713 Matom-step/s
100.0% CPU use with 64 MPI tasks x 1 OpenMP threads

MPI task timing breakdown:
Section |  min time  |  avg time  |  max time  |%varavg| %total
---------------------------------------------------------------
Pair    | 0.016735   | 0.59276    | 3.2524     | 125.7 |  4.22
Bond    | 0.0054499  | 0.73439    | 3.7536     | 137.8 |  5.23
Neigh   | 0.029895   | 0.035986   | 0.041543   |   1.7 |  0.26
Comm    | 6.3959     | 10.459     | 12.574     |  64.8 | 74.51
Output  | 0.0065487  | 0.014235   | 0.021972   |   4.1 |  0.10
Modify  | 0.66391    | 1.5808     | 5.5635     | 112.0 | 11.26
Other   |            | 0.6191     |            |       |  4.41

Nlocal:        7.51562 ave          37 max           0 min
Histogram: 41 7 0 0 2 2 1 5 3 3
Nghost:        1821.55 ave        2411 max        1287 min
Histogram: 16 0 0 0 32 0 0 0 0 16
Neighs:              0 ave           0 max           0 min
Histogram: 64 0 0 0 0 0 0 0 0 0

Total # of neighbors = 0
Ave neighs/atom = 0
Ave special neighs/atom = 15.567568
Neighbor list builds = 110
Dangerous builds = 0
unfix           myat1
next            cpt
jump            SELF loop
variable        zdes equal  -15+0.60*(${cpt}-1)
variable        zdes equal  -15+0.60*(3-1)
variable        zave equal xcm(H2,z)
fix             mytth2 H2 spring tether ${k1} 2.5 2.5 ${zdes} 0
fix             mytth2 H2 spring tether 1 2.5 2.5 ${zdes} 0
fix             mytth2 H2 spring tether 1 2.5 2.5 -13.8 0
run             10000
Generated 0 of 1 mixed pair_coeff terms from geometric mixing rule
Per MPI rank memory allocation (min/avg/max) = 13.32 | 13.62 | 14.95 Mbytes
   Step          Temp          E_pair         E_mol          TotEng         Press     
    140000   302.53884      374.31202      18529.44       19336.621     -379.74408    
    150000   282.25511      390.1786       18509.645      19303.671      97.618947    
Loop time of 2.80844 on 64 procs for 10000 steps with 481 atoms

Performance: 15.382 ns/day, 1.560 hours/ns, 3560.696 timesteps/s, 1.713 Matom-step/s
100.0% CPU use with 64 MPI tasks x 1 OpenMP threads

MPI task timing breakdown:
Section |  min time  |  avg time  |  max time  |%varavg| %total
---------------------------------------------------------------
Pair    | 0.0032624  | 0.11829    | 0.66772    |  56.3 |  4.21
Bond    | 0.0010839  | 0.14832    | 0.8701     |  63.0 |  5.28
Neigh   | 0.0054834  | 0.0066104  | 0.0076896  |   0.7 |  0.24
Comm    | 1.1865     | 2.0854     | 2.5078     |  29.1 | 74.25
Output  | 0.0013831  | 0.0028123  | 0.0042681  |   1.7 |  0.10
Modify  | 0.14164    | 0.32257    | 1.1033     |  47.5 | 11.49
Other   |            | 0.1245     |            |       |  4.43

Nlocal:        7.51562 ave          35 max           0 min
Histogram: 43 2 3 0 0 0 5 2 6 3
Nghost:         1825.3 ave        2417 max        1289 min
Histogram: 16 0 0 0 32 0 0 0 0 16
Neighs:              0 ave           0 max           0 min
Histogram: 64 0 0 0 0 0 0 0 0 0

Total # of neighbors = 0
Ave neighs/atom = 0
Ave special neighs/atom = 15.567568
Neighbor list builds = 20
Dangerous builds = 0
fix             myat1 all ave/time 1000 10 10000 v_zave v_zdes file simulation_data/abpot/${cpt}.dat
fix             myat1 all ave/time 1000 10 10000 v_zave v_zdes file simulation_data/abpot/3.dat
run             50000
Generated 0 of 1 mixed pair_coeff terms from geometric mixing rule
Per MPI rank memory allocation (min/avg/max) = 13.32 | 13.62 | 14.95 Mbytes
   Step          Temp          E_pair         E_mol          TotEng         Press     
    150000   282.25511      390.1786       18509.645      19303.671      97.618947    
    160000   278.68074      380.63334      18552.53       19331.896     -203.28554    
    170000   294.15969      385.36965      18561.133      19367.383     -80.787868    
    180000   310.88498      383.86655      18535.951      19364.629     -98.486155    
    190000   275.52559      383.43345      18524.229      19301.881     -221.62638    
    200000   282.34644      375.54568      18542.069      19321.593     -392.14753    
Loop time of 14.179 on 64 procs for 50000 steps with 481 atoms

Performance: 15.234 ns/day, 1.575 hours/ns, 3526.349 timesteps/s, 1.696 Matom-step/s
100.0% CPU use with 64 MPI tasks x 1 OpenMP threads

MPI task timing breakdown:
Section |  min time  |  avg time  |  max time  |%varavg| %total
---------------------------------------------------------------
Pair    | 0.016792   | 0.59255    | 3.3853     | 126.2 |  4.18
Bond    | 0.0053697  | 0.73713    | 3.948      | 139.3 |  5.20
Neigh   | 0.026248   | 0.031644   | 0.036594   |   1.5 |  0.22
Comm    | 6.4971     | 10.58      | 12.714     |  65.2 | 74.62
Output  | 0.006965   | 0.014203   | 0.021335   |   3.8 |  0.10
Modify  | 0.67711    | 1.605      | 5.6607     | 114.6 | 11.32
Other   |            | 0.6182     |            |       |  4.36

Nlocal:        7.51562 ave          34 max           0 min
Histogram: 41 6 1 0 0 2 1 5 5 3
Nghost:        1819.77 ave        2408 max        1294 min
Histogram: 16 0 0 0 32 0 0 0 0 16
Neighs:              0 ave           0 max           0 min
Histogram: 64 0 0 0 0 0 0 0 0 0

Total # of neighbors = 0
Ave neighs/atom = 0
Ave special neighs/atom = 15.567568
Neighbor list builds = 95
Dangerous builds = 0
unfix           myat1
next            cpt
jump            SELF loop
variable        zdes equal  -15+0.60*(${cpt}-1)
variable        zdes equal  -15+0.60*(4-1)
variable        zave equal xcm(H2,z)
fix             mytth2 H2 spring tether ${k1} 2.5 2.5 ${zdes} 0
fix             mytth2 H2 spring tether 1 2.5 2.5 ${zdes} 0
fix             mytth2 H2 spring tether 1 2.5 2.5 -13.2 0
run             10000
Generated 0 of 1 mixed pair_coeff terms from geometric mixing rule
Per MPI rank memory allocation (min/avg/max) = 13.32 | 13.62 | 14.95 Mbytes
   Step          Temp          E_pair         E_mol          TotEng         Press     
    200000   282.34644      375.54568      18542.069      19321.593     -392.14753    
    210000   295.63102      397.78052      18517.964      19338.73       253.56588    
Loop time of 3.00667 on 64 procs for 10000 steps with 481 atoms

Performance: 14.368 ns/day, 1.670 hours/ns, 3325.943 timesteps/s, 1.600 Matom-step/s
100.0% CPU use with 64 MPI tasks x 1 OpenMP threads

MPI task timing breakdown:
Section |  min time  |  avg time  |  max time  |%varavg| %total
---------------------------------------------------------------
Pair    | 0.0033242  | 0.12314    | 0.66902    |  58.1 |  4.10
Bond    | 0.0010589  | 0.14934    | 0.76184    |  62.7 |  4.97
Neigh   | 0.0055902  | 0.0065412  | 0.0074573  |   0.6 |  0.22
Comm    | 1.2753     | 2.2436     | 2.6988     |  30.6 | 74.62
Output  | 0.0013641  | 0.0027785  | 0.0041978  |   1.7 |  0.09
Modify  | 0.13613    | 0.34414    | 1.2976     |  57.3 | 11.45
Other   |            | 0.1371     |            |       |  4.56

Nlocal:        7.51562 ave          35 max           0 min
Histogram: 43 2 3 0 1 0 2 4 6 3
Nghost:        1826.42 ave        2423 max        1290 min
Histogram: 16 0 0 0 32 0 0 0 0 16
Neighs:              0 ave           0 max           0 min
Histogram: 64 0 0 0 0 0 0 0 0 0

Total # of neighbors = 0
Ave neighs/atom = 0
Ave special neighs/atom = 15.567568
Neighbor list builds = 17
Dangerous builds = 0
fix             myat1 all ave/time 1000 10 10000 v_zave v_zdes file simulation_data/abpot/${cpt}.dat
fix             myat1 all ave/time 1000 10 10000 v_zave v_zdes file simulation_data/abpot/4.dat
run             50000
Generated 0 of 1 mixed pair_coeff terms from geometric mixing rule
Per MPI rank memory allocation (min/avg/max) = 13.32 | 13.62 | 14.95 Mbytes
   Step          Temp          E_pair         E_mol          TotEng         Press     
    210000   295.63102      397.78052      18517.964      19338.73       253.56588    
    220000   310.76532      391.48123      18540.346      19376.467      221.88227    
    230000   315.68124      389.61649      18555.325      19396.615      29.845283    
    240000   297.12384      398.62917      18548.091      19371.841      318.40151    
    250000   295.11828      379.83549      18556.351      19358.438     -68.806778    
    260000   304.14981      380.79642      18509.602      19325.573     -220.93853    
Loop time of 14.4898 on 64 procs for 50000 steps with 481 atoms

Performance: 14.907 ns/day, 1.610 hours/ns, 3450.699 timesteps/s, 1.660 Matom-step/s
100.0% CPU use with 64 MPI tasks x 1 OpenMP threads

MPI task timing breakdown:
Section |  min time  |  avg time  |  max time  |%varavg| %total
---------------------------------------------------------------
Pair    | 0.016943   | 0.61703    | 3.4925     | 129.5 |  4.26
Bond    | 0.0053219  | 0.75706    | 3.9328     | 141.9 |  5.22
Neigh   | 0.0392     | 0.046445   | 0.052627   |   1.6 |  0.32
Comm    | 6.2216     | 10.804     | 12.936     |  68.1 | 74.56
Output  | 0.0070398  | 0.014252   | 0.021338   |   3.8 |  0.10
Modify  | 0.73293    | 1.6009     | 5.9234     | 122.4 | 11.05
Other   |            | 0.6501     |            |       |  4.49

Nlocal:        7.51562 ave          37 max           0 min
Histogram: 41 6 1 0 1 2 3 5 3 2
Nghost:        1814.98 ave        2392 max        1287 min
Histogram: 16 0 0 0 32 0 0 0 0 16
Neighs:              0 ave           0 max           0 min
Histogram: 64 0 0 0 0 0 0 0 0 0

Total # of neighbors = 0
Ave neighs/atom = 0
Ave special neighs/atom = 15.567568
Neighbor list builds = 129
Dangerous builds = 0
unfix           myat1
next            cpt
jump            SELF loop
variable        zdes equal  -15+0.60*(${cpt}-1)
variable        zdes equal  -15+0.60*(5-1)
variable        zave equal xcm(H2,z)
fix             mytth2 H2 spring tether ${k1} 2.5 2.5 ${zdes} 0
fix             mytth2 H2 spring tether 1 2.5 2.5 ${zdes} 0
fix             mytth2 H2 spring tether 1 2.5 2.5 -12.6 0
run             10000
Generated 0 of 1 mixed pair_coeff terms from geometric mixing rule
Per MPI rank memory allocation (min/avg/max) = 13.32 | 13.62 | 14.95 Mbytes
   Step          Temp          E_pair         E_mol          TotEng         Press     
    260000   304.14981      380.79642      18509.602      19325.573     -220.93853    
    270000   302.60788      385.28361      18516.563      19334.815      19.849009    
Loop time of 2.99334 on 64 procs for 10000 steps with 481 atoms

Performance: 14.432 ns/day, 1.663 hours/ns, 3340.753 timesteps/s, 1.607 Matom-step/s
100.0% CPU use with 64 MPI tasks x 1 OpenMP threads

MPI task timing breakdown:
Section |  min time  |  avg time  |  max time  |%varavg| %total
---------------------------------------------------------------
Pair    | 0.0033618  | 0.12451    | 0.73392    |  58.5 |  4.16
Bond    | 0.0010699  | 0.15341    | 0.90536    |  64.9 |  5.12
Neigh   | 0.0081744  | 0.0096601  | 0.010827   |   0.7 |  0.32
Comm    | 1.3316     | 2.2257     | 2.6747     |  31.3 | 74.36
Output  | 0.0014312  | 0.0028728  | 0.0043251  |   1.7 |  0.10
Modify  | 0.1508     | 0.34686    | 1.2914     |  57.4 | 11.59
Other   |            | 0.1303     |            |       |  4.35

Nlocal:        7.51562 ave          33 max           0 min
Histogram: 42 4 2 0 0 1 2 3 5 5
Nghost:        1825.67 ave        2422 max        1291 min
Histogram: 16 0 0 0 32 0 0 0 0 16
Neighs:              0 ave           0 max           0 min
Histogram: 64 0 0 0 0 0 0 0 0 0

Total # of neighbors = 0
Ave neighs/atom = 0
Ave special neighs/atom = 15.567568
Neighbor list builds = 26
Dangerous builds = 0
fix             myat1 all ave/time 1000 10 10000 v_zave v_zdes file simulation_data/abpot/${cpt}.dat
fix             myat1 all ave/time 1000 10 10000 v_zave v_zdes file simulation_data/abpot/5.dat
run             50000
Generated 0 of 1 mixed pair_coeff terms from geometric mixing rule
Per MPI rank memory allocation (min/avg/max) = 13.32 | 13.62 | 14.95 Mbytes
   Step          Temp          E_pair         E_mol          TotEng         Press     
    270000   302.60788      385.28361      18516.563      19334.815      19.849009    
    280000   311.55101      384.49254      18560.214      19390.47      -211.18071    
    290000   314.9747       385.15503      18537.682      19373.499      8.9259723    
    300000   290.92745      387.03241      18547.984      19351.272     -257.4548     
    310000   293.67798      397.67597      18513.817      19331.684      239.40259    
    320000   283.32348      389.63425      18492.642      19287.653      73.815472    
Loop time of 14.5924 on 64 procs for 50000 steps with 481 atoms

Performance: 14.802 ns/day, 1.621 hours/ns, 3426.449 timesteps/s, 1.648 Matom-step/s
100.0% CPU use with 64 MPI tasks x 1 OpenMP threads

MPI task timing breakdown:
Section |  min time  |  avg time  |  max time  |%varavg| %total
---------------------------------------------------------------
Pair    | 0.016855   | 0.61379    | 3.5281     | 129.3 |  4.21
Bond    | 0.0054448  | 0.75667    | 4.2344     | 143.7 |  5.19
Neigh   | 0.0277     | 0.033016   | 0.037347   |   1.3 |  0.23
Comm    | 6.2074     | 10.88      | 13.043     |  68.7 | 74.56
Output  | 0.007122   | 0.014196   | 0.02121    |   3.7 |  0.10
Modify  | 0.7148     | 1.6436     | 6.1112     | 124.3 | 11.26
Other   |            | 0.6513     |            |       |  4.46

Nlocal:        7.51562 ave          34 max           0 min
Histogram: 41 6 1 0 0 0 4 4 2 6
Nghost:        1823.42 ave        2416 max        1290 min
Histogram: 16 0 0 0 32 0 0 0 0 16
Neighs:              0 ave           0 max           0 min
Histogram: 64 0 0 0 0 0 0 0 0 0

Total # of neighbors = 0
Ave neighs/atom = 0
Ave special neighs/atom = 15.567568
Neighbor list builds = 93
Dangerous builds = 0
unfix           myat1
next            cpt
jump            SELF loop
variable        zdes equal  -15+0.60*(${cpt}-1)
variable        zdes equal  -15+0.60*(6-1)
variable        zave equal xcm(H2,z)
fix             mytth2 H2 spring tether ${k1} 2.5 2.5 ${zdes} 0
fix             mytth2 H2 spring tether 1 2.5 2.5 ${zdes} 0
fix             mytth2 H2 spring tether 1 2.5 2.5 -12 0
run             10000
Generated 0 of 1 mixed pair_coeff terms from geometric mixing rule
Per MPI rank memory allocation (min/avg/max) = 13.32 | 13.62 | 14.95 Mbytes
   Step          Temp          E_pair         E_mol          TotEng         Press     
    320000   283.32348      389.63425      18492.642      19287.653      73.815472    
    330000   285.1685       389.23724      18546.798      19344.051     -101.37863    
Loop time of 3.27354 on 64 procs for 10000 steps with 481 atoms

Performance: 13.197 ns/day, 1.819 hours/ns, 3054.800 timesteps/s, 1.469 Matom-step/s
100.0% CPU use with 64 MPI tasks x 1 OpenMP threads

MPI task timing breakdown:
Section |  min time  |  avg time  |  max time  |%varavg| %total
---------------------------------------------------------------
Pair    | 0.0034245  | 0.12786    | 0.90968    |  61.2 |  3.91
Bond    | 0.0010725  | 0.15218    | 0.88067    |  64.6 |  4.65
Neigh   | 0.0092162  | 0.010508   | 0.011715   |   0.6 |  0.32
Comm    | 1.2191     | 2.4677     | 2.9636     |  33.6 | 75.38
Output  | 0.0014222  | 0.0028428  | 0.0042784  |   1.7 |  0.09
Modify  | 0.12232    | 0.38383    | 1.5604     |  70.5 | 11.73
Other   |            | 0.1287     |            |       |  3.93

Nlocal:        7.51562 ave          36 max           0 min
Histogram: 42 6 0 0 0 5 2 2 1 6
Nghost:        1819.11 ave        2408 max        1288 min
Histogram: 16 0 0 0 32 0 0 0 0 16
Neighs:              0 ave           0 max           0 min
Histogram: 64 0 0 0 0 0 0 0 0 0

Total # of neighbors = 0
Ave neighs/atom = 0
Ave special neighs/atom = 15.567568
Neighbor list builds = 23
Dangerous builds = 0
fix             myat1 all ave/time 1000 10 10000 v_zave v_zdes file simulation_data/abpot/${cpt}.dat
fix             myat1 all ave/time 1000 10 10000 v_zave v_zdes file simulation_data/abpot/6.dat
run             50000
Generated 0 of 1 mixed pair_coeff terms from geometric mixing rule
Per MPI rank memory allocation (min/avg/max) = 13.32 | 13.62 | 14.95 Mbytes
   Step          Temp          E_pair         E_mol          TotEng         Press     
    330000   285.1685       389.23724      18546.798      19344.051     -101.37863    
    340000   294.4525       391.03804      18538.431      19350.768     -35.772218    
    350000   307.23346      385.8329       18514.652      19340.071     -20.292231    
    360000   293.95627      379.92277      18538.171      19338.683     -230.56546    
    370000   289.14703      388.81176      18536.732      19339.252     -106.67997    
    380000   306.80274      393.72705      18540.074      19372.771      52.809132    
Loop time of 15.3249 on 64 procs for 50000 steps with 481 atoms

Performance: 14.095 ns/day, 1.703 hours/ns, 3262.662 timesteps/s, 1.569 Matom-step/s
100.0% CPU use with 64 MPI tasks x 1 OpenMP threads

MPI task timing breakdown:
Section |  min time  |  avg time  |  max time  |%varavg| %total
---------------------------------------------------------------
Pair    | 0.016619   | 0.62843    | 3.9362     | 133.6 |  4.10
Bond    | 0.0054838  | 0.75634    | 4.0676     | 142.7 |  4.94
Neigh   | 0.041744   | 0.048286   | 0.05431    |   1.4 |  0.32
Comm    | 6.024      | 11.506     | 13.813     |  71.4 | 75.08
Output  | 0.0070725  | 0.014251   | 0.02134    |   3.8 |  0.09
Modify  | 0.66522    | 1.7389     | 6.8005     | 140.0 | 11.35
Other   |            | 0.6332     |            |       |  4.13

Nlocal:        7.51562 ave          38 max           0 min
Histogram: 42 6 0 0 2 2 3 4 1 4
Nghost:         1820.8 ave        2408 max        1288 min
Histogram: 16 0 0 0 32 0 0 0 0 16
Neighs:              0 ave           0 max           0 min
Histogram: 64 0 0 0 0 0 0 0 0 0

Total # of neighbors = 0
Ave neighs/atom = 0
Ave special neighs/atom = 15.567568
Neighbor list builds = 120
Dangerous builds = 0
unfix           myat1
next            cpt
jump            SELF loop
variable        zdes equal  -15+0.60*(${cpt}-1)
variable        zdes equal  -15+0.60*(7-1)
variable        zave equal xcm(H2,z)
fix             mytth2 H2 spring tether ${k1} 2.5 2.5 ${zdes} 0
fix             mytth2 H2 spring tether 1 2.5 2.5 ${zdes} 0
fix             mytth2 H2 spring tether 1 2.5 2.5 -11.4 0
run             10000
Generated 0 of 1 mixed pair_coeff terms from geometric mixing rule
Per MPI rank memory allocation (min/avg/max) = 13.32 | 13.62 | 14.95 Mbytes
   Step          Temp          E_pair         E_mol          TotEng         Press     
    380000   306.80274      393.72705      18540.074      19372.771      52.809132    
    390000   317.99005      394.66375      18535.155      19384.795      130.77617    
Loop time of 2.91673 on 64 procs for 10000 steps with 481 atoms

Performance: 14.811 ns/day, 1.620 hours/ns, 3428.494 timesteps/s, 1.649 Matom-step/s
100.0% CPU use with 64 MPI tasks x 1 OpenMP threads

MPI task timing breakdown:
Section |  min time  |  avg time  |  max time  |%varavg| %total
---------------------------------------------------------------
Pair    | 0.0033084  | 0.12332    | 0.66405    |  58.3 |  4.23
Bond    | 0.0010889  | 0.15109    | 0.82587    |  64.0 |  5.18
Neigh   | 0.0073565  | 0.0086923  | 0.0098684  |   0.7 |  0.30
Comm    | 1.319      | 2.1883     | 2.6199     |  30.8 | 75.03
Output  | 0.0014276  | 0.0028647  | 0.0043199  |   1.7 |  0.10
Modify  | 0.13533    | 0.32028    | 1.216      |  56.5 | 10.98
Other   |            | 0.1222     |            |       |  4.19

Nlocal:        7.51562 ave          37 max           0 min
Histogram: 44 3 1 0 2 3 1 3 2 5
Nghost:         1823.5 ave        2423 max        1288 min
Histogram: 16 0 0 0 32 0 0 0 0 16
Neighs:              0 ave           0 max           0 min
Histogram: 64 0 0 0 0 0 0 0 0 0

Total # of neighbors = 0
Ave neighs/atom = 0
Ave special neighs/atom = 15.567568
Neighbor list builds = 24
Dangerous builds = 0
fix             myat1 all ave/time 1000 10 10000 v_zave v_zdes file simulation_data/abpot/${cpt}.dat
fix             myat1 all ave/time 1000 10 10000 v_zave v_zdes file simulation_data/abpot/7.dat
run             50000
Generated 0 of 1 mixed pair_coeff terms from geometric mixing rule
Per MPI rank memory allocation (min/avg/max) = 13.32 | 13.62 | 14.95 Mbytes
   Step          Temp          E_pair         E_mol          TotEng         Press     
    390000   317.99005      394.66375      18535.155      19384.795      130.77617    
    400000   301.34644      380.59413      18536.45       19348.207     -233.77906    
    410000   291.59417      383.78889      18541.562      19342.561     -112.25611    
    420000   314.29692      397.29396      18523.673      19370.659      163.66328    
    430000   303.19156      382.61091      18556.367      19372.781     -214.25927    
    440000   297.20895      393.43113      18538.624      19357.299      75.261708    
Loop time of 14.5711 on 64 procs for 50000 steps with 481 atoms

Performance: 14.824 ns/day, 1.619 hours/ns, 3431.440 timesteps/s, 1.651 Matom-step/s
100.0% CPU use with 64 MPI tasks x 1 OpenMP threads

MPI task timing breakdown:
Section |  min time  |  avg time  |  max time  |%varavg| %total
---------------------------------------------------------------
Pair    | 0.016381   | 0.61953    | 3.2753     | 129.5 |  4.25
Bond    | 0.0055079  | 0.75806    | 4.016      | 142.0 |  5.20
Neigh   | 0.03104    | 0.036499   | 0.041583   |   1.4 |  0.25
Comm    | 6.7018     | 10.928     | 13.091     |  68.4 | 75.00
Output  | 0.0070486  | 0.014262   | 0.021429   |   3.8 |  0.10
Modify  | 0.70382    | 1.6005     | 6.0353     | 125.2 | 10.98
Other   |            | 0.6146     |            |       |  4.22

Nlocal:        7.51562 ave          34 max           0 min
Histogram: 42 4 2 0 0 1 2 6 2 5
Nghost:        1823.61 ave        2417 max        1291 min
Histogram: 16 0 0 0 32 0 0 0 0 16
Neighs:              0 ave           0 max           0 min
Histogram: 64 0 0 0 0 0 0 0 0 0

Total # of neighbors = 0
Ave neighs/atom = 0
Ave special neighs/atom = 15.567568
Neighbor list builds = 101
Dangerous builds = 0
unfix           myat1
next            cpt
jump            SELF loop
variable        zdes equal  -15+0.60*(${cpt}-1)
variable        zdes equal  -15+0.60*(8-1)
variable        zave equal xcm(H2,z)
fix             mytth2 H2 spring tether ${k1} 2.5 2.5 ${zdes} 0
fix             mytth2 H2 spring tether 1 2.5 2.5 ${zdes} 0
fix             mytth2 H2 spring tether 1 2.5 2.5 -10.8 0
run             10000
Generated 0 of 1 mixed pair_coeff terms from geometric mixing rule
Per MPI rank memory allocation (min/avg/max) = 13.32 | 13.62 | 14.95 Mbytes
   Step          Temp          E_pair         E_mol          TotEng         Press     
    440000   297.20895      393.43113      18538.624      19357.299      75.261708    
    450000   292.23551      381.91249      18532.427      19332.467     -127.16399    
Loop time of 2.84614 on 64 procs for 10000 steps with 481 atoms

Performance: 15.178 ns/day, 1.581 hours/ns, 3513.529 timesteps/s, 1.690 Matom-step/s
100.0% CPU use with 64 MPI tasks x 1 OpenMP threads

MPI task timing breakdown:
Section |  min time  |  avg time  |  max time  |%varavg| %total
---------------------------------------------------------------
Pair    | 0.0033234  | 0.12265    | 0.64918    |  57.3 |  4.31
Bond    | 0.0010831  | 0.15074    | 0.78422    |  63.4 |  5.30
Neigh   | 0.0057777  | 0.0067845  | 0.0077644  |   0.6 |  0.24
Comm    | 1.1944     | 2.1321     | 2.5514     |  30.1 | 74.91
Output  | 0.0014463  | 0.0028566  | 0.0043255  |   1.7 |  0.10
Modify  | 0.14381    | 0.31021    | 1.1402     |  52.8 | 10.90
Other   |            | 0.1208     |            |       |  4.25

Nlocal:        7.51562 ave          36 max           0 min
Histogram: 42 6 0 0 1 2 2 4 3 4
Nghost:        1822.11 ave        2410 max        1291 min
Histogram: 16 0 0 0 32 0 0 0 0 16
Neighs:              0 ave           0 max           0 min
Histogram: 64 0 0 0 0 0 0 0 0 0

Total # of neighbors = 0
Ave neighs/atom = 0
Ave special neighs/atom = 15.567568
Neighbor list builds = 19
Dangerous builds = 0
fix             myat1 all ave/time 1000 10 10000 v_zave v_zdes file simulation_data/abpot/${cpt}.dat
fix             myat1 all ave/time 1000 10 10000 v_zave v_zdes file simulation_data/abpot/8.dat
run             50000
Generated 0 of 1 mixed pair_coeff terms from geometric mixing rule
Per MPI rank memory allocation (min/avg/max) = 13.32 | 13.62 | 14.95 Mbytes
   Step          Temp          E_pair         E_mol          TotEng         Press     
    450000   292.23551      381.91249      18532.427      19332.467     -127.16399    
    460000   280.97844      387.71942      18515.947      19305.688      19.565023    
    470000   293.88424      389.74853      18535.444      19345.679     -132.9652     
    480000   302.22839      384.61787      18539.395      19356.438     -195.75392    
    490000   286.60776      392.69783      18522.253      19325.026      36.363809    
    500000   276.27957      384.63965      18530.061      19309.998     -36.191306    
Loop time of 14.375 on 64 procs for 50000 steps with 481 atoms

Performance: 15.026 ns/day, 1.597 hours/ns, 3478.250 timesteps/s, 1.673 Matom-step/s
100.0% CPU use with 64 MPI tasks x 1 OpenMP threads

MPI task timing breakdown:
Section |  min time  |  avg time  |  max time  |%varavg| %total
---------------------------------------------------------------
Pair    | 0.016874   | 0.62107    | 3.2803     | 130.1 |  4.32
Bond    | 0.0055105  | 0.75904    | 3.9558     | 142.0 |  5.28
Neigh   | 0.030283   | 0.03562    | 0.040562   |   1.4 |  0.25
Comm    | 6.3396     | 10.771     | 12.934     |  68.0 | 74.93
Output  | 0.0070075  | 0.014203   | 0.021329   |   3.8 |  0.10
Modify  | 0.66625    | 1.5675     | 5.867      | 121.1 | 10.90
Other   |            | 0.6066     |            |       |  4.22

Nlocal:        7.51562 ave          37 max           0 min
Histogram: 41 6 1 0 1 0 1 12 1 1
Nghost:        1823.52 ave        2414 max        1293 min
Histogram: 16 0 0 0 32 0 0 0 0 16
Neighs:              0 ave           0 max           0 min
Histogram: 64 0 0 0 0 0 0 0 0 0

Total # of neighbors = 0
Ave neighs/atom = 0
Ave special neighs/atom = 15.567568
Neighbor list builds = 98
Dangerous builds = 0
unfix           myat1
next            cpt
jump            SELF loop
variable        zdes equal  -15+0.60*(${cpt}-1)
variable        zdes equal  -15+0.60*(9-1)
variable        zave equal xcm(H2,z)
fix             mytth2 H2 spring tether ${k1} 2.5 2.5 ${zdes} 0
fix             mytth2 H2 spring tether 1 2.5 2.5 ${zdes} 0
fix             mytth2 H2 spring tether 1 2.5 2.5 -10.2 0
run             10000
Generated 0 of 1 mixed pair_coeff terms from geometric mixing rule
Per MPI rank memory allocation (min/avg/max) = 13.32 | 13.62 | 14.95 Mbytes
   Step          Temp          E_pair         E_mol          TotEng         Press     
    500000   276.27957      384.63965      18530.061      19309.998     -36.191306    
    510000   301.52613      383.4885       18508.522      19323.431      1.9602316    
Loop time of 2.89069 on 64 procs for 10000 steps with 481 atoms

Performance: 14.945 ns/day, 1.606 hours/ns, 3459.385 timesteps/s, 1.664 Matom-step/s
100.0% CPU use with 64 MPI tasks x 1 OpenMP threads

MPI task timing breakdown:
Section |  min time  |  avg time  |  max time  |%varavg| %total
---------------------------------------------------------------
Pair    | 0.0033956  | 0.12443    | 0.66239    |  58.5 |  4.30
Bond    | 0.001075   | 0.15225    | 0.85735    |  64.1 |  5.27
Neigh   | 0.0034722  | 0.0040748  | 0.0046331  |   0.4 |  0.14
Comm    | 1.2772     | 2.1705     | 2.6077     |  30.8 | 75.09
Output  | 0.0014056  | 0.0028131  | 0.0042466  |   1.7 |  0.10
Modify  | 0.13087    | 0.31506    | 1.2033     |  55.7 | 10.90
Other   |            | 0.1215     |            |       |  4.20

Nlocal:        7.51562 ave          40 max           0 min
Histogram: 41 6 1 1 0 1 7 4 2 1
Nghost:        1823.42 ave        2420 max        1290 min
Histogram: 16 0 0 0 32 0 0 0 0 16
Neighs:              0 ave           0 max           0 min
Histogram: 64 0 0 0 0 0 0 0 0 0

Total # of neighbors = 0
Ave neighs/atom = 0
Ave special neighs/atom = 15.567568
Neighbor list builds = 11
Dangerous builds = 0
fix             myat1 all ave/time 1000 10 10000 v_zave v_zdes file simulation_data/abpot/${cpt}.dat
fix             myat1 all ave/time 1000 10 10000 v_zave v_zdes file simulation_data/abpot/9.dat
run             50000
Generated 0 of 1 mixed pair_coeff terms from geometric mixing rule
Per MPI rank memory allocation (min/avg/max) = 13.32 | 13.62 | 14.95 Mbytes
   Step          Temp          E_pair         E_mol          TotEng         Press     
    510000   301.52613      383.4885       18508.522      19323.431      1.9602316    
    520000   304.98397      382.67483      18515.25       19334.292     -176.58755    
    530000   320.54531      386.80321      18529.321      19374.757      24.412134    
    540000   290.59461      382.48747      18526.611      19324.878     -207.38587    
    550000   295.87464      380.94826      18522.941      19327.223     -195.36251    
    560000   301.87334      394.58399      18528.525      19355.026      108.13437    
Loop time of 14.3774 on 64 procs for 50000 steps with 481 atoms

Performance: 15.024 ns/day, 1.597 hours/ns, 3477.676 timesteps/s, 1.673 Matom-step/s
100.0% CPU use with 64 MPI tasks x 1 OpenMP threads

MPI task timing breakdown:
Section |  min time  |  avg time  |  max time  |%varavg| %total
---------------------------------------------------------------
Pair    | 0.016739   | 0.61806    | 3.5432     | 129.9 |  4.30
Bond    | 0.0055086  | 0.75705    | 3.964      | 142.3 |  5.27
Neigh   | 0.015901   | 0.018951   | 0.021616   |   1.0 |  0.13
Comm    | 6.0758     | 10.796     | 12.937     |  68.1 | 75.09
Output  | 0.0070835  | 0.01431    | 0.021451   |   3.8 |  0.10
Modify  | 0.70008    | 1.5658     | 5.8906     | 122.0 | 10.89
Other   |            | 0.6072     |            |       |  4.22

Nlocal:        7.51562 ave          38 max           0 min
Histogram: 41 7 0 0 0 5 3 3 3 2
Nghost:        1817.89 ave        2404 max        1286 min
Histogram: 16 0 0 0 32 0 0 0 0 16
Neighs:              0 ave           0 max           0 min
Histogram: 64 0 0 0 0 0 0 0 0 0

Total # of neighbors = 0
Ave neighs/atom = 0
Ave special neighs/atom = 15.567568
Neighbor list builds = 53
Dangerous builds = 0
unfix           myat1
next            cpt
jump            SELF loop
variable        zdes equal  -15+0.60*(${cpt}-1)
variable        zdes equal  -15+0.60*(10-1)
variable        zave equal xcm(H2,z)
fix             mytth2 H2 spring tether ${k1} 2.5 2.5 ${zdes} 0
fix             mytth2 H2 spring tether 1 2.5 2.5 ${zdes} 0
fix             mytth2 H2 spring tether 1 2.5 2.5 -9.6 0
run             10000
Generated 0 of 1 mixed pair_coeff terms from geometric mixing rule
Per MPI rank memory allocation (min/avg/max) = 13.32 | 13.62 | 14.95 Mbytes
   Step          Temp          E_pair         E_mol          TotEng         Press     
    560000   301.87334      394.58399      18528.525      19355.026      108.13437    
    570000   310.22476      387.70141      18538.616      19370.183     -206.74125    
Loop time of 2.77118 on 64 procs for 10000 steps with 481 atoms

Performance: 15.589 ns/day, 1.540 hours/ns, 3608.570 timesteps/s, 1.736 Matom-step/s
100.0% CPU use with 64 MPI tasks x 1 OpenMP threads

MPI task timing breakdown:
Section |  min time  |  avg time  |  max time  |%varavg| %total
---------------------------------------------------------------
Pair    | 0.0032958  | 0.12301    | 0.71776    |  57.8 |  4.44
Bond    | 0.001093   | 0.15071    | 0.77245    |  63.4 |  5.44
Neigh   | 0.0024382  | 0.0029689  | 0.0034237  |   0.5 |  0.11
Comm    | 1.112      | 2.0761     | 2.4884     |  30.0 | 74.92
Output  | 0.0013811  | 0.002814   | 0.0042608  |   1.7 |  0.10
Modify  | 0.13397    | 0.29288    | 1.0706     |  49.7 | 10.57
Other   |            | 0.1227     |            |       |  4.43

Nlocal:        7.51562 ave          36 max           0 min
Histogram: 41 6 1 0 0 2 6 2 3 3
Nghost:        1823.05 ave        2419 max        1289 min
Histogram: 16 0 0 0 32 0 0 0 0 16
Neighs:              0 ave           0 max           0 min
Histogram: 64 0 0 0 0 0 0 0 0 0

Total # of neighbors = 0
Ave neighs/atom = 0
Ave special neighs/atom = 15.567568
Neighbor list builds = 9
Dangerous builds = 0
fix             myat1 all ave/time 1000 10 10000 v_zave v_zdes file simulation_data/abpot/${cpt}.dat
fix             myat1 all ave/time 1000 10 10000 v_zave v_zdes file simulation_data/abpot/10.dat
run             50000
Generated 0 of 1 mixed pair_coeff terms from geometric mixing rule
Per MPI rank memory allocation (min/avg/max) = 13.32 | 13.62 | 14.95 Mbytes
   Step          Temp          E_pair         E_mol          TotEng         Press     
    570000   310.22476      387.70141      18538.616      19370.183     -206.74125    
    580000   307.87921      375.48737      18534.226      19350.223     -288.59797    
    590000   295.84835      395.03332      18527.8        19346.13       77.182358    
    600000   309.16909      387.12176      18539.874      19369.352     -222.13849    
    610000   311.2515       391.17495      18523.153      19359.663      227.95178    
    620000   307.12336      386.20177      18514.444      19340.075      51.509457    
Loop time of 13.8993 on 64 procs for 50000 steps with 481 atoms

Performance: 15.540 ns/day, 1.544 hours/ns, 3597.301 timesteps/s, 1.730 Matom-step/s
100.0% CPU use with 64 MPI tasks x 1 OpenMP threads

MPI task timing breakdown:
Section |  min time  |  avg time  |  max time  |%varavg| %total
---------------------------------------------------------------
Pair    | 0.016628   | 0.61248    | 3.2927     | 129.0 |  4.41
Bond    | 0.0055106  | 0.75398    | 4.0331     | 142.0 |  5.42
Neigh   | 0.018949   | 0.022944   | 0.026421   |   1.2 |  0.17
Comm    | 6.0688     | 10.391     | 12.46      |  67.0 | 74.76
Output  | 0.0070876  | 0.014243   | 0.021376   |   3.8 |  0.10
Modify  | 0.67083    | 1.4884     | 5.4138     | 111.8 | 10.71
Other   |            | 0.6168     |            |       |  4.44

Nlocal:        7.51562 ave          34 max           0 min
Histogram: 40 8 0 0 0 2 1 6 1 6
Nghost:        1820.52 ave        2415 max        1291 min
Histogram: 16 0 0 0 32 0 0 0 0 16
Neighs:              0 ave           0 max           0 min
Histogram: 64 0 0 0 0 0 0 0 0 0

Total # of neighbors = 0
Ave neighs/atom = 0
Ave special neighs/atom = 15.567568
Neighbor list builds = 69
Dangerous builds = 0
unfix           myat1
next            cpt
jump            SELF loop
variable        zdes equal  -15+0.60*(${cpt}-1)
variable        zdes equal  -15+0.60*(11-1)
variable        zave equal xcm(H2,z)
fix             mytth2 H2 spring tether ${k1} 2.5 2.5 ${zdes} 0
fix             mytth2 H2 spring tether 1 2.5 2.5 ${zdes} 0
fix             mytth2 H2 spring tether 1 2.5 2.5 -9 0
run             10000
Generated 0 of 1 mixed pair_coeff terms from geometric mixing rule
Per MPI rank memory allocation (min/avg/max) = 13.32 | 13.62 | 14.95 Mbytes
   Step          Temp          E_pair         E_mol          TotEng         Press     
    620000   307.12336      386.20177      18514.444      19340.075      51.509457    
    630000   300.62278      387.75681      18518.261      19336.145      7.1132833    
Loop time of 2.78095 on 64 procs for 10000 steps with 481 atoms

Performance: 15.534 ns/day, 1.545 hours/ns, 3595.889 timesteps/s, 1.730 Matom-step/s
100.0% CPU use with 64 MPI tasks x 1 OpenMP threads

MPI task timing breakdown:
Section |  min time  |  avg time  |  max time  |%varavg| %total
---------------------------------------------------------------
Pair    | 0.0032982  | 0.12289    | 0.6571     |  58.1 |  4.42
Bond    | 0.0011004  | 0.15086    | 0.81878    |  63.6 |  5.42
Neigh   | 0.0047002  | 0.0057141  | 0.0065793  |   0.6 |  0.21
Comm    | 1.2022     | 2.0833     | 2.5011     |  30.1 | 74.91
Output  | 0.0013758  | 0.0027864  | 0.0042126  |   1.7 |  0.10
Modify  | 0.12761    | 0.29347    | 1.087      |  50.3 | 10.55
Other   |            | 0.122      |            |       |  4.39

Nlocal:        7.51562 ave          36 max           0 min
Histogram: 42 6 0 0 0 3 3 3 4 3
Nghost:        1820.98 ave        2411 max        1288 min
Histogram: 16 0 0 0 32 0 0 0 0 16
Neighs:              0 ave           0 max           0 min
Histogram: 64 0 0 0 0 0 0 0 0 0

Total # of neighbors = 0
Ave neighs/atom = 0
Ave special neighs/atom = 15.567568
Neighbor list builds = 17
Dangerous builds = 0
fix             myat1 all ave/time 1000 10 10000 v_zave v_zdes file simulation_data/abpot/${cpt}.dat
fix             myat1 all ave/time 1000 10 10000 v_zave v_zdes file simulation_data/abpot/11.dat
run             50000
Generated 0 of 1 mixed pair_coeff terms from geometric mixing rule
Per MPI rank memory allocation (min/avg/max) = 13.32 | 13.62 | 14.95 Mbytes
   Step          Temp          E_pair         E_mol          TotEng         Press     
    630000   300.62278      387.75681      18518.261      19336.145      7.1132833    
    640000   308.42096      377.99956      18520.819      19340.104     -280.20569    
    650000   320.28383      388.43221      18505.839      19352.53       20.749801    
    660000   318.43676      388.02984      18515.325      19358.971      101.8171     
    670000   287.86145      382.52798      18558.831      19353.228     -180.16128    
    680000   303.09287      386.03477      18525.588      19345.284      13.896875    
Loop time of 14.2419 on 64 procs for 50000 steps with 481 atoms

Performance: 15.166 ns/day, 1.582 hours/ns, 3510.764 timesteps/s, 1.689 Matom-step/s
100.0% CPU use with 64 MPI tasks x 1 OpenMP threads

MPI task timing breakdown:
Section |  min time  |  avg time  |  max time  |%varavg| %total
---------------------------------------------------------------
Pair    | 0.017385   | 0.61478    | 3.4383     | 129.7 |  4.32
Bond    | 0.0054956  | 0.75526    | 4.0264     | 142.9 |  5.30
Neigh   | 0.020802   | 0.02561    | 0.029301   |   1.3 |  0.18
Comm    | 5.9755     | 10.7       | 12.817     |  67.3 | 75.13
Output  | 0.0071432  | 0.014344   | 0.021453   |   3.8 |  0.10
Modify  | 0.63721    | 1.496      | 5.577      | 116.0 | 10.50
Other   |            | 0.6356     |            |       |  4.46

Nlocal:        7.51562 ave          36 max           0 min
Histogram: 43 4 1 0 0 2 3 5 3 3
Nghost:        1824.17 ave        2417 max        1288 min
Histogram: 16 0 0 0 32 0 0 0 0 16
Neighs:              0 ave           0 max           0 min
Histogram: 64 0 0 0 0 0 0 0 0 0

Total # of neighbors = 0
Ave neighs/atom = 0
Ave special neighs/atom = 15.567568
Neighbor list builds = 73
Dangerous builds = 0
unfix           myat1
next            cpt
jump            SELF loop
variable        zdes equal  -15+0.60*(${cpt}-1)
variable        zdes equal  -15+0.60*(12-1)
variable        zave equal xcm(H2,z)
fix             mytth2 H2 spring tether ${k1} 2.5 2.5 ${zdes} 0
fix             mytth2 H2 spring tether 1 2.5 2.5 ${zdes} 0
fix             mytth2 H2 spring tether 1 2.5 2.5 -8.4 0
run             10000
Generated 0 of 1 mixed pair_coeff terms from geometric mixing rule
Per MPI rank memory allocation (min/avg/max) = 13.32 | 13.62 | 14.95 Mbytes
   Step          Temp          E_pair         E_mol          TotEng         Press     
    680000   303.09287      386.03477      18525.588      19345.284      13.896875    
    690000   285.35735      380.4408       18520.634      19309.361     -247.22782    
Loop time of 3.00709 on 64 procs for 10000 steps with 481 atoms

Performance: 14.366 ns/day, 1.671 hours/ns, 3325.472 timesteps/s, 1.600 Matom-step/s
100.0% CPU use with 64 MPI tasks x 1 OpenMP threads

MPI task timing breakdown:
Section |  min time  |  avg time  |  max time  |%varavg| %total
---------------------------------------------------------------
Pair    | 0.0034645  | 0.12434    | 0.76309    |  58.8 |  4.13
Bond    | 0.001106   | 0.15208    | 0.86707    |  65.0 |  5.06
Neigh   | 0.0049136  | 0.0057862  | 0.0065235  |   0.5 |  0.19
Comm    | 1.108      | 2.2696     | 2.7266     |  31.2 | 75.48
Output  | 0.0014285  | 0.0029232  | 0.0044084  |   1.7 |  0.10
Modify  | 0.12294    | 0.32772    | 1.2876     |  58.9 | 10.90
Other   |            | 0.1246     |            |       |  4.14

Nlocal:        7.51562 ave          39 max           0 min
Histogram: 41 7 0 0 1 4 3 4 3 1
Nghost:        1820.33 ave        2408 max        1285 min
Histogram: 16 0 0 0 32 0 0 0 0 16
Neighs:              0 ave           0 max           0 min
Histogram: 64 0 0 0 0 0 0 0 0 0

Total # of neighbors = 0
Ave neighs/atom = 0
Ave special neighs/atom = 15.567568
Neighbor list builds = 15
Dangerous builds = 0
fix             myat1 all ave/time 1000 10 10000 v_zave v_zdes file simulation_data/abpot/${cpt}.dat
fix             myat1 all ave/time 1000 10 10000 v_zave v_zdes file simulation_data/abpot/12.dat
run             50000
Generated 0 of 1 mixed pair_coeff terms from geometric mixing rule
Per MPI rank memory allocation (min/avg/max) = 13.32 | 13.62 | 14.95 Mbytes
   Step          Temp          E_pair         E_mol          TotEng         Press     
    690000   285.35735      380.4408       18520.634      19309.361     -247.22782    
    700000   299.02999      389.74216      18543.962      19361.553     -46.344227    
    710000   304.47245      388.29409      18539.066      19362.996     -73.133636    
    720000   303.74324      383.58073      18509.877      19328.05      -64.928124    
    730000   288.35556      380.77796      18525.582      19318.936     -348.48374    
    740000   287.57289      389.01953      18526.764      19327.239     -65.728612    
Loop time of 14.3963 on 64 procs for 50000 steps with 481 atoms

Performance: 15.004 ns/day, 1.600 hours/ns, 3473.125 timesteps/s, 1.671 Matom-step/s
100.0% CPU use with 64 MPI tasks x 1 OpenMP threads

MPI task timing breakdown:
Section |  min time  |  avg time  |  max time  |%varavg| %total
---------------------------------------------------------------
Pair    | 0.017486   | 0.62251    | 3.4271     | 130.9 |  4.32
Bond    | 0.0055094  | 0.75841    | 3.8734     | 142.8 |  5.27
Neigh   | 0.02362    | 0.028098   | 0.032011   |   1.3 |  0.20
Comm    | 5.7929     | 10.797     | 12.976     |  68.1 | 75.00
Output  | 0.0070897  | 0.014378   | 0.021546   |   3.8 |  0.10
Modify  | 0.63464    | 1.5522     | 5.816      | 119.3 | 10.78
Other   |            | 0.6234     |            |       |  4.33

Nlocal:        7.51562 ave          32 max           0 min
Histogram: 42 4 2 0 0 0 2 5 2 7
Nghost:        1816.11 ave        2405 max        1293 min
Histogram: 16 0 0 0 32 0 0 0 0 16
Neighs:              0 ave           0 max           0 min
Histogram: 64 0 0 0 0 0 0 0 0 0

Total # of neighbors = 0
Ave neighs/atom = 0
Ave special neighs/atom = 15.567568
Neighbor list builds = 78
Dangerous builds = 0
unfix           myat1
next            cpt
jump            SELF loop
variable        zdes equal  -15+0.60*(${cpt}-1)
variable        zdes equal  -15+0.60*(13-1)
variable        zave equal xcm(H2,z)
fix             mytth2 H2 spring tether ${k1} 2.5 2.5 ${zdes} 0
fix             mytth2 H2 spring tether 1 2.5 2.5 ${zdes} 0
fix             mytth2 H2 spring tether 1 2.5 2.5 -7.8 0
run             10000
Generated 0 of 1 mixed pair_coeff terms from geometric mixing rule
Per MPI rank memory allocation (min/avg/max) = 13.32 | 13.62 | 14.95 Mbytes
   Step          Temp          E_pair         E_mol          TotEng         Press     
    740000   287.57289      389.01953      18526.764      19327.239     -65.728612    
    750000   303.15498      392.70019      18529.396      19355.847      174.55498    
Loop time of 2.96714 on 64 procs for 10000 steps with 481 atoms

Performance: 14.559 ns/day, 1.648 hours/ns, 3370.249 timesteps/s, 1.621 Matom-step/s
100.0% CPU use with 64 MPI tasks x 1 OpenMP threads

MPI task timing breakdown:
Section |  min time  |  avg time  |  max time  |%varavg| %total
---------------------------------------------------------------
Pair    | 0.0035395  | 0.12596    | 0.74098    |  59.3 |  4.25
Bond    | 0.0010987  | 0.15178    | 0.8093     |  63.9 |  5.12
Neigh   | 0.0078181  | 0.0093258  | 0.010639   |   0.7 |  0.31
Comm    | 1.2927     | 2.2282     | 2.6668     |  31.0 | 75.09
Output  | 0.0015112  | 0.0029624  | 0.0044168  |   1.7 |  0.10
Modify  | 0.13318    | 0.32181    | 1.2507     |  57.5 | 10.85
Other   |            | 0.1271     |            |       |  4.28

Nlocal:        7.51562 ave          36 max           0 min
Histogram: 41 7 0 0 0 1 5 2 5 3
Nghost:        1822.11 ave        2412 max        1288 min
Histogram: 16 0 0 0 32 0 0 0 0 16
Neighs:              0 ave           0 max           0 min
Histogram: 64 0 0 0 0 0 0 0 0 0

Total # of neighbors = 0
Ave neighs/atom = 0
Ave special neighs/atom = 15.567568
Neighbor list builds = 26
Dangerous builds = 0
fix             myat1 all ave/time 1000 10 10000 v_zave v_zdes file simulation_data/abpot/${cpt}.dat
fix             myat1 all ave/time 1000 10 10000 v_zave v_zdes file simulation_data/abpot/13.dat
run             50000
Generated 0 of 1 mixed pair_coeff terms from geometric mixing rule
Per MPI rank memory allocation (min/avg/max) = 13.32 | 13.62 | 14.95 Mbytes
   Step          Temp          E_pair         E_mol          TotEng         Press     
    750000   303.15498      392.70019      18529.396      19355.847      174.55498    
    760000   305.20252      386.8311       18548.041      19371.552     -186.79035    
    770000   306.70189      398.54736      18524.769      19362.142      141.74537    
    780000   298.88643      389.47582      18541.641      19358.76       151.80933    
    790000   292.2798       391.64678      18546.96       19356.797     -43.927323    
    800000   285.6822       391.13933      18540.783      19340.673     -27.114123    
Loop time of 14.3589 on 64 procs for 50000 steps with 481 atoms

Performance: 15.043 ns/day, 1.595 hours/ns, 3482.152 timesteps/s, 1.675 Matom-step/s
100.0% CPU use with 64 MPI tasks x 1 OpenMP threads

MPI task timing breakdown:
Section |  min time  |  avg time  |  max time  |%varavg| %total
---------------------------------------------------------------
Pair    | 0.017519   | 0.62254    | 3.3787     | 130.8 |  4.34
Bond    | 0.0054211  | 0.75585    | 3.7815     | 141.7 |  5.26
Neigh   | 0.030876   | 0.036738   | 0.041902   |   1.5 |  0.26
Comm    | 5.9077     | 10.747     | 12.894     |  67.6 | 74.85
Output  | 0.0070796  | 0.014409   | 0.021618   |   3.8 |  0.10
Modify  | 0.65721    | 1.5373     | 5.8064     | 117.7 | 10.71
Other   |            | 0.645      |            |       |  4.49

Nlocal:        7.51562 ave          33 max           0 min
Histogram: 44 0 4 0 0 0 5 1 3 7
Nghost:         1816.2 ave        2406 max        1291 min
Histogram: 16 0 0 0 32 0 0 0 0 16
Neighs:              0 ave           0 max           0 min
Histogram: 64 0 0 0 0 0 0 0 0 0

Total # of neighbors = 0
Ave neighs/atom = 0
Ave special neighs/atom = 15.567568
Neighbor list builds = 102
Dangerous builds = 0
unfix           myat1
next            cpt
jump            SELF loop
variable        zdes equal  -15+0.60*(${cpt}-1)
variable        zdes equal  -15+0.60*(14-1)
variable        zave equal xcm(H2,z)
fix             mytth2 H2 spring tether ${k1} 2.5 2.5 ${zdes} 0
fix             mytth2 H2 spring tether 1 2.5 2.5 ${zdes} 0
fix             mytth2 H2 spring tether 1 2.5 2.5 -7.2 0
run             10000
Generated 0 of 1 mixed pair_coeff terms from geometric mixing rule
Per MPI rank memory allocation (min/avg/max) = 13.32 | 13.62 | 14.95 Mbytes
   Step          Temp          E_pair         E_mol          TotEng         Press     
    800000   285.6822       391.13933      18540.783      19340.673     -27.114123    
    810000   310.82184      397.15135      18521.973      19363.844      62.947222    
Loop time of 2.80299 on 64 procs for 10000 steps with 481 atoms

Performance: 15.412 ns/day, 1.557 hours/ns, 3567.620 timesteps/s, 1.716 Matom-step/s
100.0% CPU use with 64 MPI tasks x 1 OpenMP threads

MPI task timing breakdown:
Section |  min time  |  avg time  |  max time  |%varavg| %total
---------------------------------------------------------------
Pair    | 0.0034083  | 0.12448    | 0.72997    |  58.3 |  4.44
Bond    | 0.0010696  | 0.15092    | 0.77475    |  63.3 |  5.38
Neigh   | 0.0047736  | 0.0057455  | 0.0066225  |   0.6 |  0.20
Comm    | 1.087      | 2.0951     | 2.5117     |  30.0 | 74.75
Output  | 0.0014292  | 0.0028587  | 0.004295   |   1.7 |  0.10
Modify  | 0.12822    | 0.29537    | 1.1119     |  50.5 | 10.54
Other   |            | 0.1285     |            |       |  4.58

Nlocal:        7.51562 ave          36 max           0 min
Histogram: 43 4 1 0 0 2 2 6 4 2
Nghost:        1817.98 ave        2406 max        1292 min
Histogram: 16 0 0 0 32 0 0 0 0 16
Neighs:              0 ave           0 max           0 min
Histogram: 64 0 0 0 0 0 0 0 0 0

Total # of neighbors = 0
Ave neighs/atom = 0
Ave special neighs/atom = 15.567568
Neighbor list builds = 17
Dangerous builds = 0
fix             myat1 all ave/time 1000 10 10000 v_zave v_zdes file simulation_data/abpot/${cpt}.dat
fix             myat1 all ave/time 1000 10 10000 v_zave v_zdes file simulation_data/abpot/14.dat
run             50000
Generated 0 of 1 mixed pair_coeff terms from geometric mixing rule
Per MPI rank memory allocation (min/avg/max) = 13.32 | 13.62 | 14.95 Mbytes
   Step          Temp          E_pair         E_mol          TotEng         Press     
    810000   310.82184      397.15135      18521.973      19363.844      62.947222    
    820000   322.93415      392.03149      18528.923      19383.005     -130.19045    
    830000   303.95639      386.2203       18537.8        19358.918     -19.181176    
    840000   316.81085      395.10303      18489.887      19338.28      -18.512022    
    850000   294.06207      393.32796      18514.706      19328.774      9.342079     
    860000   304.46109      385.40554      18512.598      19333.623     -190.83899    
Loop time of 14.9179 on 64 procs for 50000 steps with 481 atoms

Performance: 14.479 ns/day, 1.658 hours/ns, 3351.681 timesteps/s, 1.612 Matom-step/s
100.0% CPU use with 64 MPI tasks x 1 OpenMP threads

MPI task timing breakdown:
Section |  min time  |  avg time  |  max time  |%varavg| %total
---------------------------------------------------------------
Pair    | 0.01656    | 0.63033    | 3.4751     | 132.0 |  4.23
Bond    | 0.0055586  | 0.76179    | 3.7865     | 142.3 |  5.11
Neigh   | 0.028923   | 0.034124   | 0.038763   |   1.4 |  0.23
Comm    | 6.5419     | 11.161     | 13.429     |  68.8 | 74.82
Output  | 0.0072464  | 0.014527   | 0.02168    |   3.8 |  0.10
Modify  | 0.67073    | 1.6731     | 6.3828     | 127.1 | 11.22
Other   |            | 0.6432     |            |       |  4.31

Nlocal:        7.51562 ave          36 max           0 min
Histogram: 42 6 0 0 0 0 6 5 3 2
Nghost:        1817.05 ave        2405 max        1289 min
Histogram: 16 0 0 0 32 0 0 0 0 16
Neighs:              0 ave           0 max           0 min
Histogram: 64 0 0 0 0 0 0 0 0 0

Total # of neighbors = 0
Ave neighs/atom = 0
Ave special neighs/atom = 15.567568
Neighbor list builds = 91
Dangerous builds = 0
unfix           myat1
next            cpt
jump            SELF loop
variable        zdes equal  -15+0.60*(${cpt}-1)
variable        zdes equal  -15+0.60*(15-1)
variable        zave equal xcm(H2,z)
fix             mytth2 H2 spring tether ${k1} 2.5 2.5 ${zdes} 0
fix             mytth2 H2 spring tether 1 2.5 2.5 ${zdes} 0
fix             mytth2 H2 spring tether 1 2.5 2.5 -6.6 0
run             10000
Generated 0 of 1 mixed pair_coeff terms from geometric mixing rule
Per MPI rank memory allocation (min/avg/max) = 13.32 | 13.62 | 14.95 Mbytes
   Step          Temp          E_pair         E_mol          TotEng         Press     
    860000   304.46109      385.40554      18512.598      19333.623     -190.83899    
    870000   303.73224      384.23701      18528.983      19347.797     -226.39654    
Loop time of 2.89959 on 64 procs for 10000 steps with 481 atoms

Performance: 14.899 ns/day, 1.611 hours/ns, 3448.768 timesteps/s, 1.659 Matom-step/s
100.0% CPU use with 64 MPI tasks x 1 OpenMP threads

MPI task timing breakdown:
Section |  min time  |  avg time  |  max time  |%varavg| %total
---------------------------------------------------------------
Pair    | 0.0033309  | 0.12615    | 0.69289    |  59.0 |  4.35
Bond    | 0.0011167  | 0.15235    | 0.77602    |  63.9 |  5.25
Neigh   | 0.0066597  | 0.0079713  | 0.009121   |   0.7 |  0.27
Comm    | 1.2534     | 2.1684     | 2.6084     |  30.7 | 74.78
Output  | 0.0013786  | 0.0028093  | 0.0042453  |   1.7 |  0.10
Modify  | 0.13017    | 0.31367    | 1.1929     |  53.9 | 10.82
Other   |            | 0.1282     |            |       |  4.42

Nlocal:        7.51562 ave          35 max           0 min
Histogram: 41 6 1 0 0 2 3 4 3 4
Nghost:        1817.98 ave        2404 max        1291 min
Histogram: 16 0 0 0 32 0 0 0 0 16
Neighs:              0 ave           0 max           0 min
Histogram: 64 0 0 0 0 0 0 0 0 0

Total # of neighbors = 0
Ave neighs/atom = 0
Ave special neighs/atom = 15.567568
Neighbor list builds = 22
Dangerous builds = 0
fix             myat1 all ave/time 1000 10 10000 v_zave v_zdes file simulation_data/abpot/${cpt}.dat
fix             myat1 all ave/time 1000 10 10000 v_zave v_zdes file simulation_data/abpot/15.dat
run             50000
Generated 0 of 1 mixed pair_coeff terms from geometric mixing rule
Per MPI rank memory allocation (min/avg/max) = 13.32 | 13.62 | 14.95 Mbytes
   Step          Temp          E_pair         E_mol          TotEng         Press     
    870000   303.73224      384.23701      18528.983      19347.797     -226.39654    
    880000   304.86419      393.87548      18546.439      19376.51      -12.804139    
    890000   325.81493      394.60656      18543.534      19404.313      7.9123931    
    900000   290.5881       390.57052      18554.158      19360.499     -156.29838    
    910000   292.86101      386.66784      18524.681      19330.371     -133.30177    
    920000   303.68742      387.64688      18512.83       19334.989     -43.077903    
Loop time of 15.1044 on 64 procs for 50000 steps with 481 atoms

Performance: 14.301 ns/day, 1.678 hours/ns, 3310.303 timesteps/s, 1.592 Matom-step/s
100.0% CPU use with 64 MPI tasks x 1 OpenMP threads

MPI task timing breakdown:
Section |  min time  |  avg time  |  max time  |%varavg| %total
---------------------------------------------------------------
Pair    | 0.017897   | 0.63199    | 3.6466     | 132.6 |  4.18
Bond    | 0.0055781  | 0.76247    | 3.957      | 142.9 |  5.05
Neigh   | 0.039994   | 0.046876   | 0.053019   |   1.5 |  0.31
Comm    | 6.3837     | 11.326     | 13.649     |  69.4 | 74.99
Output  | 0.0074058  | 0.014773   | 0.021983   |   3.8 |  0.10
Modify  | 0.63138    | 1.6751     | 6.5367     | 132.1 | 11.09
Other   |            | 0.6469     |            |       |  4.28

Nlocal:        7.51562 ave          35 max           0 min
Histogram: 43 2 3 0 0 2 2 4 6 2
Nghost:        1818.64 ave        2406 max        1293 min
Histogram: 16 0 0 0 32 0 0 0 0 16
Neighs:              0 ave           0 max           0 min
Histogram: 64 0 0 0 0 0 0 0 0 0

Total # of neighbors = 0
Ave neighs/atom = 0
Ave special neighs/atom = 15.567568
Neighbor list builds = 122
Dangerous builds = 0
unfix           myat1
next            cpt
jump            SELF loop
variable        zdes equal  -15+0.60*(${cpt}-1)
variable        zdes equal  -15+0.60*(16-1)
variable        zave equal xcm(H2,z)
fix             mytth2 H2 spring tether ${k1} 2.5 2.5 ${zdes} 0
fix             mytth2 H2 spring tether 1 2.5 2.5 ${zdes} 0
fix             mytth2 H2 spring tether 1 2.5 2.5 -6 0
run             10000
Generated 0 of 1 mixed pair_coeff terms from geometric mixing rule
Per MPI rank memory allocation (min/avg/max) = 13.32 | 13.62 | 14.95 Mbytes
   Step          Temp          E_pair         E_mol          TotEng         Press     
    920000   303.68742      387.64688      18512.83       19334.989     -43.077903    
    930000   310.34422      386.29689      18523.488      19353.822     -43.883132    
Loop time of 2.90224 on 64 procs for 10000 steps with 481 atoms

Performance: 14.885 ns/day, 1.612 hours/ns, 3445.620 timesteps/s, 1.657 Matom-step/s
100.0% CPU use with 64 MPI tasks x 1 OpenMP threads

MPI task timing breakdown:
Section |  min time  |  avg time  |  max time  |%varavg| %total
---------------------------------------------------------------
Pair    | 0.0033937  | 0.12559    | 0.71768    |  59.0 |  4.33
Bond    | 0.0011068  | 0.15131    | 0.79024    |  63.2 |  5.21
Neigh   | 0.006379   | 0.0075038  | 0.0085269  |   0.6 |  0.26
Comm    | 1.2775     | 2.1769     | 2.605      |  30.5 | 75.01
Output  | 0.0013825  | 0.0028275  | 0.0042826  |   1.7 |  0.10
Modify  | 0.13396    | 0.30944    | 1.198      |  54.7 | 10.66
Other   |            | 0.1287     |            |       |  4.43

Nlocal:        7.51562 ave          34 max           0 min
Histogram: 43 2 3 0 1 0 2 4 6 3
Nghost:        1820.52 ave        2416 max        1292 min
Histogram: 16 0 0 0 32 0 0 0 0 16
Neighs:              0 ave           0 max           0 min
Histogram: 64 0 0 0 0 0 0 0 0 0

Total # of neighbors = 0
Ave neighs/atom = 0
Ave special neighs/atom = 15.567568
Neighbor list builds = 20
Dangerous builds = 0
fix             myat1 all ave/time 1000 10 10000 v_zave v_zdes file simulation_data/abpot/${cpt}.dat
fix             myat1 all ave/time 1000 10 10000 v_zave v_zdes file simulation_data/abpot/16.dat
run             50000
Generated 0 of 1 mixed pair_coeff terms from geometric mixing rule
Per MPI rank memory allocation (min/avg/max) = 13.32 | 13.62 | 14.95 Mbytes
   Step          Temp          E_pair         E_mol          TotEng         Press     
    930000   310.34422      386.29689      18523.488      19353.822     -43.883132    
    940000   293.60695      394.95388      18545.722      19360.766      264.73561    
    950000   291.13183      384.48613      18561.514      19362.548     -216.33116    
    960000   303.76075      390.30918      18508.298      19333.225      46.245096    
    970000   311.54525      389.01965      18532.382      19367.157     -162.94365    
    980000   321.2182       391.62162      18538.379      19389.597     -77.011599    
Loop time of 14.7473 on 64 procs for 50000 steps with 481 atoms

Performance: 14.647 ns/day, 1.639 hours/ns, 3390.444 timesteps/s, 1.631 Matom-step/s
100.0% CPU use with 64 MPI tasks x 1 OpenMP threads

MPI task timing breakdown:
Section |  min time  |  avg time  |  max time  |%varavg| %total
---------------------------------------------------------------
Pair    | 0.017327   | 0.62577    | 3.4843     | 131.5 |  4.24
Bond    | 0.0056089  | 0.75622    | 3.8226     | 141.7 |  5.13
Neigh   | 0.030303   | 0.035918   | 0.041083   |   1.4 |  0.24
Comm    | 6.4335     | 11.065     | 13.268     |  68.4 | 75.03
Output  | 0.0071165  | 0.01429    | 0.021352   |   3.8 |  0.10
Modify  | 0.67253    | 1.6055     | 6.175      | 125.8 | 10.89
Other   |            | 0.645      |            |       |  4.37

Nlocal:        7.51562 ave          36 max           0 min
Histogram: 41 6 1 0 0 1 6 1 7 1
Nghost:        1824.17 ave        2424 max        1292 min
Histogram: 16 0 0 0 32 0 0 0 0 16
Neighs:              0 ave           0 max           0 min
Histogram: 64 0 0 0 0 0 0 0 0 0

Total # of neighbors = 0
Ave neighs/atom = 0
Ave special neighs/atom = 15.567568
Neighbor list builds = 98
Dangerous builds = 0
unfix           myat1
next            cpt
jump            SELF loop
variable        zdes equal  -15+0.60*(${cpt}-1)
variable        zdes equal  -15+0.60*(17-1)
variable        zave equal xcm(H2,z)
fix             mytth2 H2 spring tether ${k1} 2.5 2.5 ${zdes} 0
fix             mytth2 H2 spring tether 1 2.5 2.5 ${zdes} 0
fix             mytth2 H2 spring tether 1 2.5 2.5 -5.4 0
run             10000
Generated 0 of 1 mixed pair_coeff terms from geometric mixing rule
Per MPI rank memory allocation (min/avg/max) = 13.32 | 13.62 | 14.95 Mbytes
   Step          Temp          E_pair         E_mol          TotEng         Press     
    980000   321.2182       391.62162      18538.379      19389.597     -77.011599    
    990000   291.27867      388.5456       18531.18       19336.484     -135.30383    
Loop time of 3.06533 on 64 procs for 10000 steps with 481 atoms

Performance: 14.093 ns/day, 1.703 hours/ns, 3262.291 timesteps/s, 1.569 Matom-step/s
100.0% CPU use with 64 MPI tasks x 1 OpenMP threads

MPI task timing breakdown:
Section |  min time  |  avg time  |  max time  |%varavg| %total
---------------------------------------------------------------
Pair    | 0.0034671  | 0.12562    | 0.73514    |  58.8 |  4.10
Bond    | 0.0010993  | 0.15181    | 0.81977    |  63.9 |  4.95
Neigh   | 0.0063841  | 0.007514   | 0.0084969  |   0.6 |  0.25
Comm    | 1.2287     | 2.3071     | 2.7724     |  31.1 | 75.26
Output  | 0.0014739  | 0.0029251  | 0.0044031  |   1.7 |  0.10
[...]
Section |  min time  |  avg time  |  max time  |%varavg| %total
---------------------------------------------------------------
Pair    | 0.0034217  | 0.1411     | 0.96528    |  66.8 |  4.18
Bond    | 0.0010592  | 0.1631     | 0.86079    |  67.4 |  4.84
Neigh   | 0.0061372  | 0.0068028  | 0.0072617  |   0.4 |  0.20
Comm    | 1.3507     | 2.5458     | 3.0866     |  36.8 | 75.47
Output  | 0.0014913  | 0.0028722  | 0.0042879  |   1.6 |  0.09
Modify  | 0.13476    | 0.39683    | 1.7051     |  76.4 | 11.76
Other   |            | 0.1168     |            |       |  3.46

Nlocal:        7.51562 ave          37 max           0 min
Histogram: 41 6 1 1 0 1 5 4 3 2
Nghost:        1816.77 ave        2403 max        1289 min
Histogram: 16 0 0 0 32 0 0 0 0 16
Neighs:              0 ave           0 max           0 min
Histogram: 64 0 0 0 0 0 0 0 0 0

Total # of neighbors = 0
Ave neighs/atom = 0
Ave special neighs/atom = 15.567568
Neighbor list builds = 14
Dangerous builds = 0
fix             myat1 all ave/time 1000 10 10000 v_zave v_zdes file simulation_data/abpot/${cpt}.dat
fix             myat1 all ave/time 1000 10 10000 v_zave v_zdes file simulation_data/abpot/47.dat
run             50000
Generated 0 of 1 mixed pair_coeff terms from geometric mixing rule
Per MPI rank memory allocation (min/avg/max) = 13.32 | 13.62 | 14.95 Mbytes
   Step          Temp          E_pair         E_mol          TotEng         Press     
   2790000   300.10541      378.21437      18500.093      19307.694     -158.51636    
   2800000   282.14864      384.42956      18523.781      19311.906     -1.8169141    
   2810000   300.80239      382.04547      18526.289      19338.719     -150.57514    
   2820000   307.33023      394.49863      18514.207      19348.43       291.69276    
   2830000   290.20344      381.91641      18524.114      19321.25      -181.98324    
   2840000   280.78675      385.55506      18517.753      19305.054     -84.287808    
Loop time of 16.8217 on 64 procs for 50000 steps with 481 atoms

Performance: 12.841 ns/day, 1.869 hours/ns, 2972.353 timesteps/s, 1.430 Matom-step/s
100.0% CPU use with 64 MPI tasks x 1 OpenMP threads

MPI task timing breakdown:
Section |  min time  |  avg time  |  max time  |%varavg| %total
---------------------------------------------------------------
Pair    | 0.017088   | 0.70339    | 4.6837     | 147.4 |  4.18
Bond    | 0.0053255  | 0.81605    | 4.3447     | 150.4 |  4.85
Neigh   | 0.038447   | 0.042642   | 0.045704   |   0.9 |  0.25
Comm    | 6.73       | 12.725     | 15.344     |  81.8 | 75.65
Output  | 0.0076675  | 0.01473    | 0.021773   |   3.7 |  0.09
Modify  | 0.70324    | 1.9297     | 8.2956     | 170.5 | 11.47
Other   |            | 0.5902     |            |       |  3.51

Nlocal:        7.51562 ave          38 max           0 min
Histogram: 42 4 2 1 1 1 3 6 3 1
Nghost:        1817.89 ave        2399 max        1291 min
Histogram: 16 0 0 0 32 0 0 0 0 16
Neighs:              0 ave           0 max           0 min
Histogram: 64 0 0 0 0 0 0 0 0 0

Total # of neighbors = 0
Ave neighs/atom = 0
Ave special neighs/atom = 15.567568
Neighbor list builds = 90
Dangerous builds = 0
unfix           myat1
next            cpt
jump            SELF loop
variable        zdes equal  -15+0.60*(${cpt}-1)
variable        zdes equal  -15+0.60*(48-1)
variable        zave equal xcm(H2,z)
fix             mytth2 H2 spring tether ${k1} 2.5 2.5 ${zdes} 0
fix             mytth2 H2 spring tether 1 2.5 2.5 ${zdes} 0
fix             mytth2 H2 spring tether 1 2.5 2.5 13.2 0
run             10000
Generated 0 of 1 mixed pair_coeff terms from geometric mixing rule
Per MPI rank memory allocation (min/avg/max) = 13.32 | 13.62 | 14.95 Mbytes
   Step          Temp          E_pair         E_mol          TotEng         Press     
   2840000   280.78675      385.55506      18517.753      19305.054     -84.287808    
   2850000   294.89254      391.72863      18501.676      19315.333      99.748835    
Loop time of 3.3298 on 64 procs for 10000 steps with 481 atoms

Performance: 12.974 ns/day, 1.850 hours/ns, 3003.185 timesteps/s, 1.445 Matom-step/s
100.0% CPU use with 64 MPI tasks x 1 OpenMP threads

MPI task timing breakdown:
Section |  min time  |  avg time  |  max time  |%varavg| %total
---------------------------------------------------------------
Pair    | 0.0034528  | 0.14005    | 0.93332    |  65.8 |  4.21
Bond    | 0.0010614  | 0.16195    | 0.91396    |  67.0 |  4.86
Neigh   | 0.0053892  | 0.0060361  | 0.0064721  |   0.4 |  0.18
Comm    | 1.3683     | 2.523      | 3.0349     |  36.6 | 75.77
Output  | 0.0014501  | 0.0028471  | 0.0042718  |   1.7 |  0.09
Modify  | 0.1296     | 0.37701    | 1.6527     |  76.3 | 11.32
Other   |            | 0.1189     |            |       |  3.57

Nlocal:        7.51562 ave          39 max           0 min
Histogram: 41 6 1 1 1 2 3 5 3 1
Nghost:        1818.73 ave        2415 max        1290 min
Histogram: 16 0 0 0 32 0 0 0 0 16
Neighs:              0 ave           0 max           0 min
Histogram: 64 0 0 0 0 0 0 0 0 0

Total # of neighbors = 0
Ave neighs/atom = 0
Ave special neighs/atom = 15.567568
Neighbor list builds = 13
Dangerous builds = 0
fix             myat1 all ave/time 1000 10 10000 v_zave v_zdes file simulation_data/abpot/${cpt}.dat
fix             myat1 all ave/time 1000 10 10000 v_zave v_zdes file simulation_data/abpot/48.dat
run             50000
Generated 0 of 1 mixed pair_coeff terms from geometric mixing rule
Per MPI rank memory allocation (min/avg/max) = 13.32 | 13.62 | 14.95 Mbytes
   Step          Temp          E_pair         E_mol          TotEng         Press     
   2850000   294.89254      391.72863      18501.676      19315.333      99.748835    
   2860000   312.7887       385.19028      18513.489      19346.214     -47.568657    
   2870000   294.17383      379.61241      18502.687      19303.2       -45.998851    
   2880000   297.19675      390.81025      18498.627      19314.663      153.07103    
   2890000   299.5337       380.57518      18522.786      19331.931     -204.76118    
   2900000   295.32023      384.07783      18527.819      19334.438     -101.22692    
Loop time of 16.9889 on 64 procs for 50000 steps with 481 atoms

Performance: 12.714 ns/day, 1.888 hours/ns, 2943.092 timesteps/s, 1.416 Matom-step/s
100.0% CPU use with 64 MPI tasks x 1 OpenMP threads

MPI task timing breakdown:
Section |  min time  |  avg time  |  max time  |%varavg| %total
---------------------------------------------------------------
Pair    | 0.017688   | 0.7035     | 4.8795     | 147.8 |  4.14
Bond    | 0.0053548  | 0.8155     | 4.2196     | 149.6 |  4.80
Neigh   | 0.023036   | 0.025493   | 0.027319   |   0.7 |  0.15
Comm    | 6.7754     | 12.823     | 15.462     |  81.5 | 75.48
Output  | 0.0076619  | 0.015434   | 0.023022   |   3.9 |  0.09
Modify  | 0.7131     | 1.9763     | 8.5301     | 169.7 | 11.63
Other   |            | 0.6293     |            |       |  3.70

Nlocal:        7.51562 ave          35 max           0 min
Histogram: 43 2 3 0 0 1 4 4 4 3
Nghost:        1818.45 ave        2401 max        1290 min
Histogram: 16 0 0 0 32 0 0 0 0 16
Neighs:              0 ave           0 max           0 min
Histogram: 64 0 0 0 0 0 0 0 0 0

Total # of neighbors = 0
Ave neighs/atom = 0
Ave special neighs/atom = 15.567568
Neighbor list builds = 53
Dangerous builds = 0
unfix           myat1
next            cpt
jump            SELF loop
variable        zdes equal  -15+0.60*(${cpt}-1)
variable        zdes equal  -15+0.60*(49-1)
variable        zave equal xcm(H2,z)
fix             mytth2 H2 spring tether ${k1} 2.5 2.5 ${zdes} 0
fix             mytth2 H2 spring tether 1 2.5 2.5 ${zdes} 0
fix             mytth2 H2 spring tether 1 2.5 2.5 13.8 0
run             10000
Generated 0 of 1 mixed pair_coeff terms from geometric mixing rule
Per MPI rank memory allocation (min/avg/max) = 13.32 | 13.62 | 14.95 Mbytes
   Step          Temp          E_pair         E_mol          TotEng         Press     
   2900000   295.32023      384.07783      18527.819      19334.438     -101.22692    
   2910000   309.54144      380.64982      18495.529      19319.068     -60.140277    
Loop time of 3.41882 on 64 procs for 10000 steps with 481 atoms

Performance: 12.636 ns/day, 1.899 hours/ns, 2924.985 timesteps/s, 1.407 Matom-step/s
100.0% CPU use with 64 MPI tasks x 1 OpenMP threads

MPI task timing breakdown:
Section |  min time  |  avg time  |  max time  |%varavg| %total
---------------------------------------------------------------
Pair    | 0.003266   | 0.1405     | 0.95016    |  66.0 |  4.11
Bond    | 0.0010786  | 0.16288    | 0.86063    |  67.1 |  4.76
Neigh   | 0.0069176  | 0.0077228  | 0.0082689  |   0.4 |  0.23
Comm    | 1.3774     | 2.5794     | 3.1107     |  36.7 | 75.45
Output  | 0.0015372  | 0.0031252  | 0.0047207  |   1.8 |  0.09
Modify  | 0.13225    | 0.39815    | 1.7173     |  77.0 | 11.65
Other   |            | 0.127      |            |       |  3.71

Nlocal:        7.51562 ave          32 max           0 min
Histogram: 43 2 3 0 0 0 0 5 5 6
Nghost:        1816.02 ave        2392 max        1294 min
Histogram: 16 0 0 0 32 0 0 0 0 16
Neighs:              0 ave           0 max           0 min
Histogram: 64 0 0 0 0 0 0 0 0 0

Total # of neighbors = 0
Ave neighs/atom = 0
Ave special neighs/atom = 15.567568
Neighbor list builds = 16
Dangerous builds = 0
fix             myat1 all ave/time 1000 10 10000 v_zave v_zdes file simulation_data/abpot/${cpt}.dat
fix             myat1 all ave/time 1000 10 10000 v_zave v_zdes file simulation_data/abpot/49.dat
run             50000
Generated 0 of 1 mixed pair_coeff terms from geometric mixing rule
Per MPI rank memory allocation (min/avg/max) = 13.32 | 13.62 | 14.95 Mbytes
   Step          Temp          E_pair         E_mol          TotEng         Press     
   2910000   309.54144      380.64982      18495.529      19319.068     -60.140277    
   2920000   293.68506      378.85195      18496.475      19295.528     -115.44284    
   2930000   301.8353       381.27778      18493.444      19306.585     -37.682157    
   2940000   289.91012      379.82477      18516.913      19311.538     -87.207496    
   2950000   293.63493      380.03234      18527.409      19327.571      4.1074979    
   2960000   302.98635      388.88112      18539.437      19361.828      95.900056    
Loop time of 17.7177 on 64 procs for 50000 steps with 481 atoms

Performance: 12.191 ns/day, 1.969 hours/ns, 2822.040 timesteps/s, 1.357 Matom-step/s
100.0% CPU use with 64 MPI tasks x 1 OpenMP threads

MPI task timing breakdown:
Section |  min time  |  avg time  |  max time  |%varavg| %total
---------------------------------------------------------------
Pair    | 0.016776   | 0.70229    | 4.9124     | 148.0 |  3.96
Bond    | 0.0053862  | 0.81577    | 4.3005     | 150.4 |  4.60
Neigh   | 0.042643   | 0.046989   | 0.050155   |   0.9 |  0.27
Comm    | 7.3252     | 13.396     | 16.128     |  83.4 | 75.61
Output  | 0.0079705  | 0.016034   | 0.023878   |   4.0 |  0.09
Modify  | 0.69467    | 2.1055     | 9.2328     | 180.1 | 11.88
Other   |            | 0.6353     |            |       |  3.59

Nlocal:        7.51562 ave          35 max           0 min
Histogram: 43 2 3 0 0 0 4 5 5 2
Nghost:        1823.05 ave        2416 max        1289 min
Histogram: 16 0 0 0 32 0 0 0 0 16
Neighs:              0 ave           0 max           0 min
Histogram: 64 0 0 0 0 0 0 0 0 0

Total # of neighbors = 0
Ave neighs/atom = 0
Ave special neighs/atom = 15.567568
Neighbor list builds = 93
Dangerous builds = 0
unfix           myat1
next            cpt
jump            SELF loop
variable        zdes equal  -15+0.60*(${cpt}-1)
variable        zdes equal  -15+0.60*(50-1)
variable        zave equal xcm(H2,z)
fix             mytth2 H2 spring tether ${k1} 2.5 2.5 ${zdes} 0
fix             mytth2 H2 spring tether 1 2.5 2.5 ${zdes} 0
fix             mytth2 H2 spring tether 1 2.5 2.5 14.4 0
run             10000
Generated 0 of 1 mixed pair_coeff terms from geometric mixing rule
Per MPI rank memory allocation (min/avg/max) = 13.32 | 13.62 | 14.95 Mbytes
   Step          Temp          E_pair         E_mol          TotEng         Press     
   2960000   302.98635      388.88112      18539.437      19361.828      95.900056    
   2970000   304.86212      377.406        18561.979      19375.579     -322.87312    
Loop time of 3.42427 on 64 procs for 10000 steps with 481 atoms

Performance: 12.616 ns/day, 1.902 hours/ns, 2920.330 timesteps/s, 1.405 Matom-step/s
100.0% CPU use with 64 MPI tasks x 1 OpenMP threads

MPI task timing breakdown:
Section |  min time  |  avg time  |  max time  |%varavg| %total
---------------------------------------------------------------
Pair    | 0.0034214  | 0.13999    | 1.0198     |  65.9 |  4.09
Bond    | 0.0010607  | 0.16304    | 0.86461    |  67.3 |  4.76
Neigh   | 0.007816   | 0.0086832  | 0.0093073  |   0.4 |  0.25
Comm    | 1.3172     | 2.5847     | 3.122      |  36.9 | 75.48
Output  | 0.0015256  | 0.0031766  | 0.0048138  |   1.9 |  0.09
Modify  | 0.13985    | 0.39755    | 1.7208     |  77.9 | 11.61
Other   |            | 0.1271     |            |       |  3.71

Nlocal:        7.51562 ave          34 max           0 min
Histogram: 40 7 1 0 0 0 3 6 3 4
Nghost:         1820.7 ave        2421 max        1290 min
Histogram: 16 0 0 0 32 0 0 0 0 16
Neighs:              0 ave           0 max           0 min
Histogram: 64 0 0 0 0 0 0 0 0 0

Total # of neighbors = 0
Ave neighs/atom = 0
Ave special neighs/atom = 15.567568
Neighbor list builds = 18
Dangerous builds = 0
fix             myat1 all ave/time 1000 10 10000 v_zave v_zdes file simulation_data/abpot/${cpt}.dat
fix             myat1 all ave/time 1000 10 10000 v_zave v_zdes file simulation_data/abpot/50.dat
run             50000
Generated 0 of 1 mixed pair_coeff terms from geometric mixing rule
Per MPI rank memory allocation (min/avg/max) = 13.32 | 13.62 | 14.95 Mbytes
   Step          Temp          E_pair         E_mol          TotEng         Press     
   2970000   304.86212      377.406        18561.979      19375.579     -322.87312    
   2980000   311.97857      384.98983      18503.11       19334.475     -46.914453    
   2990000   305.42687      388.41285      18489.616      19315.03       120.46899    
   3000000   314.15178      381.77513      18483.362      19314.622     -68.354177    
   3010000   303.36495      385.41572      18508.723      19328.19       35.042401    
   3020000   303.80358      385.91682      18524.087      19344.683      22.975296    
Loop time of 17.3155 on 64 procs for 50000 steps with 481 atoms

Performance: 12.474 ns/day, 1.924 hours/ns, 2887.590 timesteps/s, 1.389 Matom-step/s
100.0% CPU use with 64 MPI tasks x 1 OpenMP threads

MPI task timing breakdown:
Section |  min time  |  avg time  |  max time  |%varavg| %total
---------------------------------------------------------------
Pair    | 0.017139   | 0.69833    | 4.9342     | 146.2 |  4.03
Bond    | 0.0053229  | 0.81454    | 4.389      | 150.1 |  4.70
Neigh   | 0.028327   | 0.031252   | 0.033531   |   0.8 |  0.18
Comm    | 7.0615     | 13.104     | 15.733     |  82.3 | 75.68
Output  | 0.0079569  | 0.015859   | 0.023535   |   3.9 |  0.09
Modify  | 0.71936    | 2.014      | 8.7725     | 175.9 | 11.63
Other   |            | 0.6371     |            |       |  3.68

Nlocal:        7.51562 ave          34 max           0 min
Histogram: 41 6 1 0 1 1 1 5 3 5
Nghost:        1822.39 ave        2416 max        1290 min
Histogram: 16 0 0 0 32 0 0 0 0 16
Neighs:              0 ave           0 max           0 min
Histogram: 64 0 0 0 0 0 0 0 0 0

Total # of neighbors = 0
Ave neighs/atom = 0
Ave special neighs/atom = 15.567568
Neighbor list builds = 63
Dangerous builds = 0
unfix           myat1
next            cpt
jump            SELF loop
variable        zdes equal  -15+0.60*(${cpt}-1)
variable        zdes equal  -15+0.60*(51-1)
variable        zave equal xcm(H2,z)
fix             mytth2 H2 spring tether ${k1} 2.5 2.5 ${zdes} 0
fix             mytth2 H2 spring tether 1 2.5 2.5 ${zdes} 0
fix             mytth2 H2 spring tether 1 2.5 2.5 15 0
run             10000
Generated 0 of 1 mixed pair_coeff terms from geometric mixing rule
Per MPI rank memory allocation (min/avg/max) = 13.32 | 13.62 | 14.95 Mbytes
   Step          Temp          E_pair         E_mol          TotEng         Press     
   3020000   303.80358      385.91682      18524.087      19344.683      22.975296    
   3030000   315.2741       374.45518      18522.146      19347.692     -371.02122    
Loop time of 3.50331 on 64 procs for 10000 steps with 481 atoms

Performance: 12.331 ns/day, 1.946 hours/ns, 2854.443 timesteps/s, 1.373 Matom-step/s
100.0% CPU use with 64 MPI tasks x 1 OpenMP threads

MPI task timing breakdown:
Section |  min time  |  avg time  |  max time  |%varavg| %total
---------------------------------------------------------------
Pair    | 0.0033846  | 0.14042    | 1.0037     |  66.2 |  4.01
Bond    | 0.0010654  | 0.16326    | 0.87586    |  67.6 |  4.66
Neigh   | 0.0036877  | 0.0040762  | 0.0043873  |   0.3 |  0.12
Comm    | 1.4393     | 2.6527     | 3.1999     |  37.5 | 75.72
Output  | 0.0015684  | 0.0032309  | 0.0048717  |   1.9 |  0.09
Modify  | 0.14059    | 0.41104    | 1.8057     |  80.9 | 11.73
Other   |            | 0.1286     |            |       |  3.67

Nlocal:        7.51562 ave          37 max           0 min
Histogram: 41 7 0 0 0 4 1 5 5 1
Nghost:        1821.64 ave        2413 max        1287 min
Histogram: 16 0 0 0 32 0 0 0 0 16
Neighs:              0 ave           0 max           0 min
Histogram: 64 0 0 0 0 0 0 0 0 0

Total # of neighbors = 0
Ave neighs/atom = 0
Ave special neighs/atom = 15.567568
Neighbor list builds = 8
Dangerous builds = 0
fix             myat1 all ave/time 1000 10 10000 v_zave v_zdes file simulation_data/abpot/${cpt}.dat
fix             myat1 all ave/time 1000 10 10000 v_zave v_zdes file simulation_data/abpot/51.dat
run             50000
Generated 0 of 1 mixed pair_coeff terms from geometric mixing rule
Per MPI rank memory allocation (min/avg/max) = 13.32 | 13.62 | 14.95 Mbytes
   Step          Temp          E_pair         E_mol          TotEng         Press     
   3030000   315.2741       374.45518      18522.146      19347.692     -371.02122    
   3040000   301.86154      378.88096      18523.72       19334.501     -89.17978     
   3050000   287.28635      384.78038      18498.907      19294.734      27.442158    
   3060000   298.79038      381.18749      18473.774      19282.467     -56.681486    
   3070000   301.09015      385.82496      18510.277      19326.898      79.2665      
   3080000   305.3322       390.0488       18521.631      19348.546      95.322786    
Loop time of 16.7746 on 64 procs for 50000 steps with 481 atoms

Performance: 12.877 ns/day, 1.864 hours/ns, 2980.705 timesteps/s, 1.434 Matom-step/s
100.0% CPU use with 64 MPI tasks x 1 OpenMP threads

MPI task timing breakdown:
Section |  min time  |  avg time  |  max time  |%varavg| %total
---------------------------------------------------------------
Pair    | 0.01756    | 0.69979    | 4.823      | 146.9 |  4.17
Bond    | 0.0053152  | 0.81543    | 4.6532     | 150.9 |  4.86
Neigh   | 0.026396   | 0.029307   | 0.031526   |   0.8 |  0.17
Comm    | 6.8325     | 12.663     | 15.267     |  81.4 | 75.49
Output  | 0.0077119  | 0.015553   | 0.023139   |   4.0 |  0.09
Modify  | 0.709      | 1.9237     | 8.3051     | 169.0 | 11.47
Other   |            | 0.6274     |            |       |  3.74

Nlocal:        7.51562 ave          37 max           0 min
Histogram: 40 8 0 1 1 1 3 3 4 3
Nghost:        1822.11 ave        2413 max        1290 min
Histogram: 16 0 0 0 32 0 0 0 0 16
Neighs:              0 ave           0 max           0 min
Histogram: 64 0 0 0 0 0 0 0 0 0

Total # of neighbors = 0
Ave neighs/atom = 0
Ave special neighs/atom = 15.567568
Neighbor list builds = 61
Dangerous builds = 0
unfix           myat1
next            cpt
jump            SELF loop

Total wall time: 0:16:17
