# --- log file ---

variable pre equal 112 # desired pressure (Atm)
variable tem equal 300 # desired temperature (K)

variable k1 equal 4.5 # spring constant
variable k2 equal 3.5 # spring constant

units real
atom_style molecular
boundary p p p
neighbor 1.0 bin
neigh_modify delay 3 one 6000
bond_style harmonic
angle_style harmonic
dihedral_style opls
improper_style harmonic
pair_style hybrid lj/cut 14 sg 15 cb 30 # Fluid-fluid interactions have a cutoff of 15 Å, fluid-solid interactions have a cutoff of 30 Å
# *--* C-C parameters *--*
bond_style harmonic
angle_style harmonic
dihedral_style opls
improper_style harmonic
# *--* C-C parameters *--*


# 2. Read the graphite platelet data file and define potentials parameters
read_data       ../geometry/carbonPlatelets/simulation_data/abpot_sys.data  extra/atom/types 1
Reading data file ...
  orthogonal box = (-30 -30 -30) to (30 30 30)
  3 by 4 by 4 MPI processor grid
  reading atoms ...
  480 atoms
  reading velocities ...
  480 velocities
  scanning bonds ...
  2 = max bonds/atom
  scanning angles ...
  3 = max angles/atom
  scanning dihedrals ...
  8 = max dihedrals/atom
  scanning impropers ...
  2 = max impropers/atom
  orthogonal box = (-30 -30 -30) to (30 30 30)
  3 by 4 by 4 MPI processor grid
  reading bonds ...
  676 bonds
  reading angles ...
  1268 angles
  reading dihedrals ...
  2394 dihedrals
  reading impropers ...
  396 impropers
Finding 1-2 1-3 1-4 neighbors ...
  special bond factors lj:    0        0        0       
  special bond factors coul:  0        0        0       
     3 = max # of 1-2 neighbors
     6 = max # of 1-3 neighbors
    18 = max # of 1-4 neighbors
    18 = max # of special neighbors
  special bonds CPU = 0.002 seconds
  read_data CPU = 0.049 seconds
include         PARM.lammps

#////////////////////////////////////////////////////////////////////////////////////////////////////////////////////////////////
#//     Filename: PARM.lammps
#//     File Type: LAMMPS input script
#//     Description: This script defines the parameters for the simulation of hydrogen absorption in graphite platelets.
#//     Author: Edoardo Cabiati
#//     Date: 2024-07-27
#////////////////////////////////////////////////////////////////////////////////////////////////////////////////////////////////

mass 2 2.016 # For now at least, in accordance with the paper by Wang and Johnson,
             # 1998, the hydrogen atoms are regarded as simple spherical atoms

# //////////////////////////////////////    C-C potentials    //////////////////////////////////////
pair_coeff 1 1 lj/cut 0.066 3.4
bond_coeff 1 469 1.4
angle_coeff 1 63 120
dihedral_coeff 1 0 7.25 0 0
improper_coeff 1 5 180
special_bonds lj 0.0 0.0 0.5
Finding 1-2 1-3 1-4 neighbors ...
  special bond factors lj:    0        0        0.5     
  special bond factors coul:  0        0        0       
     3 = max # of 1-2 neighbors
     6 = max # of 1-3 neighbors
    18 = max # of 1-4 neighbors
    18 = max # of special neighbors
  special bonds CPU = 0.001 seconds
# //////////////////////////////////////    C-C potentials    //////////////////////////////////////
# -------------------------------------------------------------------------------------------------
# //////////////////////////////////////    H-H potentials    //////////////////////////////////////
variable alpha equal 1.713          #|
variable sigma equal 1.567          #|
variable gamma equal 0.00993        #|
variable c6 equal 12.14             #|      The parameters are all in atomic units, the conversion to kcal/mol
variable c8 equal 215.2             #|      is performed in the pair_sg.cpp file
variable c9 equal 143.1             #|
variable c10 equal 4813.9           #|
variable rc equal 8.321             #|
pair_coeff 2 2 sg ${alpha} ${sigma} ${gamma} ${c6} ${c8} ${c9} ${c10} ${rc} # H-H potentials
pair_coeff 2 2 sg 1.713 ${sigma} ${gamma} ${c6} ${c8} ${c9} ${c10} ${rc} 
pair_coeff 2 2 sg 1.713 1.567 ${gamma} ${c6} ${c8} ${c9} ${c10} ${rc} 
pair_coeff 2 2 sg 1.713 1.567 0.00993 ${c6} ${c8} ${c9} ${c10} ${rc} 
pair_coeff 2 2 sg 1.713 1.567 0.00993 12.14 ${c8} ${c9} ${c10} ${rc} 
pair_coeff 2 2 sg 1.713 1.567 0.00993 12.14 215.2 ${c9} ${c10} ${rc} 
pair_coeff 2 2 sg 1.713 1.567 0.00993 12.14 215.2 143.1 ${c10} ${rc} 
pair_coeff 2 2 sg 1.713 1.567 0.00993 12.14 215.2 143.1 4813.9 ${rc} 
pair_coeff 2 2 sg 1.713 1.567 0.00993 12.14 215.2 143.1 4813.9 8.321 
#pair_coeff 2 2 sg 1.713 1.567 0.00993 12.14 215.2 143.1 4813.9 8.321 # H-H potentials
# //////////////////////////////////////    H-H potentials    //////////////////////////////////////
# -------------------------------------------------------------------------------------------------
# //////////////////////////////////////    C-H potentials    //////////////////////////////////////
variable sigma_CC equal 3.43 # Å
variable sigma_HH equal 3.075 # Å
variable sigma_CH_geo equal sqrt(${sigma_CC}*${sigma_HH}) # Å
variable sigma_CH_geo equal sqrt(3.43*${sigma_HH}) 
variable sigma_CH_geo equal sqrt(3.43*3.075) 
variable sigma_CH_arit equal 0.5*(${sigma_CC}+${sigma_HH}) # Å
variable sigma_CH_arit equal 0.5*(3.43+${sigma_HH}) 
variable sigma_CH_arit equal 0.5*(3.43+3.075) 

variable P_par equal 0.57 # Å^3
variable P_perp equal 1.995 # Å^3
variable P_h equal 0.81 # Å^3
variable E_h equal 2.337e5*(1/503.23) # K * 1/503.23 kcal/mol/K = kcal/mol
variable E_c equal 1.39254e5*(1/503.23) # K * 1/503.23 kcal/mol/K = kcal/mol

variable epsilon equal 4*v_E_h*v_E_c*v_P_h*(v_P_par+v_P_perp/2)/(v_sigma_CH_geo^6*(v_E_h+v_E_c)) # kcal/mol

pair_coeff 1 2 cb ${epsilon} ${sigma_CH_geo} ${P_par} ${P_perp} # C-H potential
pair_coeff 1 2 cb 0.750549668586509 ${sigma_CH_geo} ${P_par} ${P_perp} 
pair_coeff 1 2 cb 0.750549668586509 3.24765299870537 ${P_par} ${P_perp} 
pair_coeff 1 2 cb 0.750549668586509 3.24765299870537 0.57 ${P_perp} 
pair_coeff 1 2 cb 0.750549668586509 3.24765299870537 0.57 1.995 
#pair_coeff 1 2 lj/cut 0.3025 2.065
# //////////////////////////////////////    C-H potentials    //////////////////////////////////////

# 3. Add a single hydrogen molecule to the system, close to the center of the first platelet
create_atoms    2 single 0 0 -2
Created 1 atoms
  using lattice units in orthogonal box = (-30 -30 -30) to (30 30 30)
  create_atoms CPU = 0.000 seconds

group           C type 1
480 atoms in group C
group           H2 type 2
1 atoms in group H2

# 4. Equilibration
timestep        0.05
fix             mytth1 C spring/self ${k2} # Apply a spring force to the carbon atoms
fix             mytth1 C spring/self 3.5 
velocity        all create ${tem} 48 rot yes mom yes dist gaussian # Initialize velocities
velocity        all create 300 48 rot yes mom yes dist gaussian 
fix             mynpt all npt temp ${tem} ${tem} 100 x ${pre} ${pre} 1000 y ${pre} ${pre} 1000 # Apply NPT ensemble to the system
fix             mynpt all npt temp 300 ${tem} 100 x ${pre} ${pre} 1000 y ${pre} ${pre} 1000 
fix             mynpt all npt temp 300 300 100 x ${pre} ${pre} 1000 y ${pre} ${pre} 1000 
fix             mynpt all npt temp 300 300 100 x 112 ${pre} 1000 y ${pre} ${pre} 1000 
fix             mynpt all npt temp 300 300 100 x 112 112 1000 y ${pre} ${pre} 1000 
fix             mynpt all npt temp 300 300 100 x 112 112 1000 y 112 ${pre} 1000 
fix             mynpt all npt temp 300 300 100 x 112 112 1000 y 112 112 1000 

thermo          10000
dump            dump all atom 1000 simulation_data/absorption_pot.lammpstrj

run             20000

CITE-CITE-CITE-CITE-CITE-CITE-CITE-CITE-CITE-CITE-CITE-CITE-CITE

Your simulation uses code contributions which should be cited:

- Type Label Framework: https://doi.org/10.1021/acs.jpcb.3c08419

@Article{Gissinger24,
 author = {Jacob R. Gissinger, Ilia Nikiforov, Yaser Afshar, Brendon Waters, Moon-ki Choi, Daniel S. Karls, Alexander Stukowski, Wonpil Im, Hendrik Heinz, Axel Kohlmeyer, and Ellad B. Tadmor},
 title = {Type Label Framework for Bonded Force Fields in LAMMPS},
 journal = {J. Phys. Chem. B},
 year =    2024,
 volume =  128,
 number =  13,
 pages =   {3282–-3297}
}

CITE-CITE-CITE-CITE-CITE-CITE-CITE-CITE-CITE-CITE-CITE-CITE-CITE

Generated 0 of 1 mixed pair_coeff terms from geometric mixing rule
Neighbor list info ...
  update: every = 1 steps, delay = 3 steps, check = yes
  max neighbors/atom: 6000, page size: 100000
  master list distance cutoff = 31
  ghost atom cutoff = 31
  binsize = 15.5, bins = 4 4 4
  4 neighbor lists, perpetual/occasional/extra = 4 0 0
  (1) pair lj/cut, perpetual, skip trim from (4)
      attributes: half, newton on, cut 15
      pair build: skip/trim
      stencil: none
      bin: none
  (2) pair sg, perpetual, skip trim from (4)
      attributes: half, newton on, cut 16
      pair build: skip/trim
      stencil: none
      bin: none
  (3) pair cb, perpetual, skip from (4)
      attributes: half, newton on
      pair build: skip
      stencil: none
      bin: none
  (4) neighbor class addition, perpetual
      attributes: half, newton on
      pair build: half/bin/newton
      stencil: half/bin/3d
      bin: standard
Per MPI rank memory allocation (min/avg/max) = 13.28 | 13.37 | 13.93 Mbytes
   Step          Temp          E_pair         E_mol          TotEng         Press          Volume    
         0   300            308.43814      19603.922      20341.597     -432.48369      216000       
     10000   308.72719      373.58236      18568.419      19383.724     -313.9945       172136.64    
     20000   322.02648      371.05675      18538.378      19370.187     -418.66256      126544.33    
Loop time of 7.53898 on 48 procs for 20000 steps with 481 atoms

Performance: 11.460 ns/day, 2.094 hours/ns, 2652.878 timesteps/s, 1.276 Matom-step/s
99.8% CPU use with 48 MPI tasks x 1 OpenMP threads

MPI task timing breakdown:
Section |  min time  |  avg time  |  max time  |%varavg| %total
---------------------------------------------------------------
Pair    | 0.12901    | 0.45826    | 2.4862     |  78.2 |  6.08
Bond    | 0.0038334  | 0.42074    | 2.2913     | 112.6 |  5.58
Neigh   | 0.019251   | 0.02143    | 0.024058   |   0.9 |  0.28
Comm    | 1.8708     | 4.2786     | 6.2621     |  68.3 | 56.75
Output  | 0.0031139  | 0.0077747  | 0.013084   |   3.7 |  0.10
Modify  | 0.63999    | 2.1011     | 4.5012     | 104.0 | 27.87
Other   |            | 0.2511     |            |       |  3.33

Nlocal:        10.0208 ave          42 max           0 min
Histogram: 21 4 10 5 0 1 0 3 3 1
Nghost:        1907.85 ave        2370 max        1332 min
Histogram: 8 0 0 0 24 0 0 0 0 16
Neighs:              0 ave           0 max           0 min
Histogram: 48 0 0 0 0 0 0 0 0 0

Total # of neighbors = 0
Ave neighs/atom = 0
Ave special neighs/atom = 15.567568
Neighbor list builds = 55
Dangerous builds = 0
unfix           mynpt
unfix           mytth1

# 5. Umbrella sampling
fix             mynvt all nvt temp ${tem} ${tem} 100
fix             mynvt all nvt temp 300 ${tem} 100
fix             mynvt all nvt temp 300 300 100
fix             mytth1 C spring/self ${k2}
fix             mytth1 C spring/self 3.5

variable        cpt loop 51
label           loop
variable        zdes equal  -15+0.60*(${cpt}-1)
variable        zdes equal  -15+0.60*(1-1)
variable        zave equal xcm(H2,z)
fix             mytth2 H2 spring tether ${k1} 2.5 2.5 ${zdes} 0
fix             mytth2 H2 spring tether 4.5 2.5 2.5 ${zdes} 0
fix             mytth2 H2 spring tether 4.5 2.5 2.5 -15 0
run             10000
Generated 0 of 1 mixed pair_coeff terms from geometric mixing rule
Per MPI rank memory allocation (min/avg/max) = 13.32 | 13.74 | 14.98 Mbytes
   Step          Temp          E_pair         E_mol          TotEng         Press     
     20000   322.02648      371.05675      18538.378      19370.187     -418.66256    
     30000   272.09613      333.41369      18604.859      19327.585     -1083.8821    
Loop time of 2.88842 on 48 procs for 10000 steps with 481 atoms

Performance: 14.956 ns/day, 1.605 hours/ns, 3462.097 timesteps/s, 1.665 Matom-step/s
100.0% CPU use with 48 MPI tasks x 1 OpenMP threads

MPI task timing breakdown:
Section |  min time  |  avg time  |  max time  |%varavg| %total
---------------------------------------------------------------
Pair    | 0.0033583  | 0.14473    | 0.74741    |  54.3 |  5.01
Bond    | 0.0010324  | 0.1823     | 0.75957    |  56.1 |  6.31
Neigh   | 0.039479   | 0.043579   | 0.047842   |   1.1 |  1.51
Comm    | 1.1364     | 2.0801     | 2.5768     |  32.6 | 72.01
Output  | 0.0011374  | 0.0028804  | 0.0048439  |   2.2 |  0.10
Modify  | 0.108      | 0.3299     | 1.3118     |  68.2 | 11.42
Other   |            | 0.105      |            |       |  3.63

Nlocal:        10.0208 ave          44 max           0 min
Histogram: 21 8 6 5 0 1 2 1 3 1
Nghost:        1915.88 ave        2392 max        1329 min
Histogram: 8 0 0 0 24 0 0 0 0 16
Neighs:              0 ave           0 max           0 min
Histogram: 48 0 0 0 0 0 0 0 0 0

Total # of neighbors = 0
Ave neighs/atom = 0
Ave special neighs/atom = 15.567568
Neighbor list builds = 128
Dangerous builds = 0
fix             myat1 all ave/time 1000 10 10000 v_zave v_zdes file simulation_data/abpot/${cpt}.dat
fix             myat1 all ave/time 1000 10 10000 v_zave v_zdes file simulation_data/abpot/1.dat
run             50000
Generated 0 of 1 mixed pair_coeff terms from geometric mixing rule
Per MPI rank memory allocation (min/avg/max) = 13.32 | 13.78 | 14.98 Mbytes
   Step          Temp          E_pair         E_mol          TotEng         Press     
     30000   272.09613      333.41369      18604.859      19327.585     -1083.8821    
     40000   292.44641      400.70676      18521.578      19340.714      490.34282    
     50000   294.68956      384.9666       18531.691      19338.296      187.16174    
     60000   297.91096      368.25868      18586.192      19380.698     -460.88864    
     70000   304.94532      363.48877      18546.035      19345.836     -397.15896    
     80000   305.89762      388.78326      18536.665      19363.123      285.81748    
Loop time of 14.3292 on 48 procs for 50000 steps with 481 atoms

Performance: 15.074 ns/day, 1.592 hours/ns, 3489.371 timesteps/s, 1.678 Matom-step/s
100.0% CPU use with 48 MPI tasks x 1 OpenMP threads

MPI task timing breakdown:
Section |  min time  |  avg time  |  max time  |%varavg| %total
---------------------------------------------------------------
Pair    | 0.016922   | 0.7193     | 3.6099     | 120.4 |  5.02
Bond    | 0.005179   | 0.91116    | 3.7951     | 125.5 |  6.36
Neigh   | 0.054579   | 0.060646   | 0.066585   |   1.4 |  0.42
Comm    | 5.995      | 10.446     | 12.926     |  72.5 | 72.90
Output  | 0.0056151  | 0.012777   | 0.02019    |   4.1 |  0.09
Modify  | 0.51788    | 1.6511     | 6.6842     | 152.6 | 11.52
Other   |            | 0.5279     |            |       |  3.68

Nlocal:        10.0208 ave          47 max           0 min
Histogram: 21 9 9 1 1 1 2 1 2 1
Nghost:        1931.98 ave        2420 max        1326 min
Histogram: 8 0 0 0 24 0 0 0 0 16
Neighs:              0 ave           0 max           0 min
Histogram: 48 0 0 0 0 0 0 0 0 0

Total # of neighbors = 0
Ave neighs/atom = 0
Ave special neighs/atom = 15.567568
Neighbor list builds = 177
Dangerous builds = 0
unfix           myat1
next            cpt
jump            SELF loop
variable        zdes equal  -15+0.60*(${cpt}-1)
variable        zdes equal  -15+0.60*(2-1)
variable        zave equal xcm(H2,z)
fix             mytth2 H2 spring tether ${k1} 2.5 2.5 ${zdes} 0
fix             mytth2 H2 spring tether 4.5 2.5 2.5 ${zdes} 0
fix             mytth2 H2 spring tether 4.5 2.5 2.5 -14.4 0
run             10000
Generated 0 of 1 mixed pair_coeff terms from geometric mixing rule
Per MPI rank memory allocation (min/avg/max) = 13.32 | 13.82 | 14.98 Mbytes
   Step          Temp          E_pair         E_mol          TotEng         Press     
     80000   305.89762      388.78326      18536.665      19363.123      285.81748    
     90000   289.0149       371.98111      18590.054      19375.555     -227.54734    
Loop time of 2.92323 on 48 procs for 10000 steps with 481 atoms

Performance: 14.778 ns/day, 1.624 hours/ns, 3420.877 timesteps/s, 1.645 Matom-step/s
100.0% CPU use with 48 MPI tasks x 1 OpenMP threads

MPI task timing breakdown:
Section |  min time  |  avg time  |  max time  |%varavg| %total
---------------------------------------------------------------
Pair    | 0.0032801  | 0.14385    | 0.74306    |  53.5 |  4.92
Bond    | 0.0010328  | 0.18231    | 0.75063    |  55.9 |  6.24
Neigh   | 0.0051132  | 0.00562    | 0.0061861  |   0.4 |  0.19
Comm    | 1.2446     | 2.1329     | 2.623      |  33.0 | 72.96
Output  | 0.0011216  | 0.0022937  | 0.0035172  |   1.6 |  0.08
Modify  | 0.10338    | 0.35042    | 1.4143     |  71.7 | 11.99
Other   |            | 0.1059     |            |       |  3.62

Nlocal:        10.0208 ave          43 max           0 min
Histogram: 22 2 11 5 0 2 1 1 1 3
Nghost:        1925.35 ave        2411 max        1330 min
Histogram: 8 0 0 0 24 0 0 0 0 16
Neighs:              0 ave           0 max           0 min
Histogram: 48 0 0 0 0 0 0 0 0 0

Total # of neighbors = 0
Ave neighs/atom = 0
Ave special neighs/atom = 15.567568
Neighbor list builds = 16
Dangerous builds = 0
fix             myat1 all ave/time 1000 10 10000 v_zave v_zdes file simulation_data/abpot/${cpt}.dat
fix             myat1 all ave/time 1000 10 10000 v_zave v_zdes file simulation_data/abpot/2.dat
run             50000
Generated 0 of 1 mixed pair_coeff terms from geometric mixing rule
Per MPI rank memory allocation (min/avg/max) = 13.32 | 13.82 | 14.98 Mbytes
   Step          Temp          E_pair         E_mol          TotEng         Press     
     90000   289.0149       371.98111      18590.054      19375.555     -227.54734    
    100000   316.19303      364.89789      18555.377      19372.68      -376.3266     
    110000   275.52998      387.33623      18523.446      19305.008      265.60902    
    120000   313.61487      365.44655      18554.535      19368.699     -313.77462    
    130000   300.68033      364.12127      18561.118      19355.449     -245.25174    
    140000   305.27891      381.31462      18522.238      19340.343      121.54262    
Loop time of 14.3046 on 48 procs for 50000 steps with 481 atoms

Performance: 15.100 ns/day, 1.589 hours/ns, 3495.385 timesteps/s, 1.681 Matom-step/s
100.0% CPU use with 48 MPI tasks x 1 OpenMP threads

MPI task timing breakdown:
Section |  min time  |  avg time  |  max time  |%varavg| %total
---------------------------------------------------------------
Pair    | 0.016995   | 0.71769    | 3.7484     | 119.9 |  5.02
Bond    | 0.0051021  | 0.91077    | 3.6766     | 125.1 |  6.37
Neigh   | 0.024105   | 0.026661   | 0.029173   |   0.9 |  0.19
Comm    | 5.9015     | 10.434     | 12.862     |  72.3 | 72.94
Output  | 0.0054963  | 0.010983   | 0.016392   |   3.3 |  0.08
Modify  | 0.51994    | 1.6794     | 6.7585     | 153.8 | 11.74
Other   |            | 0.5255     |            |       |  3.67

Nlocal:        10.0208 ave          37 max           0 min
Histogram: 19 9 5 5 2 0 0 1 4 3
Nghost:         1930.6 ave        2419 max        1336 min
Histogram: 8 0 0 0 24 0 0 0 0 16
Neighs:              0 ave           0 max           0 min
Histogram: 48 0 0 0 0 0 0 0 0 0

Total # of neighbors = 0
Ave neighs/atom = 0
Ave special neighs/atom = 15.567568
Neighbor list builds = 76
Dangerous builds = 0
unfix           myat1
next            cpt
jump            SELF loop
variable        zdes equal  -15+0.60*(${cpt}-1)
variable        zdes equal  -15+0.60*(3-1)
variable        zave equal xcm(H2,z)
fix             mytth2 H2 spring tether ${k1} 2.5 2.5 ${zdes} 0
fix             mytth2 H2 spring tether 4.5 2.5 2.5 ${zdes} 0
fix             mytth2 H2 spring tether 4.5 2.5 2.5 -13.8 0
run             10000
Generated 0 of 1 mixed pair_coeff terms from geometric mixing rule
Per MPI rank memory allocation (min/avg/max) = 13.32 | 13.83 | 14.98 Mbytes
   Step          Temp          E_pair         E_mol          TotEng         Press     
    140000   305.27891      381.31462      18522.238      19340.343      121.54262    
    150000   281.83057      383.11221      18507.481      19293.833      198.37602    
Loop time of 2.99105 on 48 procs for 10000 steps with 481 atoms

Performance: 14.443 ns/day, 1.662 hours/ns, 3343.311 timesteps/s, 1.608 Matom-step/s
100.0% CPU use with 48 MPI tasks x 1 OpenMP threads

MPI task timing breakdown:
Section |  min time  |  avg time  |  max time  |%varavg| %total
---------------------------------------------------------------
Pair    | 0.0033565  | 0.14436    | 0.74799    |  53.8 |  4.83
Bond    | 0.0010197  | 0.18257    | 0.73192    |  55.9 |  6.10
Neigh   | 0.0067813  | 0.0074424  | 0.008121   |   0.4 |  0.25
Comm    | 1.3015     | 2.1961     | 2.7241     |  33.6 | 73.42
Output  | 0.0011834  | 0.0022355  | 0.0033409  |   1.4 |  0.07
Modify  | 0.11003    | 0.35234    | 1.4774     |  75.0 | 11.78
Other   |            | 0.106      |            |       |  3.54

Nlocal:        10.0208 ave          41 max           0 min
Histogram: 20 5 11 4 0 1 1 1 3 2
Nghost:        1930.35 ave        2407 max        1335 min
Histogram: 8 0 0 0 24 0 0 0 0 16
Neighs:              0 ave           0 max           0 min
Histogram: 48 0 0 0 0 0 0 0 0 0

Total # of neighbors = 0
Ave neighs/atom = 0
Ave special neighs/atom = 15.567568
Neighbor list builds = 20
Dangerous builds = 0
fix             myat1 all ave/time 1000 10 10000 v_zave v_zdes file simulation_data/abpot/${cpt}.dat
fix             myat1 all ave/time 1000 10 10000 v_zave v_zdes file simulation_data/abpot/3.dat
run             50000
Generated 0 of 1 mixed pair_coeff terms from geometric mixing rule
Per MPI rank memory allocation (min/avg/max) = 13.32 | 13.84 | 14.98 Mbytes
   Step          Temp          E_pair         E_mol          TotEng         Press     
    150000   281.83057      383.11221      18507.481      19293.833      198.37602    
    160000   303.3577       375.27038      18538.632      19347.943     -29.219664    
    170000   304.22448      371.32489      18542.003      19348.609     -186.45761    
    180000   303.67981      368.4844       18550.665      19353.651     -121.67157    
    190000   296.98637      367.67376      18562.794      19355.392     -461.12887    
    200000   298.34025      393.6405       18551.407      19371.909      301.4877     
Loop time of 14.4507 on 48 procs for 50000 steps with 481 atoms

Performance: 14.947 ns/day, 1.606 hours/ns, 3460.042 timesteps/s, 1.664 Matom-step/s
100.0% CPU use with 48 MPI tasks x 1 OpenMP threads

MPI task timing breakdown:
Section |  min time  |  avg time  |  max time  |%varavg| %total
---------------------------------------------------------------
Pair    | 0.016556   | 0.71926    | 3.9882     | 120.4 |  4.98
Bond    | 0.0050868  | 0.9106     | 3.8173     | 125.1 |  6.30
Neigh   | 0.029565   | 0.032375   | 0.035164   |   0.9 |  0.22
Comm    | 5.5322     | 10.576     | 13.072     |  73.5 | 73.18
Output  | 0.0053883  | 0.010504   | 0.015529   |   3.1 |  0.07
Modify  | 0.5269     | 1.6784     | 6.9394     | 159.8 | 11.61
Other   |            | 0.5239     |            |       |  3.63

Nlocal:        10.0208 ave          40 max           0 min
Histogram: 18 4 13 5 0 0 0 3 3 2
Nghost:        1938.35 ave        2424 max        1333 min
Histogram: 8 0 0 0 24 0 0 0 0 16
Neighs:              0 ave           0 max           0 min
Histogram: 48 0 0 0 0 0 0 0 0 0

Total # of neighbors = 0
Ave neighs/atom = 0
Ave special neighs/atom = 15.567568
Neighbor list builds = 88
Dangerous builds = 0
unfix           myat1
next            cpt
jump            SELF loop
variable        zdes equal  -15+0.60*(${cpt}-1)
variable        zdes equal  -15+0.60*(4-1)
variable        zave equal xcm(H2,z)
fix             mytth2 H2 spring tether ${k1} 2.5 2.5 ${zdes} 0
fix             mytth2 H2 spring tether 4.5 2.5 2.5 ${zdes} 0
fix             mytth2 H2 spring tether 4.5 2.5 2.5 -13.2 0
run             10000
Generated 0 of 1 mixed pair_coeff terms from geometric mixing rule
Per MPI rank memory allocation (min/avg/max) = 13.32 | 13.84 | 14.98 Mbytes
   Step          Temp          E_pair         E_mol          TotEng         Press     
    200000   298.34025      393.6405       18551.407      19371.909      301.4877     
    210000   306.47791      375.76164      18547.037      19361.304     -160.68151    
Loop time of 2.83258 on 48 procs for 10000 steps with 481 atoms

Performance: 15.251 ns/day, 1.574 hours/ns, 3530.350 timesteps/s, 1.698 Matom-step/s
100.0% CPU use with 48 MPI tasks x 1 OpenMP threads

MPI task timing breakdown:
Section |  min time  |  avg time  |  max time  |%varavg| %total
---------------------------------------------------------------
Pair    | 0.0031293  | 0.14439    | 0.74891    |  53.7 |  5.10
Bond    | 0.0010332  | 0.18222    | 0.77247    |  55.9 |  6.43
Neigh   | 0.0060516  | 0.0066474  | 0.0072577  |   0.4 |  0.23
Comm    | 1.113      | 2.0695     | 2.5597     |  32.5 | 73.06
Output  | 0.0010869  | 0.0021025  | 0.0031131  |   1.4 |  0.07
Modify  | 0.10255    | 0.32303    | 1.3288     |  69.0 | 11.40
Other   |            | 0.1047     |            |       |  3.70

Nlocal:        10.0208 ave          42 max           0 min
Histogram: 21 7 8 4 0 0 3 2 1 2
Nghost:         1928.1 ave        2409 max        1331 min
Histogram: 8 0 0 0 24 0 0 0 0 16
Neighs:              0 ave           0 max           0 min
Histogram: 48 0 0 0 0 0 0 0 0 0

Total # of neighbors = 0
Ave neighs/atom = 0
Ave special neighs/atom = 15.567568
Neighbor list builds = 19
Dangerous builds = 0
fix             myat1 all ave/time 1000 10 10000 v_zave v_zdes file simulation_data/abpot/${cpt}.dat
fix             myat1 all ave/time 1000 10 10000 v_zave v_zdes file simulation_data/abpot/4.dat
run             50000
Generated 0 of 1 mixed pair_coeff terms from geometric mixing rule
Per MPI rank memory allocation (min/avg/max) = 13.32 | 13.84 | 14.98 Mbytes
   Step          Temp          E_pair         E_mol          TotEng         Press     
    210000   306.47791      375.76164      18547.037      19361.304     -160.68151    
    220000   285.85317      364.43135      18563.777      19337.204     -352.95293    
    230000   301.49461      382.45017      18543.224      19357.049      84.426373    
    240000   290.75542      381.02183      18551.072      19348.104     -25.850994    
    250000   310.21638      376.77949      18565.605      19386.239     -147.99094    
    260000   314.44996      381.69845      18549.153      19380.763      45.398261    
Loop time of 14.3244 on 48 procs for 50000 steps with 481 atoms

Performance: 15.079 ns/day, 1.592 hours/ns, 3490.551 timesteps/s, 1.679 Matom-step/s
100.0% CPU use with 48 MPI tasks x 1 OpenMP threads

MPI task timing breakdown:
Section |  min time  |  avg time  |  max time  |%varavg| %total
---------------------------------------------------------------
Pair    | 0.016682   | 0.7203     | 3.5696     | 119.6 |  5.03
Bond    | 0.0050769  | 0.91057    | 3.9277     | 125.3 |  6.36
Neigh   | 0.025524   | 0.028148   | 0.030814   |   0.9 |  0.20
Comm    | 5.7588     | 10.455     | 12.93      |  72.8 | 72.99
Output  | 0.0053343  | 0.010353   | 0.015268   |   3.1 |  0.07
Modify  | 0.52171    | 1.6741     | 6.6519     | 154.6 | 11.69
Other   |            | 0.5254     |            |       |  3.67

Nlocal:        10.0208 ave          39 max           0 min
Histogram: 18 7 9 6 0 0 1 1 4 2
Nghost:         1936.6 ave        2420 max        1335 min
Histogram: 8 0 0 0 24 0 0 0 0 16
Neighs:              0 ave           0 max           0 min
Histogram: 48 0 0 0 0 0 0 0 0 0

Total # of neighbors = 0
Ave neighs/atom = 0
Ave special neighs/atom = 15.567568
Neighbor list builds = 81
Dangerous builds = 0
unfix           myat1
next            cpt
jump            SELF loop
variable        zdes equal  -15+0.60*(${cpt}-1)
variable        zdes equal  -15+0.60*(5-1)
variable        zave equal xcm(H2,z)
fix             mytth2 H2 spring tether ${k1} 2.5 2.5 ${zdes} 0
fix             mytth2 H2 spring tether 4.5 2.5 2.5 ${zdes} 0
fix             mytth2 H2 spring tether 4.5 2.5 2.5 -12.6 0
run             10000
Generated 0 of 1 mixed pair_coeff terms from geometric mixing rule
Per MPI rank memory allocation (min/avg/max) = 13.32 | 13.85 | 14.98 Mbytes
   Step          Temp          E_pair         E_mol          TotEng         Press     
    260000   314.44996      381.69845      18549.153      19380.763      45.398261    
    270000   298.96387      369.912        18561.438      19359.104     -255.73228    
Loop time of 2.89177 on 48 procs for 10000 steps with 481 atoms

Performance: 14.939 ns/day, 1.607 hours/ns, 3458.094 timesteps/s, 1.663 Matom-step/s
99.9% CPU use with 48 MPI tasks x 1 OpenMP threads

MPI task timing breakdown:
Section |  min time  |  avg time  |  max time  |%varavg| %total
---------------------------------------------------------------
Pair    | 0.003269   | 0.14396    | 0.74486    |  53.6 |  4.98
Bond    | 0.0010095  | 0.1819     | 0.73625    |  55.9 |  6.29
Neigh   | 0.0032421  | 0.0035796  | 0.003909   |   0.3 |  0.12
Comm    | 1.1797     | 2.1163     | 2.6151     |  33.1 | 73.18
Output  | 0.0010849  | 0.0020511  | 0.0030426  |   1.4 |  0.07
Modify  | 0.10305    | 0.33927    | 1.3923     |  72.1 | 11.73
Other   |            | 0.1047     |            |       |  3.62

Nlocal:        10.0208 ave          43 max           0 min
Histogram: 21 5 11 3 0 1 2 2 2 1
Nghost:        1930.35 ave        2410 max        1330 min
Histogram: 8 0 0 0 24 0 0 0 0 16
Neighs:              0 ave           0 max           0 min
Histogram: 48 0 0 0 0 0 0 0 0 0

Total # of neighbors = 0
Ave neighs/atom = 0
Ave special neighs/atom = 15.567568
Neighbor list builds = 10
Dangerous builds = 0
fix             myat1 all ave/time 1000 10 10000 v_zave v_zdes file simulation_data/abpot/${cpt}.dat
fix             myat1 all ave/time 1000 10 10000 v_zave v_zdes file simulation_data/abpot/5.dat
run             50000
Generated 0 of 1 mixed pair_coeff terms from geometric mixing rule
Per MPI rank memory allocation (min/avg/max) = 13.32 | 13.85 | 14.98 Mbytes
   Step          Temp          E_pair         E_mol          TotEng         Press     
    270000   298.96387      369.912        18561.438      19359.104     -255.73228    
    280000   297.15959      371.85558      18548.673      19345.702     -140.31993    
    290000   302.5664       377.35762      18566.349      19376.615     -73.523552    
    300000   302.90282      378.09971      18552.17       19363.659      61.002859    
    310000   294.03911      372.55682      18548.136      19341.4       -87.123121    
    320000   287.92119      379.17606      18547.649      19338.78       73.147459    
Loop time of 14.7117 on 48 procs for 50000 steps with 481 atoms

Performance: 14.682 ns/day, 1.635 hours/ns, 3398.661 timesteps/s, 1.635 Matom-step/s
100.0% CPU use with 48 MPI tasks x 1 OpenMP threads

MPI task timing breakdown:
Section |  min time  |  avg time  |  max time  |%varavg| %total
---------------------------------------------------------------
Pair    | 0.016604   | 0.7213     | 3.5813     | 119.7 |  4.90
Bond    | 0.0050697  | 0.91116    | 3.9454     | 125.4 |  6.19
Neigh   | 0.020857   | 0.022904   | 0.025033   |   0.8 |  0.16
Comm    | 6.1342     | 10.831     | 13.374     |  73.5 | 73.62
Output  | 0.005388   | 0.010307   | 0.015143   |   3.0 |  0.07
Modify  | 0.52092    | 1.6897     | 7.0209     | 162.0 | 11.49
Other   |            | 0.5249     |            |       |  3.57

Nlocal:        10.0208 ave          42 max           0 min
Histogram: 23 6 5 2 4 1 1 2 3 1
Nghost:        1931.23 ave        2409 max        1336 min
Histogram: 8 0 0 0 24 0 0 0 0 16
Neighs:              0 ave           0 max           0 min
Histogram: 48 0 0 0 0 0 0 0 0 0

Total # of neighbors = 0
Ave neighs/atom = 0
Ave special neighs/atom = 15.567568
Neighbor list builds = 64
Dangerous builds = 0
unfix           myat1
next            cpt
jump            SELF loop
variable        zdes equal  -15+0.60*(${cpt}-1)
variable        zdes equal  -15+0.60*(6-1)
variable        zave equal xcm(H2,z)
fix             mytth2 H2 spring tether ${k1} 2.5 2.5 ${zdes} 0
fix             mytth2 H2 spring tether 4.5 2.5 2.5 ${zdes} 0
fix             mytth2 H2 spring tether 4.5 2.5 2.5 -12 0
run             10000
Generated 0 of 1 mixed pair_coeff terms from geometric mixing rule
Per MPI rank memory allocation (min/avg/max) = 13.32 | 13.85 | 14.98 Mbytes
   Step          Temp          E_pair         E_mol          TotEng         Press     
    320000   287.92119      379.17606      18547.649      19338.78       73.147459    
    330000   283.15827      374.6425       18535.183      19314.965     -90.550867    
Loop time of 3.00563 on 48 procs for 10000 steps with 481 atoms

Performance: 14.373 ns/day, 1.670 hours/ns, 3327.095 timesteps/s, 1.600 Matom-step/s
100.0% CPU use with 48 MPI tasks x 1 OpenMP threads

MPI task timing breakdown:
Section |  min time  |  avg time  |  max time  |%varavg| %total
---------------------------------------------------------------
Pair    | 0.0031747  | 0.14422    | 0.75069    |  53.5 |  4.80
Bond    | 0.0010147  | 0.18235    | 0.82204    |  56.4 |  6.07
Neigh   | 0.0043522  | 0.0047921  | 0.0052311  |   0.4 |  0.16
Comm    | 1.2232     | 2.2037     | 2.7258     |  33.5 | 73.32
Output  | 0.0010804  | 0.002067   | 0.0030708  |   1.4 |  0.07
Modify  | 0.10383    | 0.36347    | 1.4831     |  75.0 | 12.09
Other   |            | 0.105      |            |       |  3.49

Nlocal:        10.0208 ave          42 max           0 min
Histogram: 22 7 6 5 0 0 3 2 1 2
Nghost:         1936.6 ave        2420 max        1331 min
Histogram: 8 0 0 0 24 0 0 0 0 16
Neighs:              0 ave           0 max           0 min
Histogram: 48 0 0 0 0 0 0 0 0 0

Total # of neighbors = 0
Ave neighs/atom = 0
Ave special neighs/atom = 15.567568
Neighbor list builds = 13
Dangerous builds = 0
fix             myat1 all ave/time 1000 10 10000 v_zave v_zdes file simulation_data/abpot/${cpt}.dat
fix             myat1 all ave/time 1000 10 10000 v_zave v_zdes file simulation_data/abpot/6.dat
run             50000
Generated 0 of 1 mixed pair_coeff terms from geometric mixing rule
Per MPI rank memory allocation (min/avg/max) = 13.32 | 13.85 | 14.98 Mbytes
   Step          Temp          E_pair         E_mol          TotEng         Press     
    330000   283.15827      374.6425       18535.183      19314.965     -90.550867    
    340000   300.83241      372.95351      18536.039      19339.421     -9.5225106    
    350000   308.86717      380.21324      18532.183      19354.32      -81.116612    
    360000   304.45858      366.31685      18603.314      19405.247     -282.21052    
    370000   308.00214      377.73623      18547.137      19365.559     -41.684153    
    380000   289.03135      386.04931      18549.505      19349.097      182.4934     
Loop time of 14.62 on 48 procs for 50000 steps with 481 atoms

Performance: 14.774 ns/day, 1.624 hours/ns, 3419.982 timesteps/s, 1.645 Matom-step/s
100.0% CPU use with 48 MPI tasks x 1 OpenMP threads

MPI task timing breakdown:
Section |  min time  |  avg time  |  max time  |%varavg| %total
---------------------------------------------------------------
Pair    | 0.016272   | 0.72136    | 3.7155     | 120.4 |  4.93
Bond    | 0.0051323  | 0.91137    | 3.6773     | 125.5 |  6.23
Neigh   | 0.027249   | 0.030077   | 0.03302    |   0.9 |  0.21
Comm    | 6.1935     | 10.699     | 13.098     |  73.3 | 73.18
Output  | 0.0054483  | 0.010479   | 0.015372   |   3.1 |  0.07
Modify  | 0.52022    | 1.7227     | 6.9277     | 158.1 | 11.78
Other   |            | 0.5253     |            |       |  3.59

Nlocal:        10.0208 ave          46 max           0 min
Histogram: 20 10 6 4 0 1 2 4 0 1
Nghost:        1937.48 ave        2420 max        1327 min
Histogram: 8 0 0 0 24 0 0 0 0 16
Neighs:              0 ave           0 max           0 min
Histogram: 48 0 0 0 0 0 0 0 0 0

Total # of neighbors = 0
Ave neighs/atom = 0
Ave special neighs/atom = 15.567568
Neighbor list builds = 86
Dangerous builds = 0
unfix           myat1
next            cpt
jump            SELF loop
variable        zdes equal  -15+0.60*(${cpt}-1)
variable        zdes equal  -15+0.60*(7-1)
variable        zave equal xcm(H2,z)
fix             mytth2 H2 spring tether ${k1} 2.5 2.5 ${zdes} 0
fix             mytth2 H2 spring tether 4.5 2.5 2.5 ${zdes} 0
fix             mytth2 H2 spring tether 4.5 2.5 2.5 -11.4 0
run             10000
Generated 0 of 1 mixed pair_coeff terms from geometric mixing rule
Per MPI rank memory allocation (min/avg/max) = 13.32 | 13.85 | 14.98 Mbytes
   Step          Temp          E_pair         E_mol          TotEng         Press     
    380000   289.03135      386.04931      18549.505      19349.097      182.4934     
    390000   297.079        371.30508      18520.416      19316.778     -164.41212    
Loop time of 2.95126 on 48 procs for 10000 steps with 481 atoms

Performance: 14.638 ns/day, 1.640 hours/ns, 3388.378 timesteps/s, 1.630 Matom-step/s
100.0% CPU use with 48 MPI tasks x 1 OpenMP threads

MPI task timing breakdown:
Section |  min time  |  avg time  |  max time  |%varavg| %total
---------------------------------------------------------------
Pair    | 0.0032838  | 0.14435    | 0.7662     |  53.9 |  4.89
Bond    | 0.0010255  | 0.18212    | 0.74749    |  56.3 |  6.17
Neigh   | 0.0066341  | 0.0072833  | 0.0079705  |   0.4 |  0.25
Comm    | 1.2285     | 2.1576     | 2.6804     |  33.4 | 73.11
Output  | 0.0011043  | 0.0020862  | 0.0030845  |   1.4 |  0.07
Modify  | 0.10282    | 0.35316    | 1.4265     |  72.8 | 11.97
Other   |            | 0.1047     |            |       |  3.55

Nlocal:        10.0208 ave          40 max           0 min
Histogram: 19 8 7 3 3 0 1 1 3 3
Nghost:         1927.6 ave        2406 max        1337 min
Histogram: 8 0 0 0 24 0 0 0 0 16
Neighs:              0 ave           0 max           0 min
Histogram: 48 0 0 0 0 0 0 0 0 0

Total # of neighbors = 0
Ave neighs/atom = 0
Ave special neighs/atom = 15.567568
Neighbor list builds = 21
Dangerous builds = 0
fix             myat1 all ave/time 1000 10 10000 v_zave v_zdes file simulation_data/abpot/${cpt}.dat
fix             myat1 all ave/time 1000 10 10000 v_zave v_zdes file simulation_data/abpot/7.dat
run             50000
Generated 0 of 1 mixed pair_coeff terms from geometric mixing rule
Per MPI rank memory allocation (min/avg/max) = 13.32 | 13.85 | 14.98 Mbytes
   Step          Temp          E_pair         E_mol          TotEng         Press     
    390000   297.079        371.30508      18520.416      19316.778     -164.41212    
    400000   275.19996      369.64728      18564.108      19327.509     -200.08515    
    410000   310.03688      368.79486      18536.976      19349.368     -237.73529    
    420000   317.28609      381.945        18536.886      19372.801      71.213455    
    430000   304.58933      371.48951      18545.598      19352.89      -149.43064    
    440000   292.20902      375.2105       18546.665      19339.964      41.604096    
Loop time of 14.9196 on 48 procs for 50000 steps with 481 atoms

Performance: 14.478 ns/day, 1.658 hours/ns, 3351.305 timesteps/s, 1.612 Matom-step/s
100.0% CPU use with 48 MPI tasks x 1 OpenMP threads

MPI task timing breakdown:
Section |  min time  |  avg time  |  max time  |%varavg| %total
---------------------------------------------------------------
Pair    | 0.016415   | 0.72235    | 3.5535     | 119.8 |  4.84
Bond    | 0.0051783  | 0.9111     | 4.0117     | 126.4 |  6.11
Neigh   | 0.024337   | 0.026909   | 0.029462   |   0.9 |  0.18
Comm    | 6.2897     | 10.938     | 13.408     |  74.6 | 73.31
Output  | 0.0056839  | 0.010713   | 0.015629   |   3.1 |  0.07
Modify  | 0.51579    | 1.7848     | 7.2744     | 163.9 | 11.96
Other   |            | 0.5259     |            |       |  3.53

Nlocal:        10.0208 ave          48 max           0 min
Histogram: 22 9 7 3 0 1 2 2 1 1
Nghost:        1931.73 ave        2414 max        1335 min
Histogram: 8 0 0 0 24 0 0 0 0 16
Neighs:              0 ave           0 max           0 min
Histogram: 48 0 0 0 0 0 0 0 0 0

Total # of neighbors = 0
Ave neighs/atom = 0
Ave special neighs/atom = 15.567568
Neighbor list builds = 77
Dangerous builds = 0
unfix           myat1
next            cpt
jump            SELF loop
variable        zdes equal  -15+0.60*(${cpt}-1)
variable        zdes equal  -15+0.60*(8-1)
variable        zave equal xcm(H2,z)
fix             mytth2 H2 spring tether ${k1} 2.5 2.5 ${zdes} 0
fix             mytth2 H2 spring tether 4.5 2.5 2.5 ${zdes} 0
fix             mytth2 H2 spring tether 4.5 2.5 2.5 -10.8 0
run             10000
Generated 0 of 1 mixed pair_coeff terms from geometric mixing rule
Per MPI rank memory allocation (min/avg/max) = 13.32 | 13.85 | 14.98 Mbytes
   Step          Temp          E_pair         E_mol          TotEng         Press     
    440000   292.20902      375.2105       18546.665      19339.964      41.604096    
    450000   299.80616      386.44934      18543.448      19358.856      294.42246    
Loop time of 3.17398 on 48 procs for 10000 steps with 481 atoms

Performance: 13.611 ns/day, 1.763 hours/ns, 3150.614 timesteps/s, 1.515 Matom-step/s
100.0% CPU use with 48 MPI tasks x 1 OpenMP threads

MPI task timing breakdown:
Section |  min time  |  avg time  |  max time  |%varavg| %total
---------------------------------------------------------------
Pair    | 0.0032885  | 0.1445     | 0.73679    |  53.7 |  4.55
Bond    | 0.0010298  | 0.18231    | 0.78734    |  56.5 |  5.74
Neigh   | 0.0095622  | 0.010414   | 0.011226   |   0.5 |  0.33
Comm    | 1.4086     | 2.3499     | 2.8959     |  35.3 | 74.04
Output  | 0.0011542  | 0.0021563  | 0.0031523  |   1.4 |  0.07
Modify  | 0.10467    | 0.37956    | 1.6384     |  82.9 | 11.96
Other   |            | 0.1051     |            |       |  3.31

Nlocal:        10.0208 ave          47 max           0 min
Histogram: 21 7 11 2 0 1 2 1 2 1
Nghost:        1937.23 ave        2423 max        1331 min
Histogram: 8 0 0 0 24 0 0 0 0 16
Neighs:              0 ave           0 max           0 min
Histogram: 48 0 0 0 0 0 0 0 0 0

Total # of neighbors = 0
Ave neighs/atom = 0
Ave special neighs/atom = 15.567568
Neighbor list builds = 26
Dangerous builds = 0
fix             myat1 all ave/time 1000 10 10000 v_zave v_zdes file simulation_data/abpot/${cpt}.dat
fix             myat1 all ave/time 1000 10 10000 v_zave v_zdes file simulation_data/abpot/8.dat
run             50000
Generated 0 of 1 mixed pair_coeff terms from geometric mixing rule
Per MPI rank memory allocation (min/avg/max) = 13.32 | 13.85 | 14.98 Mbytes
   Step          Temp          E_pair         E_mol          TotEng         Press     
    450000   299.80616      386.44934      18543.448      19358.856      294.42246    
    460000   310.6592       364.86286      18555.935      19365.286     -295.18325    
    470000   301.0869       377.26596      18532.156      19340.214      8.9027697    
    480000   299.39604      379.94946      18528.974      19337.296      164.68712    
    490000   300.3556       359.20349      18563.704      19352.653     -493.12419    
    500000   302.67059      369.95492      18555.584      19358.596     -193.07038    
Loop time of 15.0885 on 48 procs for 50000 steps with 481 atoms

Performance: 14.316 ns/day, 1.676 hours/ns, 3313.784 timesteps/s, 1.594 Matom-step/s
100.0% CPU use with 48 MPI tasks x 1 OpenMP threads

MPI task timing breakdown:
Section |  min time  |  avg time  |  max time  |%varavg| %total
---------------------------------------------------------------
Pair    | 0.016351   | 0.72307    | 3.7169     | 120.5 |  4.79
Bond    | 0.005174   | 0.91136    | 3.9992     | 126.2 |  6.04
Neigh   | 0.033588   | 0.036888   | 0.040276   |   1.0 |  0.24
Comm    | 6.2959     | 11.066     | 13.598     |  74.4 | 73.34
Output  | 0.0055409  | 0.010596   | 0.015511   |   3.1 |  0.07
Modify  | 0.51566    | 1.8164     | 7.3487     | 165.0 | 12.04
Other   |            | 0.5242     |            |       |  3.47

Nlocal:        10.0208 ave          44 max           0 min
Histogram: 22 7 6 4 1 2 1 2 1 2
Nghost:         1930.1 ave        2411 max        1329 min
Histogram: 8 0 0 0 24 0 0 0 0 16
Neighs:              0 ave           0 max           0 min
Histogram: 48 0 0 0 0 0 0 0 0 0

Total # of neighbors = 0
Ave neighs/atom = 0
Ave special neighs/atom = 15.567568
Neighbor list builds = 102
Dangerous builds = 0
unfix           myat1
next            cpt
jump            SELF loop
variable        zdes equal  -15+0.60*(${cpt}-1)
variable        zdes equal  -15+0.60*(9-1)
variable        zave equal xcm(H2,z)
fix             mytth2 H2 spring tether ${k1} 2.5 2.5 ${zdes} 0
fix             mytth2 H2 spring tether 4.5 2.5 2.5 ${zdes} 0
fix             mytth2 H2 spring tether 4.5 2.5 2.5 -10.2 0
run             10000
Generated 0 of 1 mixed pair_coeff terms from geometric mixing rule
Per MPI rank memory allocation (min/avg/max) = 13.32 | 13.86 | 14.98 Mbytes
   Step          Temp          E_pair         E_mol          TotEng         Press     
    500000   302.67059      369.95492      18555.584      19358.596     -193.07038    
    510000   305.29162      378.73887      18533.972      19349.518      3.6158176    
Loop time of 3.02844 on 48 procs for 10000 steps with 481 atoms

Performance: 14.265 ns/day, 1.682 hours/ns, 3302.032 timesteps/s, 1.588 Matom-step/s
100.0% CPU use with 48 MPI tasks x 1 OpenMP threads

MPI task timing breakdown:
Section |  min time  |  avg time  |  max time  |%varavg| %total
---------------------------------------------------------------
Pair    | 0.0032637  | 0.14463    | 0.79913    |  54.4 |  4.78
Bond    | 0.0010141  | 0.18199    | 0.84883    |  56.9 |  6.01
Neigh   | 0.0040228  | 0.0044121  | 0.004812   |   0.3 |  0.15
Comm    | 1.1671     | 2.2298     | 2.7454     |  33.9 | 73.63
Output  | 0.0011063  | 0.0020921  | 0.0030911  |   1.4 |  0.07
Modify  | 0.10304    | 0.36014    | 1.5342     |  75.0 | 11.89
Other   |            | 0.1054     |            |       |  3.48

Nlocal:        10.0208 ave          38 max           0 min
Histogram: 21 5 6 6 2 0 0 3 2 3
Nghost:        1937.48 ave        2427 max        1335 min
Histogram: 8 0 0 0 24 0 0 0 0 16
Neighs:              0 ave           0 max           0 min
Histogram: 48 0 0 0 0 0 0 0 0 0

Total # of neighbors = 0
Ave neighs/atom = 0
Ave special neighs/atom = 15.567568
Neighbor list builds = 12
Dangerous builds = 0
fix             myat1 all ave/time 1000 10 10000 v_zave v_zdes file simulation_data/abpot/${cpt}.dat
fix             myat1 all ave/time 1000 10 10000 v_zave v_zdes file simulation_data/abpot/9.dat
run             50000
Generated 0 of 1 mixed pair_coeff terms from geometric mixing rule
Per MPI rank memory allocation (min/avg/max) = 13.32 | 13.86 | 14.98 Mbytes
   Step          Temp          E_pair         E_mol          TotEng         Press     
    510000   305.29162      378.73887      18533.972      19349.518      3.6158176    
    520000   281.56538      371.97703      18553.73       19328.567     -192.02368    
    530000   293.91911      376.70905      18522.591      19319.836     -164.85938    
    540000   287.65294      375.12349      18525.355      19312.049      52.864638    
    550000   299.34606      368.42079      18553.748      19350.47      -239.15417    
    560000   309.1519       373.23961      18537.269      19352.84      -181.49899    
Loop time of 14.7746 on 48 procs for 50000 steps with 481 atoms

Performance: 14.620 ns/day, 1.642 hours/ns, 3384.177 timesteps/s, 1.628 Matom-step/s
100.0% CPU use with 48 MPI tasks x 1 OpenMP threads

MPI task timing breakdown:
Section |  min time  |  avg time  |  max time  |%varavg| %total
---------------------------------------------------------------
Pair    | 0.016417   | 0.72194    | 3.8558     | 121.2 |  4.89
Bond    | 0.0051056  | 0.9102     | 4.1236     | 126.1 |  6.16
Neigh   | 0.027293   | 0.029897   | 0.032489   |   0.9 |  0.20
Comm    | 5.731      | 10.852     | 13.294     |  74.1 | 73.45
Output  | 0.0054495  | 0.01044    | 0.015315   |   3.1 |  0.07
Modify  | 0.51771    | 1.7252     | 7.1486     | 161.7 | 11.68
Other   |            | 0.525      |            |       |  3.55

Nlocal:        10.0208 ave          41 max           0 min
Histogram: 21 6 8 4 1 0 1 2 3 2
Nghost:        1934.23 ave        2421 max        1332 min
Histogram: 8 0 0 0 24 0 0 0 0 16
Neighs:              0 ave           0 max           0 min
Histogram: 48 0 0 0 0 0 0 0 0 0

Total # of neighbors = 0
Ave neighs/atom = 0
Ave special neighs/atom = 15.567568
Neighbor list builds = 82
Dangerous builds = 0
unfix           myat1
next            cpt
jump            SELF loop
variable        zdes equal  -15+0.60*(${cpt}-1)
variable        zdes equal  -15+0.60*(10-1)
variable        zave equal xcm(H2,z)
fix             mytth2 H2 spring tether ${k1} 2.5 2.5 ${zdes} 0
fix             mytth2 H2 spring tether 4.5 2.5 2.5 ${zdes} 0
fix             mytth2 H2 spring tether 4.5 2.5 2.5 -9.6 0
run             10000
Generated 0 of 1 mixed pair_coeff terms from geometric mixing rule
Per MPI rank memory allocation (min/avg/max) = 13.32 | 13.86 | 14.98 Mbytes
   Step          Temp          E_pair         E_mol          TotEng         Press     
    560000   309.1519       373.23961      18537.269      19352.84      -181.49899    
    570000   300.31616      377.42108      18532.485      19339.596      18.212785    
Loop time of 3.03004 on 48 procs for 10000 steps with 481 atoms

Performance: 14.257 ns/day, 1.683 hours/ns, 3300.283 timesteps/s, 1.587 Matom-step/s
100.0% CPU use with 48 MPI tasks x 1 OpenMP threads

MPI task timing breakdown:
Section |  min time  |  avg time  |  max time  |%varavg| %total
---------------------------------------------------------------
Pair    | 0.0032345  | 0.14469    | 0.79963    |  54.4 |  4.78
Bond    | 0.0010241  | 0.18217    | 0.87602    |  57.0 |  6.01
Neigh   | 0.0059642  | 0.0065752  | 0.0071694  |   0.4 |  0.22
Comm    | 1.1373     | 2.226      | 2.7455     |  33.7 | 73.46
Output  | 0.0011104  | 0.0021127  | 0.0031139  |   1.4 |  0.07
Modify  | 0.10583    | 0.36261    | 1.5347     |  74.4 | 11.97
Other   |            | 0.1059     |            |       |  3.49

Nlocal:        10.0208 ave          47 max           0 min
Histogram: 21 10 5 4 2 1 1 1 1 2
Nghost:        1932.35 ave        2425 max        1326 min
Histogram: 8 0 0 0 24 0 0 0 0 16
Neighs:              0 ave           0 max           0 min
Histogram: 48 0 0 0 0 0 0 0 0 0

Total # of neighbors = 0
Ave neighs/atom = 0
Ave special neighs/atom = 15.567568
Neighbor list builds = 18
Dangerous builds = 0
fix             myat1 all ave/time 1000 10 10000 v_zave v_zdes file simulation_data/abpot/${cpt}.dat
fix             myat1 all ave/time 1000 10 10000 v_zave v_zdes file simulation_data/abpot/10.dat
run             50000
Generated 0 of 1 mixed pair_coeff terms from geometric mixing rule
Per MPI rank memory allocation (min/avg/max) = 13.32 | 13.86 | 14.98 Mbytes
   Step          Temp          E_pair         E_mol          TotEng         Press     
    570000   300.31616      377.42108      18532.485      19339.596      18.212785    
    580000   287.76557      370.13264      18536.567      19318.432     -117.6049     
    590000   300.71768      378.3654       18521.9        19330.529     -25.348782    
    600000   301.49798      382.45625      18539.221      19353.057      77.309713    
    610000   300.89966      375.45988      18516.362      19322.345     -80.686773    
    620000   287.18766      367.66582      18522.65       19301.22      -219.95422    
Loop time of 15.21 on 48 procs for 50000 steps with 481 atoms

Performance: 14.201 ns/day, 1.690 hours/ns, 3287.309 timesteps/s, 1.581 Matom-step/s
100.0% CPU use with 48 MPI tasks x 1 OpenMP threads

MPI task timing breakdown:
Section |  min time  |  avg time  |  max time  |%varavg| %total
---------------------------------------------------------------
Pair    | 0.016311   | 0.724      | 3.9702     | 122.2 |  4.76
Bond    | 0.0051058  | 0.91037    | 4.1669     | 127.0 |  5.99
Neigh   | 0.030007   | 0.032935   | 0.035855   |   0.9 |  0.22
Comm    | 6.2183     | 11.182     | 13.842     |  76.6 | 73.51
Output  | 0.0056713  | 0.010689   | 0.015562   |   3.0 |  0.07
Modify  | 0.5142     | 1.8237     | 7.5763     | 170.2 | 11.99
Other   |            | 0.5267     |            |       |  3.46

Nlocal:        10.0208 ave          40 max           0 min
Histogram: 19 8 5 7 1 0 1 2 2 3
Nghost:        1924.85 ave        2398 max        1336 min
Histogram: 8 0 0 0 24 0 0 0 0 16
Neighs:              0 ave           0 max           0 min
Histogram: 48 0 0 0 0 0 0 0 0 0

Total # of neighbors = 0
Ave neighs/atom = 0
Ave special neighs/atom = 15.567568
Neighbor list builds = 91
Dangerous builds = 0
unfix           myat1
next            cpt
jump            SELF loop
variable        zdes equal  -15+0.60*(${cpt}-1)
variable        zdes equal  -15+0.60*(11-1)
variable        zave equal xcm(H2,z)
fix             mytth2 H2 spring tether ${k1} 2.5 2.5 ${zdes} 0
fix             mytth2 H2 spring tether 4.5 2.5 2.5 ${zdes} 0
fix             mytth2 H2 spring tether 4.5 2.5 2.5 -9 0
run             10000
Generated 0 of 1 mixed pair_coeff terms from geometric mixing rule
Per MPI rank memory allocation (min/avg/max) = 13.32 | 13.86 | 14.98 Mbytes
   Step          Temp          E_pair         E_mol          TotEng         Press     
    620000   287.18766      367.66582      18522.65       19301.22      -219.95422    
    630000   288.02154      387.51981      18522.739      19322.357     -41.839029    
Loop time of 3.0522 on 48 procs for 10000 steps with 481 atoms

Performance: 14.154 ns/day, 1.696 hours/ns, 3276.320 timesteps/s, 1.576 Matom-step/s
100.0% CPU use with 48 MPI tasks x 1 OpenMP threads

MPI task timing breakdown:
Section |  min time  |  avg time  |  max time  |%varavg| %total
---------------------------------------------------------------
Pair    | 0.0031291  | 0.14538    | 0.82176    |  55.6 |  4.76
Bond    | 0.0010127  | 0.18206    | 0.82466    |  56.9 |  5.96
Neigh   | 0.0073326  | 0.0080071  | 0.0086905  |   0.4 |  0.26
Comm    | 1.1799     | 2.2393     | 2.7811     |  34.6 | 73.37
Output  | 0.0011267  | 0.0021034  | 0.0030924  |   1.3 |  0.07
Modify  | 0.10394    | 0.37049    | 1.5327     |  76.4 | 12.14
Other   |            | 0.1049     |            |       |  3.44

Nlocal:        10.0208 ave          37 max           0 min
Histogram: 20 4 9 6 1 0 0 2 1 5
Nghost:         1925.1 ave        2401 max        1336 min
Histogram: 8 0 0 0 24 0 0 0 0 16
Neighs:              0 ave           0 max           0 min
Histogram: 48 0 0 0 0 0 0 0 0 0

Total # of neighbors = 0
Ave neighs/atom = 0
Ave special neighs/atom = 15.567568
Neighbor list builds = 22
Dangerous builds = 0
fix             myat1 all ave/time 1000 10 10000 v_zave v_zdes file simulation_data/abpot/${cpt}.dat
fix             myat1 all ave/time 1000 10 10000 v_zave v_zdes file simulation_data/abpot/11.dat
run             50000
Generated 0 of 1 mixed pair_coeff terms from geometric mixing rule
Per MPI rank memory allocation (min/avg/max) = 13.32 | 13.86 | 14.98 Mbytes
   Step          Temp          E_pair         E_mol          TotEng         Press     
    630000   288.02154      387.51981      18522.739      19322.357     -41.839029    
    640000   313.68554      390.83144      18524.671      19364.32      -70.450157    
    650000   301.86897      382.72657      18522.413      19337.051      10.483135    
    660000   294.35744      388.8977       18524.038      19334.099     -104.79555    
    670000   285.50829      382.71422      18517.75       19308.967     -82.675626    
    680000   300.91689      380.88498      18499.044      19310.478     -36.262765    
Loop time of 15.0721 on 48 procs for 50000 steps with 481 atoms

Performance: 14.331 ns/day, 1.675 hours/ns, 3317.382 timesteps/s, 1.596 Matom-step/s
100.0% CPU use with 48 MPI tasks x 1 OpenMP threads

MPI task timing breakdown:
Section |  min time  |  avg time  |  max time  |%varavg| %total
---------------------------------------------------------------
Pair    | 0.016354   | 0.72799    | 4.0872     | 124.3 |  4.83
Bond    | 0.0050882  | 0.91027    | 3.9587     | 126.6 |  6.04
Neigh   | 0.037029   | 0.040616   | 0.044225   |   1.0 |  0.27
Comm    | 5.7381     | 11.008     | 13.524     |  76.9 | 73.04
Output  | 0.0055742  | 0.010595   | 0.015509   |   3.1 |  0.07
Modify  | 0.5132     | 1.8505     | 7.5775     | 167.5 | 12.28
Other   |            | 0.524      |            |       |  3.48

Nlocal:        10.0208 ave          45 max           0 min
Histogram: 22 6 8 3 2 1 2 1 1 2
Nghost:        1930.98 ave        2413 max        1328 min
Histogram: 8 0 0 0 24 0 0 0 0 16
Neighs:              0 ave           0 max           0 min
Histogram: 48 0 0 0 0 0 0 0 0 0

Total # of neighbors = 0
Ave neighs/atom = 0
Ave special neighs/atom = 15.567568
Neighbor list builds = 111
Dangerous builds = 0
unfix           myat1
next            cpt
jump            SELF loop
variable        zdes equal  -15+0.60*(${cpt}-1)
variable        zdes equal  -15+0.60*(12-1)
variable        zave equal xcm(H2,z)
fix             mytth2 H2 spring tether ${k1} 2.5 2.5 ${zdes} 0
fix             mytth2 H2 spring tether 4.5 2.5 2.5 ${zdes} 0
fix             mytth2 H2 spring tether 4.5 2.5 2.5 -8.4 0
run             10000
Generated 0 of 1 mixed pair_coeff terms from geometric mixing rule
Per MPI rank memory allocation (min/avg/max) = 13.32 | 13.86 | 14.98 Mbytes
   Step          Temp          E_pair         E_mol          TotEng         Press     
    680000   300.91689      380.88498      18499.044      19310.478     -36.262765    
    690000   310.92054      401.58522      18514.527      19360.973      243.74974    
Loop time of 3.14573 on 48 procs for 10000 steps with 481 atoms

Performance: 13.733 ns/day, 1.748 hours/ns, 3178.910 timesteps/s, 1.529 Matom-step/s
100.0% CPU use with 48 MPI tasks x 1 OpenMP threads

MPI task timing breakdown:
Section |  min time  |  avg time  |  max time  |%varavg| %total
---------------------------------------------------------------
Pair    | 0.0031541  | 0.14633    | 0.81447    |  55.5 |  4.65
Bond    | 0.0010468  | 0.18264    | 0.86224    |  56.8 |  5.81
Neigh   | 0.011788   | 0.012773   | 0.013853   |   0.5 |  0.41
Comm    | 1.2778     | 2.2965     | 2.8075     |  35.0 | 73.00
Output  | 0.001174   | 0.0021839  | 0.003209   |   1.4 |  0.07
Modify  | 0.10534    | 0.39982    | 1.6343     |  79.1 | 12.71
Other   |            | 0.1055     |            |       |  3.35

Nlocal:        10.0208 ave          51 max           0 min
Histogram: 23 9 7 2 1 2 1 0 2 1
Nghost:         1930.6 ave        2411 max        1322 min
Histogram: 8 0 0 0 24 0 0 0 0 16
Neighs:              0 ave           0 max           0 min
Histogram: 48 0 0 0 0 0 0 0 0 0

Total # of neighbors = 0
Ave neighs/atom = 0
Ave special neighs/atom = 15.567568
Neighbor list builds = 33
Dangerous builds = 0
fix             myat1 all ave/time 1000 10 10000 v_zave v_zdes file simulation_data/abpot/${cpt}.dat
fix             myat1 all ave/time 1000 10 10000 v_zave v_zdes file simulation_data/abpot/12.dat
run             50000
Generated 0 of 1 mixed pair_coeff terms from geometric mixing rule
Per MPI rank memory allocation (min/avg/max) = 13.32 | 13.86 | 14.98 Mbytes
   Step          Temp          E_pair         E_mol          TotEng         Press     
    690000   310.92054      401.58522      18514.527      19360.973      243.74974    
    700000   298.16865      389.60706      18539.788      19356.011     -71.834805    
    710000   301.86482      389.51306      18522.18       19343.598      118.52451    
    720000   292.26271      389.43807      18546.675      19354.279      58.084761    
    730000   296.41325      380.85591      18569.977      19374.938     -131.59607    
    740000   310.2184       380.3709       18526.607      19350.834     -214.01589    
Loop time of 15.2635 on 48 procs for 50000 steps with 481 atoms

Performance: 14.151 ns/day, 1.696 hours/ns, 3275.789 timesteps/s, 1.576 Matom-step/s
100.0% CPU use with 48 MPI tasks x 1 OpenMP threads

MPI task timing breakdown:
Section |  min time  |  avg time  |  max time  |%varavg| %total
---------------------------------------------------------------
Pair    | 0.015955   | 0.73146    | 3.977      | 124.2 |  4.79
Bond    | 0.0051013  | 0.91061    | 4.0467     | 126.5 |  5.97
Neigh   | 0.053159   | 0.058121   | 0.063231   |   1.2 |  0.38
Comm    | 6.2943     | 11.166     | 13.583     |  77.1 | 73.15
Output  | 0.0056219  | 0.01065    | 0.015545   |   3.0 |  0.07
Modify  | 0.52159    | 1.8628     | 7.658      | 170.1 | 12.20
Other   |            | 0.5242     |            |       |  3.43

Nlocal:        10.0208 ave          46 max           0 min
Histogram: 21 5 13 1 1 0 2 3 1 1
Nghost:        1929.35 ave        2410 max        1335 min
Histogram: 8 0 0 0 24 0 0 0 0 16
Neighs:              0 ave           0 max           0 min
Histogram: 48 0 0 0 0 0 0 0 0 0

Total # of neighbors = 0
Ave neighs/atom = 0
Ave special neighs/atom = 15.567568
Neighbor list builds = 158
Dangerous builds = 0
unfix           myat1
next            cpt
jump            SELF loop
variable        zdes equal  -15+0.60*(${cpt}-1)
variable        zdes equal  -15+0.60*(13-1)
variable        zave equal xcm(H2,z)
fix             mytth2 H2 spring tether ${k1} 2.5 2.5 ${zdes} 0
fix             mytth2 H2 spring tether 4.5 2.5 2.5 ${zdes} 0
fix             mytth2 H2 spring tether 4.5 2.5 2.5 -7.8 0
run             10000
Generated 0 of 1 mixed pair_coeff terms from geometric mixing rule
Per MPI rank memory allocation (min/avg/max) = 13.32 | 13.87 | 14.98 Mbytes
   Step          Temp          E_pair         E_mol          TotEng         Press     
    740000   310.2184       380.3709       18526.607      19350.834     -214.01589    
    750000   287.75454      387.23508      18523.2        19322.151     -14.56379     
Loop time of 3.13847 on 48 procs for 10000 steps with 481 atoms

Performance: 13.765 ns/day, 1.744 hours/ns, 3186.268 timesteps/s, 1.533 Matom-step/s
100.0% CPU use with 48 MPI tasks x 1 OpenMP threads

MPI task timing breakdown:
Section |  min time  |  avg time  |  max time  |%varavg| %total
---------------------------------------------------------------
Pair    | 0.0032755  | 0.14655    | 0.7923     |  55.6 |  4.67
Bond    | 0.0010191  | 0.1824     | 0.82557    |  56.6 |  5.81
Neigh   | 0.013545   | 0.014818   | 0.016054   |   0.6 |  0.47
Comm    | 1.3363     | 2.3099     | 2.8609     |  35.5 | 73.60
Output  | 0.0011573  | 0.0021667  | 0.0031758  |   1.4 |  0.07
Modify  | 0.10598    | 0.37779    | 1.6205     |  81.0 | 12.04
Other   |            | 0.1048     |            |       |  3.34

Nlocal:        10.0208 ave          47 max           0 min
Histogram: 22 7 10 2 0 2 0 2 2 1
Nghost:        1932.48 ave        2421 max        1335 min
Histogram: 8 0 0 0 24 0 0 0 0 16
Neighs:              0 ave           0 max           0 min
Histogram: 48 0 0 0 0 0 0 0 0 0

Total # of neighbors = 0
Ave neighs/atom = 0
Ave special neighs/atom = 15.567568
Neighbor list builds = 39
Dangerous builds = 0
fix             myat1 all ave/time 1000 10 10000 v_zave v_zdes file simulation_data/abpot/${cpt}.dat
fix             myat1 all ave/time 1000 10 10000 v_zave v_zdes file simulation_data/abpot/13.dat
run             50000
Generated 0 of 1 mixed pair_coeff terms from geometric mixing rule
Per MPI rank memory allocation (min/avg/max) = 13.32 | 13.87 | 14.98 Mbytes
   Step          Temp          E_pair         E_mol          TotEng         Press     
    750000   287.75454      387.23508      18523.2        19322.151     -14.56379     
    760000   293.16767      382.77406      18542.207      19344.442     -222.25778    
    770000   333.42272      382.72811      18525.963      19385.748     -239.06181    
    780000   298.51532      393.50308      18548.36       19368.976      10.51145     
    790000   308.32012      380.29901      18512.329      19333.769     -244.32251    
    800000   297.96257      384.6722       18504.768      19315.761      11.847568    
Loop time of 15.4311 on 48 procs for 50000 steps with 481 atoms

Performance: 13.998 ns/day, 1.715 hours/ns, 3240.214 timesteps/s, 1.559 Matom-step/s
100.0% CPU use with 48 MPI tasks x 1 OpenMP threads

MPI task timing breakdown:
Section |  min time  |  avg time  |  max time  |%varavg| %total
---------------------------------------------------------------
Pair    | 0.016462   | 0.7328     | 4.049      | 123.9 |  4.75
Bond    | 0.0051135  | 0.91137    | 4.0053     | 126.1 |  5.91
Neigh   | 0.068631   | 0.075082   | 0.081624   |   1.3 |  0.49
Comm    | 6.4661     | 11.323     | 13.914     |  78.2 | 73.38
Output  | 0.0055943  | 0.010658   | 0.015553   |   3.1 |  0.07
Modify  | 0.52221    | 1.855      | 7.8929     | 176.1 | 12.02
Other   |            | 0.5234     |            |       |  3.39

Nlocal:        10.0208 ave          44 max           0 min
Histogram: 21 5 12 2 0 2 2 0 1 3
Nghost:        1930.23 ave        2411 max        1331 min
Histogram: 8 0 0 0 24 0 0 0 0 16
Neighs:              0 ave           0 max           0 min
Histogram: 48 0 0 0 0 0 0 0 0 0

Total # of neighbors = 0
Ave neighs/atom = 0
Ave special neighs/atom = 15.567568
Neighbor list builds = 203
Dangerous builds = 0
unfix           myat1
next            cpt
jump            SELF loop
variable        zdes equal  -15+0.60*(${cpt}-1)
variable        zdes equal  -15+0.60*(14-1)
variable        zave equal xcm(H2,z)
fix             mytth2 H2 spring tether ${k1} 2.5 2.5 ${zdes} 0
fix             mytth2 H2 spring tether 4.5 2.5 2.5 ${zdes} 0
fix             mytth2 H2 spring tether 4.5 2.5 2.5 -7.2 0
run             10000
Generated 0 of 1 mixed pair_coeff terms from geometric mixing rule
Per MPI rank memory allocation (min/avg/max) = 13.32 | 13.87 | 14.98 Mbytes
   Step          Temp          E_pair         E_mol          TotEng         Press     
    800000   297.96257      384.6722       18504.768      19315.761      11.847568    
    810000   314.82202      393.30465      18542.518      19386.267      60.178204    
Loop time of 3.03784 on 48 procs for 10000 steps with 481 atoms

Performance: 14.221 ns/day, 1.688 hours/ns, 3291.814 timesteps/s, 1.583 Matom-step/s
100.0% CPU use with 48 MPI tasks x 1 OpenMP threads

MPI task timing breakdown:
Section |  min time  |  avg time  |  max time  |%varavg| %total
---------------------------------------------------------------
Pair    | 0.0032246  | 0.14669    | 0.79309    |  55.5 |  4.83
Bond    | 0.0010171  | 0.18223    | 0.85893    |  56.6 |  6.00
Neigh   | 0.016026   | 0.017653   | 0.019278   |   0.7 |  0.58
Comm    | 1.1708     | 2.2247     | 2.7329     |  33.9 | 73.23
Output  | 0.0010977  | 0.0021225  | 0.0031307  |   1.4 |  0.07
Modify  | 0.10354    | 0.35973    | 1.4737     |  74.6 | 11.84
Other   |            | 0.1047     |            |       |  3.45

Nlocal:        10.0208 ave          44 max           0 min
Histogram: 21 5 10 4 1 0 2 1 2 2
Nghost:         1928.6 ave        2412 max        1333 min
Histogram: 8 0 0 0 24 0 0 0 0 16
Neighs:              0 ave           0 max           0 min
Histogram: 48 0 0 0 0 0 0 0 0 0

Total # of neighbors = 0
Ave neighs/atom = 0
Ave special neighs/atom = 15.567568
Neighbor list builds = 50
Dangerous builds = 0
fix             myat1 all ave/time 1000 10 10000 v_zave v_zdes file simulation_data/abpot/${cpt}.dat
fix             myat1 all ave/time 1000 10 10000 v_zave v_zdes file simulation_data/abpot/14.dat
run             50000
Generated 0 of 1 mixed pair_coeff terms from geometric mixing rule
Per MPI rank memory allocation (min/avg/max) = 13.32 | 13.87 | 14.98 Mbytes
   Step          Temp          E_pair         E_mol          TotEng         Press     
    810000   314.82202      393.30465      18542.518      19386.267      60.178204    
    820000   301.29569      396.13252      18511.229      19338.452      40.266345    
    830000   306.05103      386.69281      18520.628      19345.216     -62.643262    
    840000   283.0076       392.01754      18533.156      19330.097     -66.889571    
    850000   317.65182      390.70162      18516.16       19361.354     -54.488799    
    860000   300.73197      391.05122      18546.714      19368.05      -128.70687    
Loop time of 15.267 on 48 procs for 50000 steps with 481 atoms

Performance: 14.148 ns/day, 1.696 hours/ns, 3275.032 timesteps/s, 1.575 Matom-step/s
100.0% CPU use with 48 MPI tasks x 1 OpenMP threads

MPI task timing breakdown:
Section |  min time  |  avg time  |  max time  |%varavg| %total
---------------------------------------------------------------
Pair    | 0.016584   | 0.7335     | 4.0088     | 124.1 |  4.80
Bond    | 0.0051024  | 0.91176    | 4.1768     | 126.5 |  5.97
Neigh   | 0.082065   | 0.090167   | 0.098319   |   1.5 |  0.59
Comm    | 6.1278     | 11.201     | 13.813     |  76.3 | 73.37
Output  | 0.0056441  | 0.010787   | 0.016032   |   3.1 |  0.07
Modify  | 0.52521    | 1.7968     | 7.4357     | 168.6 | 11.77
Other   |            | 0.5229     |            |       |  3.43

Nlocal:        10.0208 ave          44 max           0 min
Histogram: 23 5 7 3 2 2 1 2 1 2
Nghost:         1923.6 ave        2394 max        1329 min
Histogram: 8 0 0 0 24 0 0 0 0 16
Neighs:              0 ave           0 max           0 min
Histogram: 48 0 0 0 0 0 0 0 0 0

Total # of neighbors = 0
Ave neighs/atom = 0
Ave special neighs/atom = 15.567568
Neighbor list builds = 252
Dangerous builds = 0
unfix           myat1
next            cpt
jump            SELF loop
variable        zdes equal  -15+0.60*(${cpt}-1)
variable        zdes equal  -15+0.60*(15-1)
variable        zave equal xcm(H2,z)
fix             mytth2 H2 spring tether ${k1} 2.5 2.5 ${zdes} 0
fix             mytth2 H2 spring tether 4.5 2.5 2.5 ${zdes} 0
fix             mytth2 H2 spring tether 4.5 2.5 2.5 -6.6 0
run             10000
Generated 0 of 1 mixed pair_coeff terms from geometric mixing rule
Per MPI rank memory allocation (min/avg/max) = 13.32 | 13.87 | 14.98 Mbytes
   Step          Temp          E_pair         E_mol          TotEng         Press     
    860000   300.73197      391.05122      18546.714      19368.05      -128.70687    
    870000   292.75605      397.15763      18569.344      19385.374      86.998525    
Loop time of 2.95522 on 48 procs for 10000 steps with 481 atoms

Performance: 14.618 ns/day, 1.642 hours/ns, 3383.839 timesteps/s, 1.628 Matom-step/s
100.0% CPU use with 48 MPI tasks x 1 OpenMP threads

MPI task timing breakdown:
Section |  min time  |  avg time  |  max time  |%varavg| %total
---------------------------------------------------------------
Pair    | 0.0032077  | 0.1468     | 0.78701    |  55.3 |  4.97
Bond    | 0.0010159  | 0.18223    | 0.79193    |  56.1 |  6.17
Neigh   | 0.012547   | 0.013818   | 0.015135   |   0.6 |  0.47
Comm    | 1.2513     | 2.1551     | 2.6657     |  33.7 | 72.93
Output  | 0.0011163  | 0.0020986  | 0.0032033  |   1.4 |  0.07
Modify  | 0.10144    | 0.35069    | 1.4372     |  72.6 | 11.87
Other   |            | 0.1045     |            |       |  3.53

Nlocal:        10.0208 ave          57 max           0 min
Histogram: 23 10 8 1 0 3 1 1 0 1
Nghost:        1928.23 ave        2413 max        1316 min
Histogram: 8 0 0 0 24 0 0 0 0 16
Neighs:              0 ave           0 max           0 min
Histogram: 48 0 0 0 0 0 0 0 0 0

Total # of neighbors = 0
Ave neighs/atom = 0
Ave special neighs/atom = 15.567568
Neighbor list builds = 40
Dangerous builds = 0
fix             myat1 all ave/time 1000 10 10000 v_zave v_zdes file simulation_data/abpot/${cpt}.dat
fix             myat1 all ave/time 1000 10 10000 v_zave v_zdes file simulation_data/abpot/15.dat
run             50000
Generated 0 of 1 mixed pair_coeff terms from geometric mixing rule
Per MPI rank memory allocation (min/avg/max) = 13.32 | 13.87 | 14.98 Mbytes
   Step          Temp          E_pair         E_mol          TotEng         Press     
    870000   292.75605      397.15763      18569.344      19385.374      86.998525    
    880000   315.90678      386.73499      18482.617      19321.347     -44.717624    
    890000   291.31224      389.76444      18522.876      19329.447     -26.706265    
    900000   299.3685       397.91596      18523.006      19349.255      220.57892    
    910000   308.64072      393.5858       18520.457      19355.643      43.405365    
    920000   308.64732      387.98432      18512.926      19342.52      -120.29286    
Loop time of 15.2849 on 48 procs for 50000 steps with 481 atoms

Performance: 14.132 ns/day, 1.698 hours/ns, 3271.196 timesteps/s, 1.573 Matom-step/s
100.0% CPU use with 48 MPI tasks x 1 OpenMP threads

MPI task timing breakdown:
Section |  min time  |  avg time  |  max time  |%varavg| %total
---------------------------------------------------------------
Pair    | 0.016373   | 0.73342    | 3.9758     | 123.7 |  4.80
Bond    | 0.0051897  | 0.91183    | 4.0416     | 125.8 |  5.97
Neigh   | 0.065589   | 0.072326   | 0.079131   |   1.4 |  0.47
Comm    | 6.4598     | 11.179     | 13.65      |  76.9 | 73.14
Output  | 0.0057977  | 0.010871   | 0.015914   |   3.0 |  0.07
Modify  | 0.51276    | 1.8543     | 7.5419     | 170.8 | 12.13
Other   |            | 0.5228     |            |       |  3.42

Nlocal:        10.0208 ave          44 max           0 min
Histogram: 21 7 7 5 0 2 1 3 1 1
Nghost:        1927.23 ave        2408 max        1329 min
Histogram: 8 0 0 0 24 0 0 0 0 16
Neighs:              0 ave           0 max           0 min
Histogram: 48 0 0 0 0 0 0 0 0 0

Total # of neighbors = 0
Ave neighs/atom = 0
Ave special neighs/atom = 15.567568
Neighbor list builds = 206
Dangerous builds = 0
unfix           myat1
next            cpt
jump            SELF loop
variable        zdes equal  -15+0.60*(${cpt}-1)
variable        zdes equal  -15+0.60*(16-1)
variable        zave equal xcm(H2,z)
fix             mytth2 H2 spring tether ${k1} 2.5 2.5 ${zdes} 0
fix             mytth2 H2 spring tether 4.5 2.5 2.5 ${zdes} 0
fix             mytth2 H2 spring tether 4.5 2.5 2.5 -6 0
run             10000
Generated 0 of 1 mixed pair_coeff terms from geometric mixing rule
Per MPI rank memory allocation (min/avg/max) = 13.32 | 13.87 | 14.98 Mbytes
   Step          Temp          E_pair         E_mol          TotEng         Press     
    920000   308.64732      387.98432      18512.926      19342.52      -120.29286    
    930000   309.24597      390.36985      18490.387      19323.222      11.699727    
Loop time of 3.09878 on 48 procs for 10000 steps with 481 atoms

Performance: 13.941 ns/day, 1.722 hours/ns, 3227.079 timesteps/s, 1.552 Matom-step/s
100.0% CPU use with 48 MPI tasks x 1 OpenMP threads

MPI task timing breakdown:
Section |  min time  |  avg time  |  max time  |%varavg| %total
---------------------------------------------------------------
Pair    | 0.0031938  | 0.14684    | 0.79478    |  55.1 |  4.74
Bond    | 0.0010405  | 0.18236    | 0.86173    |  56.5 |  5.88
Neigh   | 0.014079   | 0.015423   | 0.016843   |   0.6 |  0.50
Comm    | 1.2271     | 2.2766     | 2.8101     |  34.9 | 73.47
Output  | 0.0011241  | 0.0021255  | 0.0031449  |   1.4 |  0.07
Modify  | 0.10339    | 0.37041    | 1.5544     |  79.2 | 11.95
Other   |            | 0.105      |            |       |  3.39

Nlocal:        10.0208 ave          40 max           0 min
Histogram: 20 6 8 6 0 0 0 3 4 1
Nghost:         1927.1 ave        2405 max        1333 min
Histogram: 8 0 0 0 24 0 0 0 0 16
Neighs:              0 ave           0 max           0 min
Histogram: 48 0 0 0 0 0 0 0 0 0

Total # of neighbors = 0
Ave neighs/atom = 0
Ave special neighs/atom = 15.567568
Neighbor list builds = 43
Dangerous builds = 0
fix             myat1 all ave/time 1000 10 10000 v_zave v_zdes file simulation_data/abpot/${cpt}.dat
fix             myat1 all ave/time 1000 10 10000 v_zave v_zdes file simulation_data/abpot/16.dat
run             50000
Generated 0 of 1 mixed pair_coeff terms from geometric mixing rule
Per MPI rank memory allocation (min/avg/max) = 13.32 | 13.87 | 14.98 Mbytes
   Step          Temp          E_pair         E_mol          TotEng         Press     
    930000   309.24597      390.36985      18490.387      19323.222      11.699727    
    940000   283.39801      395.05224      18490.094      19290.629      64.743434    
    950000   314.55409      387.87739      18508.697      19346.635     -105.03703    
    960000   296.04255      383.88226      18549.71       19357.166     -476.49245    
    970000   293.45834      394.05569      18525.112      19339.045     -12.421472    
    980000   310.13092      393.52808      18518.338      19355.598      6.1584541    
Loop time of 15.2676 on 48 procs for 50000 steps with 481 atoms

Performance: 14.148 ns/day, 1.696 hours/ns, 3274.905 timesteps/s, 1.575 Matom-step/s
100.0% CPU use with 48 MPI tasks x 1 OpenMP threads

MPI task timing breakdown:
Section |  min time  |  avg time  |  max time  |%varavg| %total
---------------------------------------------------------------
Pair    | 0.016461   | 0.73419    | 4.1024     | 124.6 |  4.81
Bond    | 0.0051291  | 0.91165    | 4.0354     | 126.1 |  5.97
Neigh   | 0.069429   | 0.076277   | 0.083308   |   1.4 |  0.50
Comm    | 6.2351     | 11.16      | 13.66      |  76.0 | 73.10
Output  | 0.0055894  | 0.010655   | 0.015591   |   3.1 |  0.07
Modify  | 0.53287    | 1.8497     | 7.4842     | 167.4 | 12.12
Other   |            | 0.5247     |            |       |  3.44

Nlocal:        10.0208 ave          46 max           0 min
Histogram: 22 6 11 1 0 1 3 2 1 1
Nghost:        1932.48 ave        2415 max        1327 min
Histogram: 8 0 0 0 24 0 0 0 0 16
Neighs:              0 ave           0 max           0 min
Histogram: 48 0 0 0 0 0 0 0 0 0

Total # of neighbors = 0
Ave neighs/atom = 0
Ave special neighs/atom = 15.567568
Neighbor list builds = 214
Dangerous builds = 0
unfix           myat1
next            cpt
jump            SELF loop
variable        zdes equal  -15+0.60*(${cpt}-1)
variable        zdes equal  -15+0.60*(17-1)
variable        zave equal xcm(H2,z)
fix             mytth2 H2 spring tether ${k1} 2.5 2.5 ${zdes} 0
fix             mytth2 H2 spring tether 4.5 2.5 2.5 ${zdes} 0
fix             mytth2 H2 spring tether 4.5 2.5 2.5 -5.4 0
run             10000
Generated 0 of 1 mixed pair_coeff terms from geometric mixing rule
Per MPI rank memory allocation (min/avg/max) = 13.32 | 13.87 | 14.98 Mbytes
   Step          Temp          E_pair         E_mol          TotEng         Press     
    980000   310.13092      393.52808      18518.338      19355.598      6.1584541    
    990000   310.84682      376.14384      18545.522      19366.422     -351.96519    
Loop time of 3.03208 on 48 procs for 10000 steps with 481 atoms

Performance: 14.248 ns/day, 1.684 hours/ns, 3298.067 timesteps/s, 1.586 Matom-step/s
100.0% CPU use with 48 MPI tasks x 1 OpenMP threads

MPI task timing breakdown:
Section |  min time  |  avg time  |  max time  |%varavg| %total
---------------------------------------------------------------
Pair    | 0.0032302  | 0.14664    | 0.82886    |  55.9 |  4.84
Bond    | 0.0010251  | 0.1821     | 0.76972    |  56.2 |  6.01
Neigh   | 0.016432   | 0.018048   | 0.019736   |   0.7 |  0.60
Comm    | 1.2088     | 2.2026     | 2.7089     |  33.5 | 72.64
Output  | 0.0011036  | 0.0021086  | 0.0031166  |   1.4 |  0.07
Modify  | 0.103      | 0.37632    | 1.4852     |  72.5 | 12.41
Other   |            | 0.1042     |            |       |  3.44

Nlocal:        10.0208 ave          41 max           0 min
Histogram: 23 3 10 3 1 0 3 1 1 3
Nghost:        1925.85 ave        2407 max        1332 min
Histogram: 8 0 0 0 24 0 0 0 0 16
Neighs:              0 ave           0 max           0 min
Histogram: 48 0 0 0 0 0 0 0 0 0

Total # of neighbors = 0
Ave neighs/atom = 0
Ave special neighs/atom = 15.567568
[...]
Section |  min time  |  avg time  |  max time  |%varavg| %total
---------------------------------------------------------------
Pair    | 0.0032541  | 0.14516    | 0.8209     |  54.1 |  4.94
Bond    | 0.0010205  | 0.18244    | 0.74982    |  56.1 |  6.21
Neigh   | 0.0031071  | 0.0033775  | 0.0036671  |   0.3 |  0.11
Comm    | 1.1966     | 2.1681     | 2.679      |  32.9 | 73.78
Output  | 0.001118   | 0.0020991  | 0.0030909  |   1.4 |  0.07
Modify  | 0.10643    | 0.33177    | 1.413      |  73.1 | 11.29
Other   |            | 0.1055     |            |       |  3.59

Nlocal:        10.0208 ave          41 max           0 min
Histogram: 21 5 10 4 0 1 2 0 2 3
Nghost:        1935.85 ave        2419 max        1332 min
Histogram: 8 0 0 0 24 0 0 0 0 16
Neighs:              0 ave           0 max           0 min
Histogram: 48 0 0 0 0 0 0 0 0 0

Total # of neighbors = 0
Ave neighs/atom = 0
Ave special neighs/atom = 15.567568
Neighbor list builds = 9
Dangerous builds = 0
fix             myat1 all ave/time 1000 10 10000 v_zave v_zdes file simulation_data/abpot/${cpt}.dat
fix             myat1 all ave/time 1000 10 10000 v_zave v_zdes file simulation_data/abpot/47.dat
run             50000
Generated 0 of 1 mixed pair_coeff terms from geometric mixing rule
Per MPI rank memory allocation (min/avg/max) = 13.32 | 13.88 | 14.98 Mbytes
   Step          Temp          E_pair         E_mol          TotEng         Press     
   2790000   294.52519      383.45735      18498.752      19303.613      327.66577    
   2800000   307.60421      365.60249      18520.826      19326.545     -154.46138    
   2810000   301.93105      369.94631      18548.894      19350.84      -146.0752     
   2820000   316.94272      377.19768      18524.524      19355.2        147.74239    
   2830000   294.09568      362.68905      18540.971      19324.449     -233.08483    
   2840000   293.75839      364.28261      18518.591      19303.18      -231.73068    
Loop time of 14.9644 on 48 procs for 50000 steps with 481 atoms

Performance: 14.434 ns/day, 1.663 hours/ns, 3341.262 timesteps/s, 1.607 Matom-step/s
100.0% CPU use with 48 MPI tasks x 1 OpenMP threads

MPI task timing breakdown:
Section |  min time  |  avg time  |  max time  |%varavg| %total
---------------------------------------------------------------
Pair    | 0.01639    | 0.72516    | 4.5387     | 121.3 |  4.85
Bond    | 0.0051187  | 0.91262    | 4.0032     | 126.1 |  6.10
Neigh   | 0.023431   | 0.025542   | 0.027764   |   0.8 |  0.17
Comm    | 5.4124     | 11.036     | 13.637     |  75.4 | 73.75
Output  | 0.0056079  | 0.010648   | 0.015492   |   3.0 |  0.07
Modify  | 0.53363    | 1.7275     | 7.3751     | 169.9 | 11.54
Other   |            | 0.5272     |            |       |  3.52

Nlocal:        10.0208 ave          44 max           0 min
Histogram: 20 10 5 5 0 2 1 1 3 1
Nghost:        1929.48 ave        2408 max        1329 min
Histogram: 8 0 0 0 24 0 0 0 0 16
Neighs:              0 ave           0 max           0 min
Histogram: 48 0 0 0 0 0 0 0 0 0

Total # of neighbors = 0
Ave neighs/atom = 0
Ave special neighs/atom = 15.567568
Neighbor list builds = 66
Dangerous builds = 0
unfix           myat1
next            cpt
jump            SELF loop
variable        zdes equal  -15+0.60*(${cpt}-1)
variable        zdes equal  -15+0.60*(48-1)
variable        zave equal xcm(H2,z)
fix             mytth2 H2 spring tether ${k1} 2.5 2.5 ${zdes} 0
fix             mytth2 H2 spring tether 4.5 2.5 2.5 ${zdes} 0
fix             mytth2 H2 spring tether 4.5 2.5 2.5 13.2 0
run             10000
Generated 0 of 1 mixed pair_coeff terms from geometric mixing rule
Per MPI rank memory allocation (min/avg/max) = 13.32 | 13.88 | 14.98 Mbytes
   Step          Temp          E_pair         E_mol          TotEng         Press     
   2840000   293.75839      364.28261      18518.591      19303.18      -231.73068    
   2850000   321.5293       380.49414      18509.096      19349.631      137.67542    
Loop time of 2.97107 on 48 procs for 10000 steps with 481 atoms

Performance: 14.540 ns/day, 1.651 hours/ns, 3365.790 timesteps/s, 1.619 Matom-step/s
100.0% CPU use with 48 MPI tasks x 1 OpenMP threads

MPI task timing breakdown:
Section |  min time  |  avg time  |  max time  |%varavg| %total
---------------------------------------------------------------
Pair    | 0.0031629  | 0.14508    | 0.85505    |  53.7 |  4.88
Bond    | 0.0010243  | 0.18252    | 0.8335     |  56.6 |  6.14
Neigh   | 0.0042527  | 0.0046314  | 0.005029   |   0.3 |  0.16
Comm    | 1.1683     | 2.1908     | 2.7083     |  33.2 | 73.74
Output  | 0.0010987  | 0.0020721  | 0.0031129  |   1.4 |  0.07
Modify  | 0.10584    | 0.34067    | 1.4252     |  74.3 | 11.47
Other   |            | 0.1053     |            |       |  3.54

Nlocal:        10.0208 ave          45 max           0 min
Histogram: 20 8 10 2 0 2 1 2 2 1
Nghost:        1932.23 ave        2413 max        1328 min
Histogram: 8 0 0 0 24 0 0 0 0 16
Neighs:              0 ave           0 max           0 min
Histogram: 48 0 0 0 0 0 0 0 0 0

Total # of neighbors = 0
Ave neighs/atom = 0
Ave special neighs/atom = 15.567568
Neighbor list builds = 12
Dangerous builds = 0
fix             myat1 all ave/time 1000 10 10000 v_zave v_zdes file simulation_data/abpot/${cpt}.dat
fix             myat1 all ave/time 1000 10 10000 v_zave v_zdes file simulation_data/abpot/48.dat
run             50000
Generated 0 of 1 mixed pair_coeff terms from geometric mixing rule
Per MPI rank memory allocation (min/avg/max) = 13.32 | 13.88 | 14.98 Mbytes
   Step          Temp          E_pair         E_mol          TotEng         Press     
   2850000   321.5293       380.49414      18509.096      19349.631      137.67542    
   2860000   313.30104      368.53631      18537.846      19354.65      -178.92356    
   2870000   291.03845      356.49372      18560.423      19333.332     -484.01647    
   2880000   305.1945       382.24841      18504.873      19323.791      195.55667    
   2890000   275.63482      372.43321      18518.432      19285.24      -98.612588    
   2900000   287.65243      376.64118      18516.104      19304.315      175.46156    
Loop time of 14.6375 on 48 procs for 50000 steps with 481 atoms

Performance: 14.757 ns/day, 1.626 hours/ns, 3415.879 timesteps/s, 1.643 Matom-step/s
100.0% CPU use with 48 MPI tasks x 1 OpenMP threads

MPI task timing breakdown:
Section |  min time  |  avg time  |  max time  |%varavg| %total
---------------------------------------------------------------
Pair    | 0.016463   | 0.72436    | 4.329      | 119.8 |  4.95
Bond    | 0.0051447  | 0.91219    | 3.9321     | 126.1 |  6.23
Neigh   | 0.027336   | 0.029766   | 0.032348   |   0.8 |  0.20
Comm    | 5.4867     | 10.771     | 13.334     |  73.3 | 73.58
Output  | 0.0054227  | 0.010484   | 0.015587   |   3.1 |  0.07
Modify  | 0.52878    | 1.6632     | 7.0091     | 162.0 | 11.36
Other   |            | 0.5268     |            |       |  3.60

Nlocal:        10.0208 ave          39 max           0 min
Histogram: 21 3 10 5 1 0 1 3 0 4
Nghost:        1924.35 ave        2409 max        1334 min
Histogram: 8 0 0 0 24 0 0 0 0 16
Neighs:              0 ave           0 max           0 min
Histogram: 48 0 0 0 0 0 0 0 0 0

Total # of neighbors = 0
Ave neighs/atom = 0
Ave special neighs/atom = 15.567568
Neighbor list builds = 79
Dangerous builds = 0
unfix           myat1
next            cpt
jump            SELF loop
variable        zdes equal  -15+0.60*(${cpt}-1)
variable        zdes equal  -15+0.60*(49-1)
variable        zave equal xcm(H2,z)
fix             mytth2 H2 spring tether ${k1} 2.5 2.5 ${zdes} 0
fix             mytth2 H2 spring tether 4.5 2.5 2.5 ${zdes} 0
fix             mytth2 H2 spring tether 4.5 2.5 2.5 13.8 0
run             10000
Generated 0 of 1 mixed pair_coeff terms from geometric mixing rule
Per MPI rank memory allocation (min/avg/max) = 13.32 | 13.88 | 14.98 Mbytes
   Step          Temp          E_pair         E_mol          TotEng         Press     
   2900000   287.65243      376.64118      18516.104      19304.315      175.46156    
   2910000   311.6274       378.17265      18506.561      19330.607      108.99047    
Loop time of 3.06224 on 48 procs for 10000 steps with 481 atoms

Performance: 14.107 ns/day, 1.701 hours/ns, 3265.582 timesteps/s, 1.571 Matom-step/s
100.0% CPU use with 48 MPI tasks x 1 OpenMP threads

MPI task timing breakdown:
Section |  min time  |  avg time  |  max time  |%varavg| %total
---------------------------------------------------------------
Pair    | 0.0032345  | 0.1447     | 0.89363    |  53.9 |  4.73
Bond    | 0.0010174  | 0.18246    | 0.85727    |  56.7 |  5.96
Neigh   | 0.0051395  | 0.0055545  | 0.006009   |   0.3 |  0.18
Comm    | 1.1747     | 2.2646     | 2.8009     |  34.2 | 73.95
Output  | 0.0011106  | 0.0021092  | 0.0031078  |   1.4 |  0.07
Modify  | 0.10492    | 0.35736    | 1.5437     |  78.8 | 11.67
Other   |            | 0.1054     |            |       |  3.44

Nlocal:        10.0208 ave          36 max           0 min
Histogram: 19 5 7 4 5 0 0 1 2 5
Nghost:        1929.23 ave        2413 max        1337 min
Histogram: 8 0 0 0 24 0 0 0 0 16
Neighs:              0 ave           0 max           0 min
Histogram: 48 0 0 0 0 0 0 0 0 0

Total # of neighbors = 0
Ave neighs/atom = 0
Ave special neighs/atom = 15.567568
Neighbor list builds = 14
Dangerous builds = 0
fix             myat1 all ave/time 1000 10 10000 v_zave v_zdes file simulation_data/abpot/${cpt}.dat
fix             myat1 all ave/time 1000 10 10000 v_zave v_zdes file simulation_data/abpot/49.dat
run             50000
Generated 0 of 1 mixed pair_coeff terms from geometric mixing rule
Per MPI rank memory allocation (min/avg/max) = 13.32 | 13.88 | 14.98 Mbytes
   Step          Temp          E_pair         E_mol          TotEng         Press     
   2910000   311.6274       378.17265      18506.561      19330.607      108.99047    
   2920000   284.98698      374.64584      18525.605      19308.007     -98.746998    
   2930000   307.93742      371.80615      18507.309      19319.709     -102.58597    
   2940000   300.08171      378.0845       18512.144      19319.582      166.22174    
   2950000   290.59256      371.93198      18568.558      19356.267     -192.85829    
   2960000   316.31466      369.69958      18513.158      19335.437     -29.874231    
Loop time of 14.6333 on 48 procs for 50000 steps with 481 atoms

Performance: 14.761 ns/day, 1.626 hours/ns, 3416.865 timesteps/s, 1.644 Matom-step/s
100.0% CPU use with 48 MPI tasks x 1 OpenMP threads

MPI task timing breakdown:
Section |  min time  |  avg time  |  max time  |%varavg| %total
---------------------------------------------------------------
Pair    | 0.016249   | 0.72349    | 4.3025     | 120.6 |  4.94
Bond    | 0.0051049  | 0.91169    | 3.9103     | 125.8 |  6.23
Neigh   | 0.026677   | 0.02919    | 0.031876   |   0.9 |  0.20
Comm    | 5.4918     | 10.774     | 13.347     |  72.8 | 73.62
Output  | 0.0055675  | 0.010579   | 0.01555    |   3.1 |  0.07
Modify  | 0.53677    | 1.6583     | 6.8931     | 159.6 | 11.33
Other   |            | 0.5264     |            |       |  3.60

Nlocal:        10.0208 ave          50 max           0 min
Histogram: 21 9 8 3 1 1 1 1 2 1
Nghost:         1929.6 ave        2404 max        1323 min
Histogram: 8 0 0 0 24 0 0 0 0 16
Neighs:              0 ave           0 max           0 min
Histogram: 48 0 0 0 0 0 0 0 0 0

Total # of neighbors = 0
Ave neighs/atom = 0
Ave special neighs/atom = 15.567568
Neighbor list builds = 80
Dangerous builds = 0
unfix           myat1
next            cpt
jump            SELF loop
variable        zdes equal  -15+0.60*(${cpt}-1)
variable        zdes equal  -15+0.60*(50-1)
variable        zave equal xcm(H2,z)
fix             mytth2 H2 spring tether ${k1} 2.5 2.5 ${zdes} 0
fix             mytth2 H2 spring tether 4.5 2.5 2.5 ${zdes} 0
fix             mytth2 H2 spring tether 4.5 2.5 2.5 14.4 0
run             10000
Generated 0 of 1 mixed pair_coeff terms from geometric mixing rule
Per MPI rank memory allocation (min/avg/max) = 13.32 | 13.88 | 14.99 Mbytes
   Step          Temp          E_pair         E_mol          TotEng         Press     
   2960000   316.31466      369.69958      18513.158      19335.437     -29.874231    
   2970000   287.23941      369.3521       18543.222      19323.553     -84.613438    
Loop time of 2.94791 on 48 procs for 10000 steps with 481 atoms

Performance: 14.654 ns/day, 1.638 hours/ns, 3392.238 timesteps/s, 1.632 Matom-step/s
100.0% CPU use with 48 MPI tasks x 1 OpenMP threads

MPI task timing breakdown:
Section |  min time  |  avg time  |  max time  |%varavg| %total
---------------------------------------------------------------
Pair    | 0.0032063  | 0.14448    | 0.86393    |  53.7 |  4.90
Bond    | 0.0010178  | 0.18212    | 0.83299    |  56.7 |  6.18
Neigh   | 0.0053916  | 0.0059009  | 0.0064182  |   0.4 |  0.20
Comm    | 1.1112     | 2.1731     | 2.6916     |  32.7 | 73.72
Output  | 0.0010878  | 0.0020557  | 0.0031307  |   1.4 |  0.07
Modify  | 0.10543    | 0.33487    | 1.3992     |  72.3 | 11.36
Other   |            | 0.1054     |            |       |  3.58

Nlocal:        10.0208 ave          42 max           0 min
Histogram: 21 8 4 6 1 0 3 1 2 2
Nghost:        1923.98 ave        2398 max        1331 min
Histogram: 8 0 0 0 24 0 0 0 0 16
Neighs:              0 ave           0 max           0 min
Histogram: 48 0 0 0 0 0 0 0 0 0

Total # of neighbors = 0
Ave neighs/atom = 0
Ave special neighs/atom = 15.567568
Neighbor list builds = 16
Dangerous builds = 0
fix             myat1 all ave/time 1000 10 10000 v_zave v_zdes file simulation_data/abpot/${cpt}.dat
fix             myat1 all ave/time 1000 10 10000 v_zave v_zdes file simulation_data/abpot/50.dat
run             50000
Generated 0 of 1 mixed pair_coeff terms from geometric mixing rule
Per MPI rank memory allocation (min/avg/max) = 13.32 | 13.88 | 14.99 Mbytes
   Step          Temp          E_pair         E_mol          TotEng         Press     
   2970000   287.23941      369.3521       18543.222      19323.553     -84.613438    
   2980000   301.65733      370.06072      18493.84       19295.508      2.3784717    
   2990000   295.17147      369.63925      18506.532      19298.499      26.782275    
   3000000   316.51745      363.80902      18502.954      19319.633     -188.4392     
   3010000   298.68233      369.41318      18495.233      19291.998     -16.30428     
   3020000   281.06728      367.8642       18541.406      19311.418     -159.85247    
Loop time of 14.7451 on 48 procs for 50000 steps with 481 atoms

Performance: 14.649 ns/day, 1.638 hours/ns, 3390.962 timesteps/s, 1.631 Matom-step/s
100.0% CPU use with 48 MPI tasks x 1 OpenMP threads

MPI task timing breakdown:
Section |  min time  |  avg time  |  max time  |%varavg| %total
---------------------------------------------------------------
Pair    | 0.016511   | 0.72155    | 4.3791     | 120.0 |  4.89
Bond    | 0.005162   | 0.91073    | 4.3084     | 126.7 |  6.18
Neigh   | 0.021781   | 0.023744   | 0.025775   |   0.7 |  0.16
Comm    | 5.4243     | 10.871     | 13.466     |  73.4 | 73.73
Output  | 0.0055258  | 0.01055    | 0.015836   |   3.1 |  0.07
Modify  | 0.5289     | 1.6813     | 7.031      | 163.3 | 11.40
Other   |            | 0.5259     |            |       |  3.57

Nlocal:        10.0208 ave          42 max           0 min
Histogram: 21 8 6 3 2 0 2 2 3 1
Nghost:         1931.1 ave        2411 max        1331 min
Histogram: 8 0 0 0 24 0 0 0 0 16
Neighs:              0 ave           0 max           0 min
Histogram: 48 0 0 0 0 0 0 0 0 0

Total # of neighbors = 0
Ave neighs/atom = 0
Ave special neighs/atom = 15.567568
Neighbor list builds = 63
Dangerous builds = 0
unfix           myat1
next            cpt
jump            SELF loop
variable        zdes equal  -15+0.60*(${cpt}-1)
variable        zdes equal  -15+0.60*(51-1)
variable        zave equal xcm(H2,z)
fix             mytth2 H2 spring tether ${k1} 2.5 2.5 ${zdes} 0
fix             mytth2 H2 spring tether 4.5 2.5 2.5 ${zdes} 0
fix             mytth2 H2 spring tether 4.5 2.5 2.5 15 0
run             10000
Generated 0 of 1 mixed pair_coeff terms from geometric mixing rule
Per MPI rank memory allocation (min/avg/max) = 13.32 | 13.88 | 14.99 Mbytes
   Step          Temp          E_pair         E_mol          TotEng         Press     
   3020000   281.06728      367.8642       18541.406      19311.418     -159.85247    
   3030000   299.73033      363.64727      18532.549      19325.047     -164.54956    
Loop time of 3.01386 on 48 procs for 10000 steps with 481 atoms

Performance: 14.334 ns/day, 1.674 hours/ns, 3318.003 timesteps/s, 1.596 Matom-step/s
100.0% CPU use with 48 MPI tasks x 1 OpenMP threads

MPI task timing breakdown:
Section |  min time  |  avg time  |  max time  |%varavg| %total
---------------------------------------------------------------
Pair    | 0.003231   | 0.1447     | 0.88424    |  54.0 |  4.80
Bond    | 0.0010239  | 0.18256    | 0.89061    |  56.8 |  6.06
Neigh   | 0.0031201  | 0.003394   | 0.0037146  |   0.3 |  0.11
Comm    | 1.137      | 2.2325     | 2.7531     |  33.0 | 74.08
Output  | 0.0011324  | 0.0021348  | 0.0031456  |   1.4 |  0.07
Modify  | 0.10645    | 0.34347    | 1.4583     |  74.5 | 11.40
Other   |            | 0.1051     |            |       |  3.49

Nlocal:        10.0208 ave          42 max           0 min
Histogram: 21 6 8 5 0 1 1 2 1 3
Nghost:        1926.98 ave        2403 max        1331 min
Histogram: 8 0 0 0 24 0 0 0 0 16
Neighs:              0 ave           0 max           0 min
Histogram: 48 0 0 0 0 0 0 0 0 0

Total # of neighbors = 0
Ave neighs/atom = 0
Ave special neighs/atom = 15.567568
Neighbor list builds = 9
Dangerous builds = 0
fix             myat1 all ave/time 1000 10 10000 v_zave v_zdes file simulation_data/abpot/${cpt}.dat
fix             myat1 all ave/time 1000 10 10000 v_zave v_zdes file simulation_data/abpot/51.dat
run             50000
Generated 0 of 1 mixed pair_coeff terms from geometric mixing rule
Per MPI rank memory allocation (min/avg/max) = 13.32 | 13.88 | 14.99 Mbytes
   Step          Temp          E_pair         E_mol          TotEng         Press     
   3030000   299.73033      363.64727      18532.549      19325.047     -164.54956    
   3040000   316.13709      367.36529      18526.497      19346.187     -213.30106    
   3050000   323.03171      372.2678       18503.877      19338.335      70.33008     
   3060000   303.62471      368.99405      18511.157      19314.574      2.0908758    
   3070000   291.3397       368.89653      18519.981      19305.723     -187.24176    
   3080000   302.73235      371.87531      18521.378      19326.399      67.586845    
Loop time of 15.4525 on 48 procs for 50000 steps with 481 atoms

Performance: 13.978 ns/day, 1.717 hours/ns, 3235.721 timesteps/s, 1.556 Matom-step/s
100.0% CPU use with 48 MPI tasks x 1 OpenMP threads

MPI task timing breakdown:
Section |  min time  |  avg time  |  max time  |%varavg| %total
---------------------------------------------------------------
Pair    | 0.016332   | 0.72217    | 4.5897     | 121.7 |  4.67
Bond    | 0.0051133  | 0.91212    | 4.1904     | 126.9 |  5.90
Neigh   | 0.023675   | 0.025827   | 0.028021   |   0.8 |  0.17
Comm    | 5.7443     | 11.468     | 14.18      |  76.4 | 74.22
Output  | 0.0056208  | 0.010666   | 0.015777   |   3.1 |  0.07
Modify  | 0.53365    | 1.7874     | 7.7609     | 176.7 | 11.57
Other   |            | 0.5259     |            |       |  3.40

Nlocal:        10.0208 ave          42 max           0 min
Histogram: 21 10 2 6 1 1 0 4 1 2
Nghost:         1936.1 ave        2419 max        1333 min
Histogram: 8 0 0 0 24 0 0 0 0 16
Neighs:              0 ave           0 max           0 min
Histogram: 48 0 0 0 0 0 0 0 0 0

Total # of neighbors = 0
Ave neighs/atom = 0
Ave special neighs/atom = 15.567568
Neighbor list builds = 65
Dangerous builds = 0
unfix           myat1
next            cpt
jump            SELF loop

Total wall time: 0:15:24
