# --- log file ---

variable pre equal 112 # desired pressure (Atm)
variable tem equal 300 # desired temperature (K)

variable k1 equal 5.5 # spring constant
variable k2 equal 3.5 # spring constant

units real
atom_style molecular
boundary p p p
neighbor 1.0 bin
neigh_modify delay 3 one 6000
bond_style harmonic
angle_style harmonic
dihedral_style opls
improper_style harmonic
pair_style hybrid lj/cut 14 sg 15 cb 30 # Fluid-fluid interactions have a cutoff of 15 Å, fluid-solid interactions have a cutoff of 30 Å
# *--* C-C parameters *--*
bond_style harmonic
angle_style harmonic
dihedral_style opls
improper_style harmonic
# *--* C-C parameters *--*


# 2. Read the graphite platelet data file and define potentials parameters
read_data       ../geometry/carbonPlatelets/simulation_data/abpot_sys.data  extra/atom/types 1
Reading data file ...
  orthogonal box = (-30 -30 -30) to (30 30 30)
  3 by 4 by 4 MPI processor grid
  reading atoms ...
  480 atoms
  reading velocities ...
  480 velocities
  scanning bonds ...
  2 = max bonds/atom
  scanning angles ...
  3 = max angles/atom
  scanning dihedrals ...
  8 = max dihedrals/atom
  scanning impropers ...
  2 = max impropers/atom
  orthogonal box = (-30 -30 -30) to (30 30 30)
  3 by 4 by 4 MPI processor grid
  reading bonds ...
  676 bonds
  reading angles ...
  1268 angles
  reading dihedrals ...
  2394 dihedrals
  reading impropers ...
  396 impropers
Finding 1-2 1-3 1-4 neighbors ...
  special bond factors lj:    0        0        0       
  special bond factors coul:  0        0        0       
     3 = max # of 1-2 neighbors
     6 = max # of 1-3 neighbors
    18 = max # of 1-4 neighbors
    18 = max # of special neighbors
  special bonds CPU = 0.003 seconds
  read_data CPU = 0.048 seconds
include         PARM.lammps

#////////////////////////////////////////////////////////////////////////////////////////////////////////////////////////////////
#//     Filename: PARM.lammps
#//     File Type: LAMMPS input script
#//     Description: This script defines the parameters for the simulation of hydrogen absorption in graphite platelets.
#//     Author: Edoardo Cabiati
#//     Date: 2024-07-27
#////////////////////////////////////////////////////////////////////////////////////////////////////////////////////////////////

mass 2 2.016 # For now at least, in accordance with the paper by Wang and Johnson,
             # 1998, the hydrogen atoms are regarded as simple spherical atoms

# //////////////////////////////////////    C-C potentials    //////////////////////////////////////
pair_coeff 1 1 lj/cut 0.066 3.4
bond_coeff 1 469 1.4
angle_coeff 1 63 120
dihedral_coeff 1 0 7.25 0 0
improper_coeff 1 5 180
special_bonds lj 0.0 0.0 0.5
Finding 1-2 1-3 1-4 neighbors ...
  special bond factors lj:    0        0        0.5     
  special bond factors coul:  0        0        0       
     3 = max # of 1-2 neighbors
     6 = max # of 1-3 neighbors
    18 = max # of 1-4 neighbors
    18 = max # of special neighbors
  special bonds CPU = 0.002 seconds
# //////////////////////////////////////    C-C potentials    //////////////////////////////////////
# -------------------------------------------------------------------------------------------------
# //////////////////////////////////////    H-H potentials    //////////////////////////////////////
variable alpha equal 1.713          #|
variable sigma equal 1.567          #|
variable gamma equal 0.00993        #|
variable c6 equal 12.14             #|      The parameters are all in atomic units, the conversion to kcal/mol
variable c8 equal 215.2             #|      is performed in the pair_sg.cpp file
variable c9 equal 143.1             #|
variable c10 equal 4813.9           #|
variable rc equal 8.321             #|
pair_coeff 2 2 sg ${alpha} ${sigma} ${gamma} ${c6} ${c8} ${c9} ${c10} ${rc} # H-H potentials
pair_coeff 2 2 sg 1.713 ${sigma} ${gamma} ${c6} ${c8} ${c9} ${c10} ${rc} 
pair_coeff 2 2 sg 1.713 1.567 ${gamma} ${c6} ${c8} ${c9} ${c10} ${rc} 
pair_coeff 2 2 sg 1.713 1.567 0.00993 ${c6} ${c8} ${c9} ${c10} ${rc} 
pair_coeff 2 2 sg 1.713 1.567 0.00993 12.14 ${c8} ${c9} ${c10} ${rc} 
pair_coeff 2 2 sg 1.713 1.567 0.00993 12.14 215.2 ${c9} ${c10} ${rc} 
pair_coeff 2 2 sg 1.713 1.567 0.00993 12.14 215.2 143.1 ${c10} ${rc} 
pair_coeff 2 2 sg 1.713 1.567 0.00993 12.14 215.2 143.1 4813.9 ${rc} 
pair_coeff 2 2 sg 1.713 1.567 0.00993 12.14 215.2 143.1 4813.9 8.321 
#pair_coeff 2 2 sg 1.713 1.567 0.00993 12.14 215.2 143.1 4813.9 8.321 # H-H potentials
# //////////////////////////////////////    H-H potentials    //////////////////////////////////////
# -------------------------------------------------------------------------------------------------
# //////////////////////////////////////    C-H potentials    //////////////////////////////////////
variable sigma_CC equal 3.43 # Å
variable sigma_HH equal 3.075 # Å
variable sigma_CH_geo equal sqrt(${sigma_CC}*${sigma_HH}) # Å
variable sigma_CH_geo equal sqrt(3.43*${sigma_HH}) 
variable sigma_CH_geo equal sqrt(3.43*3.075) 
variable sigma_CH_arit equal 0.5*(${sigma_CC}+${sigma_HH}) # Å
variable sigma_CH_arit equal 0.5*(3.43+${sigma_HH}) 
variable sigma_CH_arit equal 0.5*(3.43+3.075) 

variable P_par equal 0.57 # Å^3
variable P_perp equal 1.995 # Å^3
variable P_h equal 0.81 # Å^3
variable E_h equal 2.337e5*(1/503.23) # K * 1/503.23 kcal/mol/K = kcal/mol
variable E_c equal 1.39254e5*(1/503.23) # K * 1/503.23 kcal/mol/K = kcal/mol

variable epsilon equal 4*v_E_h*v_E_c*v_P_h*(v_P_par+v_P_perp/2)/(v_sigma_CH_geo^6*(v_E_h+v_E_c)) # kcal/mol

pair_coeff 1 2 cb ${epsilon} ${sigma_CH_geo} ${P_par} ${P_perp} # C-H potential
pair_coeff 1 2 cb 0.750549668586509 ${sigma_CH_geo} ${P_par} ${P_perp} 
pair_coeff 1 2 cb 0.750549668586509 3.24765299870537 ${P_par} ${P_perp} 
pair_coeff 1 2 cb 0.750549668586509 3.24765299870537 0.57 ${P_perp} 
pair_coeff 1 2 cb 0.750549668586509 3.24765299870537 0.57 1.995 
#pair_coeff 1 2 lj/cut 0.3025 2.065
# //////////////////////////////////////    C-H potentials    //////////////////////////////////////

# 3. Add a single hydrogen molecule to the system, close to the center of the first platelet
create_atoms    2 single 0 0 -2
Created 1 atoms
  using lattice units in orthogonal box = (-30 -30 -30) to (30 30 30)
  create_atoms CPU = 0.000 seconds

group           C type 1
480 atoms in group C
group           H2 type 2
1 atoms in group H2

# 4. Equilibration
timestep        0.05
fix             mytth1 C spring/self ${k2} # Apply a spring force to the carbon atoms
fix             mytth1 C spring/self 3.5 
velocity        all create ${tem} 48 rot yes mom yes dist gaussian # Initialize velocities
velocity        all create 300 48 rot yes mom yes dist gaussian 
fix             mynpt all npt temp ${tem} ${tem} 100 x ${pre} ${pre} 1000 y ${pre} ${pre} 1000 # Apply NPT ensemble to the system
fix             mynpt all npt temp 300 ${tem} 100 x ${pre} ${pre} 1000 y ${pre} ${pre} 1000 
fix             mynpt all npt temp 300 300 100 x ${pre} ${pre} 1000 y ${pre} ${pre} 1000 
fix             mynpt all npt temp 300 300 100 x 112 ${pre} 1000 y ${pre} ${pre} 1000 
fix             mynpt all npt temp 300 300 100 x 112 112 1000 y ${pre} ${pre} 1000 
fix             mynpt all npt temp 300 300 100 x 112 112 1000 y 112 ${pre} 1000 
fix             mynpt all npt temp 300 300 100 x 112 112 1000 y 112 112 1000 

thermo          10000
dump            dump all atom 1000 simulation_data/absorption_pot.lammpstrj

run             20000

CITE-CITE-CITE-CITE-CITE-CITE-CITE-CITE-CITE-CITE-CITE-CITE-CITE

Your simulation uses code contributions which should be cited:

- Type Label Framework: https://doi.org/10.1021/acs.jpcb.3c08419

@Article{Gissinger24,
 author = {Jacob R. Gissinger, Ilia Nikiforov, Yaser Afshar, Brendon Waters, Moon-ki Choi, Daniel S. Karls, Alexander Stukowski, Wonpil Im, Hendrik Heinz, Axel Kohlmeyer, and Ellad B. Tadmor},
 title = {Type Label Framework for Bonded Force Fields in LAMMPS},
 journal = {J. Phys. Chem. B},
 year =    2024,
 volume =  128,
 number =  13,
 pages =   {3282–-3297}
}

CITE-CITE-CITE-CITE-CITE-CITE-CITE-CITE-CITE-CITE-CITE-CITE-CITE

Generated 0 of 1 mixed pair_coeff terms from geometric mixing rule
Neighbor list info ...
  update: every = 1 steps, delay = 3 steps, check = yes
  max neighbors/atom: 6000, page size: 100000
  master list distance cutoff = 31
  ghost atom cutoff = 31
  binsize = 15.5, bins = 4 4 4
  4 neighbor lists, perpetual/occasional/extra = 4 0 0
  (1) pair lj/cut, perpetual, skip trim from (4)
      attributes: half, newton on, cut 15
      pair build: skip/trim
      stencil: none
      bin: none
  (2) pair sg, perpetual, skip trim from (4)
      attributes: half, newton on, cut 16
      pair build: skip/trim
      stencil: none
      bin: none
  (3) pair cb, perpetual, skip from (4)
      attributes: half, newton on
      pair build: skip
      stencil: none
      bin: none
  (4) neighbor class addition, perpetual
      attributes: half, newton on
      pair build: half/bin/newton
      stencil: half/bin/3d
      bin: standard
Per MPI rank memory allocation (min/avg/max) = 13.28 | 13.37 | 13.93 Mbytes
   Step          Temp          E_pair         E_mol          TotEng         Press          Volume    
         0   300            308.43814      19603.922      20341.597     -432.48369      216000       
     10000   308.72719      373.58236      18568.419      19383.724     -313.9945       172136.64    
     20000   322.02648      371.05675      18538.378      19370.187     -418.66256      126544.33    
Loop time of 7.94527 on 48 procs for 20000 steps with 481 atoms

Performance: 10.874 ns/day, 2.207 hours/ns, 2517.220 timesteps/s, 1.211 Matom-step/s
99.8% CPU use with 48 MPI tasks x 1 OpenMP threads

MPI task timing breakdown:
Section |  min time  |  avg time  |  max time  |%varavg| %total
---------------------------------------------------------------
Pair    | 0.12289    | 0.47511    | 2.3051     |  81.1 |  5.98
Bond    | 0.0036448  | 0.43535    | 2.4149     | 115.4 |  5.48
Neigh   | 0.021863   | 0.023705   | 0.026002   |   0.7 |  0.30
Comm    | 2.5072     | 4.4981     | 6.5371     |  72.5 | 56.61
Output  | 0.0035723  | 0.0087451  | 0.014591   |   4.0 |  0.11
Modify  | 0.7063     | 2.2241     | 4.8406     | 110.3 | 27.99
Other   |            | 0.2802     |            |       |  3.53

Nlocal:        10.0208 ave          42 max           0 min
Histogram: 21 4 10 5 0 1 0 3 3 1
Nghost:        1907.85 ave        2370 max        1332 min
Histogram: 8 0 0 0 24 0 0 0 0 16
Neighs:              0 ave           0 max           0 min
Histogram: 48 0 0 0 0 0 0 0 0 0

Total # of neighbors = 0
Ave neighs/atom = 0
Ave special neighs/atom = 15.567568
Neighbor list builds = 55
Dangerous builds = 0
unfix           mynpt
unfix           mytth1

# 5. Umbrella sampling
fix             mynvt all nvt temp ${tem} ${tem} 100
fix             mynvt all nvt temp 300 ${tem} 100
fix             mynvt all nvt temp 300 300 100
fix             mytth1 C spring/self ${k2}
fix             mytth1 C spring/self 3.5

variable        cpt loop 51
label           loop
variable        zdes equal  -15+0.60*(${cpt}-1)
variable        zdes equal  -15+0.60*(1-1)
variable        zave equal xcm(H2,z)
fix             mytth2 H2 spring tether ${k1} 2.5 2.5 ${zdes} 0
fix             mytth2 H2 spring tether 5.5 2.5 2.5 ${zdes} 0
fix             mytth2 H2 spring tether 5.5 2.5 2.5 -15 0
run             10000
Generated 0 of 1 mixed pair_coeff terms from geometric mixing rule
Per MPI rank memory allocation (min/avg/max) = 13.32 | 13.74 | 14.98 Mbytes
   Step          Temp          E_pair         E_mol          TotEng         Press     
     20000   322.02648      371.05675      18538.378      19370.187     -418.66256    
     30000   278.99723      334.89965      18587.339      19321.425     -1152.575     
Loop time of 3.06043 on 48 procs for 10000 steps with 481 atoms

Performance: 14.116 ns/day, 1.700 hours/ns, 3267.511 timesteps/s, 1.572 Matom-step/s
99.9% CPU use with 48 MPI tasks x 1 OpenMP threads

MPI task timing breakdown:
Section |  min time  |  avg time  |  max time  |%varavg| %total
---------------------------------------------------------------
Pair    | 0.0032214  | 0.14514    | 0.8222     |  55.2 |  4.74
Bond    | 0.00097957 | 0.18195    | 0.76527    |  56.1 |  5.95
Neigh   | 0.044661   | 0.048853   | 0.052994   |   1.0 |  1.60
Comm    | 1.1765     | 2.2087     | 2.7093     |  33.4 | 72.17
Output  | 0.0011676  | 0.0028708  | 0.0048075  |   2.2 |  0.09
Modify  | 0.12217    | 0.35851    | 1.4354     |  72.6 | 11.71
Other   |            | 0.1144     |            |       |  3.74

Nlocal:        10.0208 ave          41 max           0 min
Histogram: 22 5 8 5 0 0 3 0 3 2
Nghost:        1912.62 ave        2380 max        1332 min
Histogram: 8 0 0 0 24 0 0 0 0 16
Neighs:              0 ave           0 max           0 min
Histogram: 48 0 0 0 0 0 0 0 0 0

Total # of neighbors = 0
Ave neighs/atom = 0
Ave special neighs/atom = 15.567568
Neighbor list builds = 142
Dangerous builds = 0
fix             myat1 all ave/time 1000 10 10000 v_zave v_zdes file simulation_data/abpot/${cpt}.dat
fix             myat1 all ave/time 1000 10 10000 v_zave v_zdes file simulation_data/abpot/1.dat
run             50000
Generated 0 of 1 mixed pair_coeff terms from geometric mixing rule
Per MPI rank memory allocation (min/avg/max) = 13.32 | 13.79 | 14.98 Mbytes
   Step          Temp          E_pair         E_mol          TotEng         Press     
     30000   278.99723      334.89965      18587.339      19321.425     -1152.575     
     40000   285.45897      397.8917       18507.873      19314.196      472.48       
     50000   299.45755      383.85292      18560.017      19372.331      143.34411    
     60000   289.68873      349.90095      18620.284      19384.669     -836.39368    
     70000   294.03119      368.3087       18536.715      19325.721     -199.62361    
     80000   289.69146      400.91715      18528.13       19343.534      725.82839    
Loop time of 14.7575 on 48 procs for 50000 steps with 481 atoms

Performance: 14.637 ns/day, 1.640 hours/ns, 3388.106 timesteps/s, 1.630 Matom-step/s
100.0% CPU use with 48 MPI tasks x 1 OpenMP threads

MPI task timing breakdown:
Section |  min time  |  avg time  |  max time  |%varavg| %total
---------------------------------------------------------------
Pair    | 0.015811   | 0.72274    | 3.802      | 122.1 |  4.90
Bond    | 0.0049285  | 0.91018    | 3.838      | 125.6 |  6.17
Neigh   | 0.065561   | 0.071815   | 0.078084   |   1.2 |  0.49
Comm    | 6.0779     | 10.739     | 13.251     |  73.7 | 72.77
Output  | 0.0056607  | 0.01274    | 0.02023    |   4.1 |  0.09
Modify  | 0.5873     | 1.7248     | 6.8474     | 157.8 | 11.69
Other   |            | 0.5761     |            |       |  3.90

Nlocal:        10.0208 ave          42 max           0 min
Histogram: 22 3 12 3 0 1 0 3 2 2
Nghost:         1937.1 ave        2423 max        1336 min
Histogram: 8 0 0 0 24 0 0 0 0 16
Neighs:              0 ave           0 max           0 min
Histogram: 48 0 0 0 0 0 0 0 0 0

Total # of neighbors = 0
Ave neighs/atom = 0
Ave special neighs/atom = 15.567568
Neighbor list builds = 205
Dangerous builds = 0
unfix           myat1
next            cpt
jump            SELF loop
variable        zdes equal  -15+0.60*(${cpt}-1)
variable        zdes equal  -15+0.60*(2-1)
variable        zave equal xcm(H2,z)
fix             mytth2 H2 spring tether ${k1} 2.5 2.5 ${zdes} 0
fix             mytth2 H2 spring tether 5.5 2.5 2.5 ${zdes} 0
fix             mytth2 H2 spring tether 5.5 2.5 2.5 -14.4 0
run             10000
Generated 0 of 1 mixed pair_coeff terms from geometric mixing rule
Per MPI rank memory allocation (min/avg/max) = 13.32 | 13.82 | 14.98 Mbytes
   Step          Temp          E_pair         E_mol          TotEng         Press     
     80000   289.69146      400.91715      18528.13       19343.534      725.82839    
     90000   311.68624      352.52475      18567.97       19366.452     -566.19099    
Loop time of 2.95966 on 48 procs for 10000 steps with 481 atoms

Performance: 14.596 ns/day, 1.644 hours/ns, 3378.764 timesteps/s, 1.625 Matom-step/s
100.0% CPU use with 48 MPI tasks x 1 OpenMP threads

MPI task timing breakdown:
Section |  min time  |  avg time  |  max time  |%varavg| %total
---------------------------------------------------------------
Pair    | 0.003216   | 0.14504    | 0.74908    |  54.5 |  4.90
Bond    | 0.00099325 | 0.1825     | 0.78494    |  56.3 |  6.17
Neigh   | 0.0059934  | 0.0065671  | 0.0071434  |   0.4 |  0.22
Comm    | 1.2239     | 2.1613     | 2.6675     |  33.3 | 73.03
Output  | 0.0011493  | 0.0023283  | 0.0036023  |   1.6 |  0.08
Modify  | 0.11055    | 0.34662    | 1.3979     |  72.1 | 11.71
Other   |            | 0.1153     |            |       |  3.89

Nlocal:        10.0208 ave          43 max           0 min
Histogram: 22 3 9 6 0 1 1 3 2 1
Nghost:        1933.48 ave        2418 max        1335 min
Histogram: 8 0 0 0 24 0 0 0 0 16
Neighs:              0 ave           0 max           0 min
Histogram: 48 0 0 0 0 0 0 0 0 0

Total # of neighbors = 0
Ave neighs/atom = 0
Ave special neighs/atom = 15.567568
Neighbor list builds = 18
Dangerous builds = 0
fix             myat1 all ave/time 1000 10 10000 v_zave v_zdes file simulation_data/abpot/${cpt}.dat
fix             myat1 all ave/time 1000 10 10000 v_zave v_zdes file simulation_data/abpot/2.dat
run             50000
Generated 0 of 1 mixed pair_coeff terms from geometric mixing rule
Per MPI rank memory allocation (min/avg/max) = 13.32 | 13.82 | 14.98 Mbytes
   Step          Temp          E_pair         E_mol          TotEng         Press     
     90000   311.68624      352.52475      18567.97       19366.452     -566.19099    
    100000   296.67166      368.76499      18586.493      19379.733     -215.22643    
    110000   286.11719      402.41036      18529.285      19341.069      671.47729    
    120000   303.67628      361.2163       18540.194      19335.907     -458.93765    
    130000   302.62831      360.6564       18569.576      19363.229     -320.44193    
    140000   297.50454      380.8963       18554.97       19361.532      101.86836    
Loop time of 14.7222 on 48 procs for 50000 steps with 481 atoms

Performance: 14.672 ns/day, 1.636 hours/ns, 3396.238 timesteps/s, 1.634 Matom-step/s
100.0% CPU use with 48 MPI tasks x 1 OpenMP threads

MPI task timing breakdown:
Section |  min time  |  avg time  |  max time  |%varavg| %total
---------------------------------------------------------------
Pair    | 0.01621    | 0.72184    | 4.037      | 122.5 |  4.90
Bond    | 0.0049578  | 0.90899    | 3.6814     | 125.4 |  6.17
Neigh   | 0.023703   | 0.025798   | 0.027917   |   0.7 |  0.18
Comm    | 5.6461     | 10.747     | 13.19      |  73.7 | 73.00
Output  | 0.0054537  | 0.010797   | 0.016222   |   3.3 |  0.07
Modify  | 0.57001    | 1.7329     | 6.8681     | 157.7 | 11.77
Other   |            | 0.5744     |            |       |  3.90

Nlocal:        10.0208 ave          41 max           0 min
Histogram: 21 3 12 4 0 0 2 2 2 2
Nghost:        1930.85 ave        2411 max        1332 min
Histogram: 8 0 0 0 24 0 0 0 0 16
Neighs:              0 ave           0 max           0 min
Histogram: 48 0 0 0 0 0 0 0 0 0

Total # of neighbors = 0
Ave neighs/atom = 0
Ave special neighs/atom = 15.567568
Neighbor list builds = 71
Dangerous builds = 0
unfix           myat1
next            cpt
jump            SELF loop
variable        zdes equal  -15+0.60*(${cpt}-1)
variable        zdes equal  -15+0.60*(3-1)
variable        zave equal xcm(H2,z)
fix             mytth2 H2 spring tether ${k1} 2.5 2.5 ${zdes} 0
fix             mytth2 H2 spring tether 5.5 2.5 2.5 ${zdes} 0
fix             mytth2 H2 spring tether 5.5 2.5 2.5 -13.8 0
run             10000
Generated 0 of 1 mixed pair_coeff terms from geometric mixing rule
Per MPI rank memory allocation (min/avg/max) = 13.32 | 13.83 | 14.98 Mbytes
   Step          Temp          E_pair         E_mol          TotEng         Press     
    140000   297.50454      380.8963       18554.97       19361.532      101.86836    
    150000   284.42166      371.88898      18524.794      19303.631     -19.529903    
Loop time of 3.01275 on 48 procs for 10000 steps with 481 atoms

Performance: 14.339 ns/day, 1.674 hours/ns, 3319.226 timesteps/s, 1.597 Matom-step/s
100.0% CPU use with 48 MPI tasks x 1 OpenMP threads

MPI task timing breakdown:
Section |  min time  |  avg time  |  max time  |%varavg| %total
---------------------------------------------------------------
Pair    | 0.0032496  | 0.1449     | 0.82955    |  55.2 |  4.81
Bond    | 0.00098983 | 0.18244    | 0.79725    |  56.1 |  6.06
Neigh   | 0.0051239  | 0.0056149  | 0.0061405  |   0.4 |  0.19
Comm    | 1.2028     | 2.2016     | 2.7199     |  33.8 | 73.08
Output  | 0.0011848  | 0.0022247  | 0.0033038  |   1.4 |  0.07
Modify  | 0.11642    | 0.36073    | 1.435      |  73.6 | 11.97
Other   |            | 0.1152     |            |       |  3.82

Nlocal:        10.0208 ave          43 max           0 min
Histogram: 22 4 11 2 1 1 2 2 2 1
Nghost:         1932.6 ave        2413 max        1330 min
Histogram: 8 0 0 0 24 0 0 0 0 16
Neighs:              0 ave           0 max           0 min
Histogram: 48 0 0 0 0 0 0 0 0 0

Total # of neighbors = 0
Ave neighs/atom = 0
Ave special neighs/atom = 15.567568
Neighbor list builds = 15
Dangerous builds = 0
fix             myat1 all ave/time 1000 10 10000 v_zave v_zdes file simulation_data/abpot/${cpt}.dat
fix             myat1 all ave/time 1000 10 10000 v_zave v_zdes file simulation_data/abpot/3.dat
run             50000
Generated 0 of 1 mixed pair_coeff terms from geometric mixing rule
Per MPI rank memory allocation (min/avg/max) = 13.32 | 13.83 | 14.98 Mbytes
   Step          Temp          E_pair         E_mol          TotEng         Press     
    150000   284.42166      371.88898      18524.794      19303.631     -19.529903    
    160000   297.37174      365.00525      18545.586      19336.067     -208.39126    
    170000   319.09271      379.02252      18520.977      19356.553      133.62778    
    180000   318.28402      374.45633      18555.777      19385.631     -119.28939    
    190000   321.85794      364.33926      18556.359      19381.209     -459.19346    
    200000   304.37964      367.67934      18551.893      19355.076     -104.69869    
Loop time of 14.4267 on 48 procs for 50000 steps with 481 atoms

Performance: 14.972 ns/day, 1.603 hours/ns, 3465.802 timesteps/s, 1.667 Matom-step/s
100.0% CPU use with 48 MPI tasks x 1 OpenMP threads

MPI task timing breakdown:
Section |  min time  |  avg time  |  max time  |%varavg| %total
---------------------------------------------------------------
Pair    | 0.015703   | 0.72151    | 3.9551     | 122.2 |  5.00
Bond    | 0.0049813  | 0.90896    | 3.837      | 125.1 |  6.30
Neigh   | 0.026555   | 0.029002   | 0.031465   |   0.8 |  0.20
Comm    | 5.717      | 10.518     | 12.968     |  72.3 | 72.91
Output  | 0.0055722  | 0.010696   | 0.015821   |   3.2 |  0.07
Modify  | 0.57562    | 1.6643     | 6.5217     | 151.6 | 11.54
Other   |            | 0.5742     |            |       |  3.98

Nlocal:        10.0208 ave          42 max           0 min
Histogram: 22 5 10 3 0 0 2 1 4 1
Nghost:         1923.1 ave        2396 max        1331 min
Histogram: 8 0 0 0 24 0 0 0 0 16
Neighs:              0 ave           0 max           0 min
Histogram: 48 0 0 0 0 0 0 0 0 0

Total # of neighbors = 0
Ave neighs/atom = 0
Ave special neighs/atom = 15.567568
Neighbor list builds = 82
Dangerous builds = 0
unfix           myat1
next            cpt
jump            SELF loop
variable        zdes equal  -15+0.60*(${cpt}-1)
variable        zdes equal  -15+0.60*(4-1)
variable        zave equal xcm(H2,z)
fix             mytth2 H2 spring tether ${k1} 2.5 2.5 ${zdes} 0
fix             mytth2 H2 spring tether 5.5 2.5 2.5 ${zdes} 0
fix             mytth2 H2 spring tether 5.5 2.5 2.5 -13.2 0
run             10000
Generated 0 of 1 mixed pair_coeff terms from geometric mixing rule
Per MPI rank memory allocation (min/avg/max) = 13.32 | 13.83 | 14.98 Mbytes
   Step          Temp          E_pair         E_mol          TotEng         Press     
    200000   304.37964      367.67934      18551.893      19355.076     -104.69869    
    210000   292.33477      382.94286      18524.116      19325.328      191.07196    
Loop time of 2.91329 on 48 procs for 10000 steps with 481 atoms

Performance: 14.829 ns/day, 1.618 hours/ns, 3432.548 timesteps/s, 1.651 Matom-step/s
100.0% CPU use with 48 MPI tasks x 1 OpenMP threads

MPI task timing breakdown:
Section |  min time  |  avg time  |  max time  |%varavg| %total
---------------------------------------------------------------
Pair    | 0.0031733  | 0.14462    | 0.74109    |  54.3 |  4.96
Bond    | 0.00099699 | 0.18197    | 0.81392    |  56.1 |  6.25
Neigh   | 0.0065719  | 0.007226   | 0.0078883  |   0.4 |  0.25
Comm    | 1.1138     | 2.1274     | 2.6323     |  32.7 | 73.03
Output  | 0.001109   | 0.0020981  | 0.003122   |   1.4 |  0.07
Modify  | 0.11501    | 0.33484    | 1.3332     |  70.0 | 11.49
Other   |            | 0.1151     |            |       |  3.95

Nlocal:        10.0208 ave          40 max           0 min
Histogram: 19 7 7 7 0 0 1 3 1 3
Nghost:        1929.35 ave        2404 max        1333 min
Histogram: 8 0 0 0 24 0 0 0 0 16
Neighs:              0 ave           0 max           0 min
Histogram: 48 0 0 0 0 0 0 0 0 0

Total # of neighbors = 0
Ave neighs/atom = 0
Ave special neighs/atom = 15.567568
Neighbor list builds = 21
Dangerous builds = 0
fix             myat1 all ave/time 1000 10 10000 v_zave v_zdes file simulation_data/abpot/${cpt}.dat
fix             myat1 all ave/time 1000 10 10000 v_zave v_zdes file simulation_data/abpot/4.dat
run             50000
Generated 0 of 1 mixed pair_coeff terms from geometric mixing rule
Per MPI rank memory allocation (min/avg/max) = 13.32 | 13.83 | 14.98 Mbytes
   Step          Temp          E_pair         E_mol          TotEng         Press     
    210000   292.33477      382.94286      18524.116      19325.328      191.07196    
    220000   283.69043      375.23567      18530.861      19311.998     -29.563061    
    230000   290.21514      380.07345      18544.411      19339.721      90.125072    
    240000   308.88758      379.12796      18526.024      19347.105      16.137468    
    250000   286.2164       377.46088      18555.102      19342.078     -30.986465    
    260000   292.87977      366.53286      18529.233      19314.815     -194.26435    
Loop time of 14.3314 on 48 procs for 50000 steps with 481 atoms

Performance: 15.072 ns/day, 1.592 hours/ns, 3488.849 timesteps/s, 1.678 Matom-step/s
100.0% CPU use with 48 MPI tasks x 1 OpenMP threads

MPI task timing breakdown:
Section |  min time  |  avg time  |  max time  |%varavg| %total
---------------------------------------------------------------
Pair    | 0.015832   | 0.72287    | 3.6379     | 121.2 |  5.04
Bond    | 0.0049908  | 0.90974    | 3.972      | 125.1 |  6.35
Neigh   | 0.021626   | 0.023668   | 0.025881   |   0.7 |  0.17
Comm    | 5.4931     | 10.43      | 12.754     |  71.6 | 72.78
Output  | 0.0053997  | 0.010401   | 0.015404   |   3.1 |  0.07
Modify  | 0.57752    | 1.6586     | 6.3943     | 148.8 | 11.57
Other   |            | 0.5757     |            |       |  4.02

Nlocal:        10.0208 ave          41 max           0 min
Histogram: 21 5 9 5 0 0 2 2 2 2
Nghost:        1929.35 ave        2410 max        1336 min
Histogram: 8 0 0 0 24 0 0 0 0 16
Neighs:              0 ave           0 max           0 min
Histogram: 48 0 0 0 0 0 0 0 0 0

Total # of neighbors = 0
Ave neighs/atom = 0
Ave special neighs/atom = 15.567568
Neighbor list builds = 69
Dangerous builds = 0
unfix           myat1
next            cpt
jump            SELF loop
variable        zdes equal  -15+0.60*(${cpt}-1)
variable        zdes equal  -15+0.60*(5-1)
variable        zave equal xcm(H2,z)
fix             mytth2 H2 spring tether ${k1} 2.5 2.5 ${zdes} 0
fix             mytth2 H2 spring tether 5.5 2.5 2.5 ${zdes} 0
fix             mytth2 H2 spring tether 5.5 2.5 2.5 -12.6 0
run             10000
Generated 0 of 1 mixed pair_coeff terms from geometric mixing rule
Per MPI rank memory allocation (min/avg/max) = 13.32 | 13.84 | 14.98 Mbytes
   Step          Temp          E_pair         E_mol          TotEng         Press     
    260000   292.87977      366.53286      18529.233      19314.815     -194.26435    
    270000   305.94268      368.57954      18529.777      19336.096     -64.288205    
Loop time of 2.78898 on 48 procs for 10000 steps with 481 atoms

Performance: 15.490 ns/day, 1.549 hours/ns, 3585.547 timesteps/s, 1.725 Matom-step/s
100.0% CPU use with 48 MPI tasks x 1 OpenMP threads

MPI task timing breakdown:
Section |  min time  |  avg time  |  max time  |%varavg| %total
---------------------------------------------------------------
Pair    | 0.0031438  | 0.1443     | 0.74286    |  54.0 |  5.17
Bond    | 0.00098216 | 0.18161    | 0.75872    |  55.8 |  6.51
Neigh   | 0.0029589  | 0.0032948  | 0.0036065  |   0.3 |  0.12
Comm    | 1.1076     | 2.0295     | 2.5163     |  32.1 | 72.77
Output  | 0.0010382  | 0.0020381  | 0.003076   |   1.4 |  0.07
Modify  | 0.11161    | 0.31307    | 1.2263     |  66.3 | 11.23
Other   |            | 0.1152     |            |       |  4.13

Nlocal:        10.0208 ave          39 max           0 min
Histogram: 19 5 10 6 0 0 1 1 3 3
Nghost:        1925.48 ave        2402 max        1334 min
Histogram: 8 0 0 0 24 0 0 0 0 16
Neighs:              0 ave           0 max           0 min
Histogram: 48 0 0 0 0 0 0 0 0 0

Total # of neighbors = 0
Ave neighs/atom = 0
Ave special neighs/atom = 15.567568
Neighbor list builds = 10
Dangerous builds = 0
fix             myat1 all ave/time 1000 10 10000 v_zave v_zdes file simulation_data/abpot/${cpt}.dat
fix             myat1 all ave/time 1000 10 10000 v_zave v_zdes file simulation_data/abpot/5.dat
run             50000
Generated 0 of 1 mixed pair_coeff terms from geometric mixing rule
Per MPI rank memory allocation (min/avg/max) = 13.32 | 13.84 | 14.98 Mbytes
   Step          Temp          E_pair         E_mol          TotEng         Press     
    270000   305.94268      368.57954      18529.777      19336.096     -64.288205    
    280000   308.85154      378.26036      18549.782      19369.944      43.374994    
    290000   297.99334      373.09276      18553.902      19353.36      -115.04046    
    300000   284.94656      375.87906      18541.776      19325.354      81.17917     
    310000   291.00101      375.41266      18551.958      19343.732      93.394238    
    320000   300.12323      364.11316      18559.331      19352.857     -168.64133    
Loop time of 14.8945 on 48 procs for 50000 steps with 481 atoms

Performance: 14.502 ns/day, 1.655 hours/ns, 3356.936 timesteps/s, 1.615 Matom-step/s
100.0% CPU use with 48 MPI tasks x 1 OpenMP threads

MPI task timing breakdown:
Section |  min time  |  avg time  |  max time  |%varavg| %total
---------------------------------------------------------------
Pair    | 0.016007   | 0.72382    | 3.705      | 121.8 |  4.86
Bond    | 0.0049761  | 0.91053    | 3.8448     | 125.0 |  6.11
Neigh   | 0.023642   | 0.025975   | 0.028389   |   0.8 |  0.17
Comm    | 6.2746     | 10.913     | 13.462     |  74.4 | 73.27
Output  | 0.0055289  | 0.010542   | 0.015515   |   3.1 |  0.07
Modify  | 0.56986    | 1.7376     | 6.8808     | 163.6 | 11.67
Other   |            | 0.573      |            |       |  3.85

Nlocal:        10.0208 ave          45 max           0 min
Histogram: 21 5 11 3 1 1 2 1 2 1
Nghost:        1930.73 ave        2418 max        1328 min
Histogram: 8 0 0 0 24 0 0 0 0 16
Neighs:              0 ave           0 max           0 min
Histogram: 48 0 0 0 0 0 0 0 0 0

Total # of neighbors = 0
Ave neighs/atom = 0
Ave special neighs/atom = 15.567568
Neighbor list builds = 74
Dangerous builds = 0
unfix           myat1
next            cpt
jump            SELF loop
variable        zdes equal  -15+0.60*(${cpt}-1)
variable        zdes equal  -15+0.60*(6-1)
variable        zave equal xcm(H2,z)
fix             mytth2 H2 spring tether ${k1} 2.5 2.5 ${zdes} 0
fix             mytth2 H2 spring tether 5.5 2.5 2.5 ${zdes} 0
fix             mytth2 H2 spring tether 5.5 2.5 2.5 -12 0
run             10000
Generated 0 of 1 mixed pair_coeff terms from geometric mixing rule
Per MPI rank memory allocation (min/avg/max) = 13.32 | 13.84 | 14.98 Mbytes
   Step          Temp          E_pair         E_mol          TotEng         Press     
    320000   300.12323      364.11316      18559.331      19352.857     -168.64133    
    330000   304.34427      381.74345      18537.898      19355.094      155.18617    
Loop time of 3.01969 on 48 procs for 10000 steps with 481 atoms

Performance: 14.306 ns/day, 1.678 hours/ns, 3311.593 timesteps/s, 1.593 Matom-step/s
100.0% CPU use with 48 MPI tasks x 1 OpenMP threads

MPI task timing breakdown:
Section |  min time  |  avg time  |  max time  |%varavg| %total
---------------------------------------------------------------
Pair    | 0.0032026  | 0.14477    | 0.80851    |  55.1 |  4.79
Bond    | 0.0009929  | 0.18199    | 0.81182    |  56.2 |  6.03
Neigh   | 0.0052348  | 0.0056924  | 0.0062102  |   0.3 |  0.19
Comm    | 1.2028     | 2.2179     | 2.7423     |  33.8 | 73.45
Output  | 0.0011559  | 0.0021557  | 0.0031726  |   1.4 |  0.07
Modify  | 0.11855    | 0.35128    | 1.432      |  75.2 | 11.63
Other   |            | 0.1159     |            |       |  3.84

Nlocal:        10.0208 ave          38 max           0 min
Histogram: 21 5 7 6 1 0 0 2 3 3
Nghost:        1930.98 ave        2416 max        1336 min
Histogram: 8 0 0 0 24 0 0 0 0 16
Neighs:              0 ave           0 max           0 min
Histogram: 48 0 0 0 0 0 0 0 0 0

Total # of neighbors = 0
Ave neighs/atom = 0
Ave special neighs/atom = 15.567568
Neighbor list builds = 16
Dangerous builds = 0
fix             myat1 all ave/time 1000 10 10000 v_zave v_zdes file simulation_data/abpot/${cpt}.dat
fix             myat1 all ave/time 1000 10 10000 v_zave v_zdes file simulation_data/abpot/6.dat
run             50000
Generated 0 of 1 mixed pair_coeff terms from geometric mixing rule
Per MPI rank memory allocation (min/avg/max) = 13.32 | 13.84 | 14.98 Mbytes
   Step          Temp          E_pair         E_mol          TotEng         Press     
    330000   304.34427      381.74345      18537.898      19355.094      155.18617    
    340000   282.97511      370.274        18521.682      19296.834     -52.053587    
    350000   273.36431      363.13678      18578.667      19332.93      -467.46346    
    360000   325.267        372.92662      18521.368      19359.683     -58.142001    
    370000   301.43074      375.1976       18538.051      19344.532      73.370107    
    380000   301.26352      363.17816      18535.549      19329.772     -162.30051    
Loop time of 14.666 on 48 procs for 50000 steps with 481 atoms

Performance: 14.728 ns/day, 1.630 hours/ns, 3409.252 timesteps/s, 1.640 Matom-step/s
100.0% CPU use with 48 MPI tasks x 1 OpenMP threads

MPI task timing breakdown:
Section |  min time  |  avg time  |  max time  |%varavg| %total
---------------------------------------------------------------
Pair    | 0.015927   | 0.72445    | 4.0948     | 123.5 |  4.94
Bond    | 0.0049573  | 0.91037    | 3.803      | 125.2 |  6.21
Neigh   | 0.017857   | 0.019527   | 0.021366   |   0.7 |  0.13
Comm    | 5.8503     | 10.711     | 13.101     |  72.9 | 73.03
Output  | 0.005557   | 0.010563   | 0.015621   |   3.1 |  0.07
Modify  | 0.5959     | 1.7152     | 6.7555     | 156.4 | 11.69
Other   |            | 0.5746     |            |       |  3.92

Nlocal:        10.0208 ave          43 max           0 min
Histogram: 21 7 6 6 0 1 2 1 1 3
Nghost:         1926.1 ave        2402 max        1330 min
Histogram: 8 0 0 0 24 0 0 0 0 16
Neighs:              0 ave           0 max           0 min
Histogram: 48 0 0 0 0 0 0 0 0 0

Total # of neighbors = 0
Ave neighs/atom = 0
Ave special neighs/atom = 15.567568
Neighbor list builds = 55
Dangerous builds = 0
unfix           myat1
next            cpt
jump            SELF loop
variable        zdes equal  -15+0.60*(${cpt}-1)
variable        zdes equal  -15+0.60*(7-1)
variable        zave equal xcm(H2,z)
fix             mytth2 H2 spring tether ${k1} 2.5 2.5 ${zdes} 0
fix             mytth2 H2 spring tether 5.5 2.5 2.5 ${zdes} 0
fix             mytth2 H2 spring tether 5.5 2.5 2.5 -11.4 0
run             10000
Generated 0 of 1 mixed pair_coeff terms from geometric mixing rule
Per MPI rank memory allocation (min/avg/max) = 13.32 | 13.84 | 14.98 Mbytes
   Step          Temp          E_pair         E_mol          TotEng         Press     
    380000   301.26352      363.17816      18535.549      19329.772     -162.30051    
    390000   288.28702      368.33018      18515.528      19296.336     -167.45538    
Loop time of 2.9089 on 48 procs for 10000 steps with 481 atoms

Performance: 14.851 ns/day, 1.616 hours/ns, 3437.731 timesteps/s, 1.654 Matom-step/s
100.0% CPU use with 48 MPI tasks x 1 OpenMP threads

MPI task timing breakdown:
Section |  min time  |  avg time  |  max time  |%varavg| %total
---------------------------------------------------------------
Pair    | 0.0031657  | 0.1449     | 0.84103    |  55.7 |  4.98
Bond    | 0.00098507 | 0.18192    | 0.7947     |  56.1 |  6.25
Neigh   | 0.00426    | 0.0046626  | 0.0051038  |   0.3 |  0.16
Comm    | 1.0965     | 2.1256     | 2.6216     |  32.9 | 73.07
Output  | 0.0010903  | 0.0020779  | 0.003084   |   1.4 |  0.07
Modify  | 0.1159     | 0.33485    | 1.3181     |  69.7 | 11.51
Other   |            | 0.1149     |            |       |  3.95

Nlocal:        10.0208 ave          44 max           0 min
Histogram: 23 4 9 3 1 1 1 3 2 1
Nghost:         1921.6 ave        2396 max        1329 min
Histogram: 8 0 0 0 24 0 0 0 0 16
Neighs:              0 ave           0 max           0 min
Histogram: 48 0 0 0 0 0 0 0 0 0

Total # of neighbors = 0
Ave neighs/atom = 0
Ave special neighs/atom = 15.567568
Neighbor list builds = 13
Dangerous builds = 0
fix             myat1 all ave/time 1000 10 10000 v_zave v_zdes file simulation_data/abpot/${cpt}.dat
fix             myat1 all ave/time 1000 10 10000 v_zave v_zdes file simulation_data/abpot/7.dat
run             50000
Generated 0 of 1 mixed pair_coeff terms from geometric mixing rule
Per MPI rank memory allocation (min/avg/max) = 13.32 | 13.84 | 14.98 Mbytes
   Step          Temp          E_pair         E_mol          TotEng         Press     
    390000   288.28702      368.33018      18515.528      19296.336     -167.45538    
    400000   301.14622      380.34807      18504.8        19316.024      270.62627    
    410000   296.77402      367.54691      18546.555      19338.723     -74.84453     
    420000   303.50165      376.84183      18546.407      19357.495      276.0816     
    430000   315.00543      375.84269      18512.772      19339.321      65.880075    
    440000   282.43254      368.67844      18538.893      19311.673     -214.82201    
Loop time of 14.5743 on 48 procs for 50000 steps with 481 atoms

Performance: 14.821 ns/day, 1.619 hours/ns, 3430.700 timesteps/s, 1.650 Matom-step/s
100.0% CPU use with 48 MPI tasks x 1 OpenMP threads

MPI task timing breakdown:
Section |  min time  |  avg time  |  max time  |%varavg| %total
---------------------------------------------------------------
Pair    | 0.016087   | 0.72469    | 4.1151     | 123.7 |  4.97
Bond    | 0.0049971  | 0.91007    | 3.9203     | 125.4 |  6.24
Neigh   | 0.025439   | 0.027718   | 0.030204   |   0.8 |  0.19
Comm    | 5.7089     | 10.654     | 12.992     |  72.5 | 73.10
Output  | 0.0055574  | 0.010548   | 0.015526   |   3.1 |  0.07
Modify  | 0.59494    | 1.6719     | 6.5001     | 153.4 | 11.47
Other   |            | 0.5754     |            |       |  3.95

Nlocal:        10.0208 ave          38 max           0 min
Histogram: 20 6 7 5 2 0 0 2 4 2
Nghost:        1926.23 ave        2402 max        1336 min
Histogram: 8 0 0 0 24 0 0 0 0 16
Neighs:              0 ave           0 max           0 min
Histogram: 48 0 0 0 0 0 0 0 0 0

Total # of neighbors = 0
Ave neighs/atom = 0
Ave special neighs/atom = 15.567568
Neighbor list builds = 78
Dangerous builds = 0
unfix           myat1
next            cpt
jump            SELF loop
variable        zdes equal  -15+0.60*(${cpt}-1)
variable        zdes equal  -15+0.60*(8-1)
variable        zave equal xcm(H2,z)
fix             mytth2 H2 spring tether ${k1} 2.5 2.5 ${zdes} 0
fix             mytth2 H2 spring tether 5.5 2.5 2.5 ${zdes} 0
fix             mytth2 H2 spring tether 5.5 2.5 2.5 -10.8 0
run             10000
Generated 0 of 1 mixed pair_coeff terms from geometric mixing rule
Per MPI rank memory allocation (min/avg/max) = 13.32 | 13.84 | 14.98 Mbytes
   Step          Temp          E_pair         E_mol          TotEng         Press     
    440000   282.43254      368.67844      18538.893      19311.673     -214.82201    
    450000   292.06734      375.82771      18533.971      19327.686      58.876223    
Loop time of 2.90849 on 48 procs for 10000 steps with 481 atoms

Performance: 14.853 ns/day, 1.616 hours/ns, 3438.211 timesteps/s, 1.654 Matom-step/s
100.0% CPU use with 48 MPI tasks x 1 OpenMP threads

MPI task timing breakdown:
Section |  min time  |  avg time  |  max time  |%varavg| %total
---------------------------------------------------------------
Pair    | 0.0031954  | 0.14493    | 0.81477    |  55.7 |  4.98
Bond    | 0.00098983 | 0.18184    | 0.79634    |  56.3 |  6.25
Neigh   | 0.003963   | 0.0043108  | 0.0046968  |   0.3 |  0.15
Comm    | 1.1329     | 2.1352     | 2.6272     |  32.8 | 73.41
Output  | 0.0010984  | 0.0021758  | 0.0032449  |   1.5 |  0.07
Modify  | 0.11446    | 0.32516    | 1.3018     |  70.3 | 11.18
Other   |            | 0.1149     |            |       |  3.95

Nlocal:        10.0208 ave          45 max           0 min
Histogram: 20 6 10 4 0 0 3 3 1 1
Nghost:        1930.35 ave        2420 max        1328 min
Histogram: 8 0 0 0 24 0 0 0 0 16
Neighs:              0 ave           0 max           0 min
Histogram: 48 0 0 0 0 0 0 0 0 0

Total # of neighbors = 0
Ave neighs/atom = 0
Ave special neighs/atom = 15.567568
Neighbor list builds = 12
Dangerous builds = 0
fix             myat1 all ave/time 1000 10 10000 v_zave v_zdes file simulation_data/abpot/${cpt}.dat
fix             myat1 all ave/time 1000 10 10000 v_zave v_zdes file simulation_data/abpot/8.dat
run             50000
Generated 0 of 1 mixed pair_coeff terms from geometric mixing rule
Per MPI rank memory allocation (min/avg/max) = 13.32 | 13.84 | 14.98 Mbytes
   Step          Temp          E_pair         E_mol          TotEng         Press     
    450000   292.06734      375.82771      18533.971      19327.686      58.876223    
    460000   324.28585      373.65217      18529.002      19366.639     -66.352716    
    470000   302.62974      371.36586      18568.256      19372.621     -97.738822    
    480000   305.07498      369.23578      18534.035      19339.769     -121.28555    
    490000   312.72073      375.9992       18523.648      19347.085      91.310983    
    500000   276.79878      373.78686      18510.093      19279.921     -41.575381    
Loop time of 14.968 on 48 procs for 50000 steps with 481 atoms

Performance: 14.431 ns/day, 1.663 hours/ns, 3340.466 timesteps/s, 1.607 Matom-step/s
100.0% CPU use with 48 MPI tasks x 1 OpenMP threads

MPI task timing breakdown:
Section |  min time  |  avg time  |  max time  |%varavg| %total
---------------------------------------------------------------
Pair    | 0.015841   | 0.72538    | 3.9368     | 124.2 |  4.85
Bond    | 0.0049916  | 0.9092     | 4.0624     | 126.3 |  6.07
Neigh   | 0.028773   | 0.031652   | 0.034611   |   0.9 |  0.21
Comm    | 5.8201     | 11.002     | 13.397     |  74.6 | 73.50
Output  | 0.0057523  | 0.010751   | 0.015712   |   3.1 |  0.07
Modify  | 0.5927     | 1.7164     | 6.9692     | 163.8 | 11.47
Other   |            | 0.5728     |            |       |  3.83

Nlocal:        10.0208 ave          40 max           0 min
Histogram: 21 5 7 5 1 1 1 2 2 3
Nghost:        1934.35 ave        2415 max        1333 min
Histogram: 8 0 0 0 24 0 0 0 0 16
Neighs:              0 ave           0 max           0 min
Histogram: 48 0 0 0 0 0 0 0 0 0

Total # of neighbors = 0
Ave neighs/atom = 0
Ave special neighs/atom = 15.567568
Neighbor list builds = 92
Dangerous builds = 0
unfix           myat1
next            cpt
jump            SELF loop
variable        zdes equal  -15+0.60*(${cpt}-1)
variable        zdes equal  -15+0.60*(9-1)
variable        zave equal xcm(H2,z)
fix             mytth2 H2 spring tether ${k1} 2.5 2.5 ${zdes} 0
fix             mytth2 H2 spring tether 5.5 2.5 2.5 ${zdes} 0
fix             mytth2 H2 spring tether 5.5 2.5 2.5 -10.2 0
run             10000
Generated 0 of 1 mixed pair_coeff terms from geometric mixing rule
Per MPI rank memory allocation (min/avg/max) = 13.32 | 13.84 | 14.98 Mbytes
   Step          Temp          E_pair         E_mol          TotEng         Press     
    500000   276.79878      373.78686      18510.093      19279.921     -41.575381    
    510000   296.63591      371.74781      18516.631      19312.802     -178.23745    
Loop time of 2.94845 on 48 procs for 10000 steps with 481 atoms

Performance: 14.652 ns/day, 1.638 hours/ns, 3391.608 timesteps/s, 1.631 Matom-step/s
100.0% CPU use with 48 MPI tasks x 1 OpenMP threads

MPI task timing breakdown:
Section |  min time  |  avg time  |  max time  |%varavg| %total
---------------------------------------------------------------
Pair    | 0.0031778  | 0.14513    | 0.76025    |  55.2 |  4.92
Bond    | 0.00098763 | 0.18165    | 0.79781    |  56.5 |  6.16
Neigh   | 0.0056609  | 0.0062189  | 0.0067979  |   0.4 |  0.21
Comm    | 1.1555     | 2.1642     | 2.6633     |  33.1 | 73.40
Output  | 0.0011229  | 0.0021087  | 0.0031233  |   1.4 |  0.07
Modify  | 0.11827    | 0.33434    | 1.3593     |  71.9 | 11.34
Other   |            | 0.1148     |            |       |  3.89

Nlocal:        10.0208 ave          46 max           0 min
Histogram: 20 9 8 3 1 1 2 0 2 2
Nghost:        1927.85 ave        2417 max        1327 min
Histogram: 8 0 0 0 24 0 0 0 0 16
Neighs:              0 ave           0 max           0 min
Histogram: 48 0 0 0 0 0 0 0 0 0

Total # of neighbors = 0
Ave neighs/atom = 0
Ave special neighs/atom = 15.567568
Neighbor list builds = 18
Dangerous builds = 0
fix             myat1 all ave/time 1000 10 10000 v_zave v_zdes file simulation_data/abpot/${cpt}.dat
fix             myat1 all ave/time 1000 10 10000 v_zave v_zdes file simulation_data/abpot/9.dat
run             50000
Generated 0 of 1 mixed pair_coeff terms from geometric mixing rule
Per MPI rank memory allocation (min/avg/max) = 13.32 | 13.84 | 14.98 Mbytes
   Step          Temp          E_pair         E_mol          TotEng         Press     
    510000   296.63591      371.74781      18516.631      19312.802     -178.23745    
    520000   301.01412      375.05569      18532.359      19338.102      55.771356    
    530000   295.31492      373.81735      18541.999      19338.35      -157.17948    
    540000   296.04946      372.24007      18521.551      19317.375     -235.23805    
    550000   295.42652      383.25461      18548.542      19354.49       71.69438     
    560000   322.72643      369.53118      18544.964      19376.248     -120.74943    
Loop time of 15.1634 on 48 procs for 50000 steps with 481 atoms

Performance: 14.245 ns/day, 1.685 hours/ns, 3297.423 timesteps/s, 1.586 Matom-step/s
100.0% CPU use with 48 MPI tasks x 1 OpenMP threads

MPI task timing breakdown:
Section |  min time  |  avg time  |  max time  |%varavg| %total
---------------------------------------------------------------
Pair    | 0.015813   | 0.72582    | 3.9273     | 124.1 |  4.79
Bond    | 0.0050157  | 0.90963    | 4.0116     | 126.3 |  6.00
Neigh   | 0.026803   | 0.029377   | 0.032103   |   0.8 |  0.19
Comm    | 6.0376     | 11.163     | 13.625     |  74.8 | 73.62
Output  | 0.0056034  | 0.010616   | 0.015611   |   3.1 |  0.07
Modify  | 0.58243    | 1.7523     | 7.2181     | 166.5 | 11.56
Other   |            | 0.5722     |            |       |  3.77

Nlocal:        10.0208 ave          45 max           0 min
Histogram: 22 7 6 4 3 1 1 1 1 2
Nghost:        1927.98 ave        2405 max        1328 min
Histogram: 8 0 0 0 24 0 0 0 0 16
Neighs:              0 ave           0 max           0 min
Histogram: 48 0 0 0 0 0 0 0 0 0

Total # of neighbors = 0
Ave neighs/atom = 0
Ave special neighs/atom = 15.567568
Neighbor list builds = 83
Dangerous builds = 0
unfix           myat1
next            cpt
jump            SELF loop
variable        zdes equal  -15+0.60*(${cpt}-1)
variable        zdes equal  -15+0.60*(10-1)
variable        zave equal xcm(H2,z)
fix             mytth2 H2 spring tether ${k1} 2.5 2.5 ${zdes} 0
fix             mytth2 H2 spring tether 5.5 2.5 2.5 ${zdes} 0
fix             mytth2 H2 spring tether 5.5 2.5 2.5 -9.6 0
run             10000
Generated 0 of 1 mixed pair_coeff terms from geometric mixing rule
Per MPI rank memory allocation (min/avg/max) = 13.32 | 13.84 | 14.98 Mbytes
   Step          Temp          E_pair         E_mol          TotEng         Press     
    560000   322.72643      369.53118      18544.964      19376.248     -120.74943    
    570000   301.94518      369.72454      18559.942      19361.686     -334.41114    
Loop time of 3.11104 on 48 procs for 10000 steps with 481 atoms

Performance: 13.886 ns/day, 1.728 hours/ns, 3214.355 timesteps/s, 1.546 Matom-step/s
100.0% CPU use with 48 MPI tasks x 1 OpenMP threads

MPI task timing breakdown:
Section |  min time  |  avg time  |  max time  |%varavg| %total
---------------------------------------------------------------
Pair    | 0.0031701  | 0.14642    | 0.82365    |  55.9 |  4.71
Bond    | 0.00099561 | 0.18189    | 0.79368    |  56.4 |  5.85
Neigh   | 0.0081177  | 0.008881   | 0.0096608  |   0.4 |  0.29
Comm    | 1.231      | 2.2956     | 2.8248     |  34.1 | 73.79
Output  | 0.0011714  | 0.0022187  | 0.003262   |   1.4 |  0.07
Modify  | 0.11821    | 0.36054    | 1.4874     |  77.2 | 11.59
Other   |            | 0.1155     |            |       |  3.71

Nlocal:        10.0208 ave          44 max           0 min
Histogram: 21 6 9 4 0 2 1 2 1 2
Nghost:        1927.62 ave        2404 max        1329 min
Histogram: 8 0 0 0 24 0 0 0 0 16
Neighs:              0 ave           0 max           0 min
Histogram: 48 0 0 0 0 0 0 0 0 0

Total # of neighbors = 0
Ave neighs/atom = 0
Ave special neighs/atom = 15.567568
Neighbor list builds = 24
Dangerous builds = 0
fix             myat1 all ave/time 1000 10 10000 v_zave v_zdes file simulation_data/abpot/${cpt}.dat
fix             myat1 all ave/time 1000 10 10000 v_zave v_zdes file simulation_data/abpot/10.dat
run             50000
Generated 0 of 1 mixed pair_coeff terms from geometric mixing rule
Per MPI rank memory allocation (min/avg/max) = 13.32 | 13.84 | 14.98 Mbytes
   Step          Temp          E_pair         E_mol          TotEng         Press     
    570000   301.94518      369.72454      18559.942      19361.686     -334.41114    
    580000   300.60231      382.80162      18531.278      19344.178     -114.7232     
    590000   293.5518       378.58136      18531.557      19330.149     -65.429463    
    600000   316.63788      379.16379      18524.124      19356.329     -48.818048    
    610000   304.89808      370.29282      18564.605      19371.143     -169.38744    
    620000   319.57058      380.22988      18544.911      19382.379      48.687321    
Loop time of 15.4671 on 48 procs for 50000 steps with 481 atoms

Performance: 13.965 ns/day, 1.719 hours/ns, 3232.672 timesteps/s, 1.555 Matom-step/s
100.0% CPU use with 48 MPI tasks x 1 OpenMP threads

MPI task timing breakdown:
Section |  min time  |  avg time  |  max time  |%varavg| %total
---------------------------------------------------------------
Pair    | 0.015963   | 0.72941    | 3.9665     | 124.4 |  4.72
Bond    | 0.0049987  | 0.90989    | 4.1706     | 126.8 |  5.88
Neigh   | 0.03623    | 0.039602   | 0.043279   |   0.9 |  0.26
Comm    | 6.0409     | 11.409     | 13.933     |  76.6 | 73.76
Output  | 0.005708   | 0.010757   | 0.015782   |   3.1 |  0.07
Modify  | 0.58237    | 1.7949     | 7.4376     | 173.5 | 11.60
Other   |            | 0.5737     |            |       |  3.71

Nlocal:        10.0208 ave          50 max           0 min
Histogram: 20 10 9 1 1 1 3 2 0 1
Nghost:        1934.23 ave        2422 max        1323 min
Histogram: 8 0 0 0 24 0 0 0 0 16
Neighs:              0 ave           0 max           0 min
Histogram: 48 0 0 0 0 0 0 0 0 0

Total # of neighbors = 0
Ave neighs/atom = 0
Ave special neighs/atom = 15.567568
Neighbor list builds = 109
Dangerous builds = 0
unfix           myat1
next            cpt
jump            SELF loop
variable        zdes equal  -15+0.60*(${cpt}-1)
variable        zdes equal  -15+0.60*(11-1)
variable        zave equal xcm(H2,z)
fix             mytth2 H2 spring tether ${k1} 2.5 2.5 ${zdes} 0
fix             mytth2 H2 spring tether 5.5 2.5 2.5 ${zdes} 0
fix             mytth2 H2 spring tether 5.5 2.5 2.5 -9 0
run             10000
Generated 0 of 1 mixed pair_coeff terms from geometric mixing rule
Per MPI rank memory allocation (min/avg/max) = 13.32 | 13.84 | 14.98 Mbytes
   Step          Temp          E_pair         E_mol          TotEng         Press     
    620000   319.57058      380.22988      18544.911      19382.379      48.687321    
    630000   307.42136      388.7432       18524.497      19353.095      130.15624    
Loop time of 3.07727 on 48 procs for 10000 steps with 481 atoms

Performance: 14.038 ns/day, 1.710 hours/ns, 3249.630 timesteps/s, 1.563 Matom-step/s
100.0% CPU use with 48 MPI tasks x 1 OpenMP threads

MPI task timing breakdown:
Section |  min time  |  avg time  |  max time  |%varavg| %total
---------------------------------------------------------------
Pair    | 0.0032351  | 0.14711    | 0.79039    |  55.5 |  4.78
Bond    | 0.0009969  | 0.18239    | 0.74639    |  56.1 |  5.93
Neigh   | 0.0084934  | 0.0093632  | 0.010279   |   0.5 |  0.30
Comm    | 1.29       | 2.2683     | 2.8023     |  34.1 | 73.71
Output  | 0.0011444  | 0.0021679  | 0.0031993  |   1.4 |  0.07
Modify  | 0.11566    | 0.35344    | 1.4612     |  77.4 | 11.49
Other   |            | 0.1145     |            |       |  3.72

Nlocal:        10.0208 ave          45 max           0 min
Histogram: 20 7 10 3 0 3 0 1 3 1
Nghost:        1932.73 ave        2420 max        1328 min
Histogram: 8 0 0 0 24 0 0 0 0 16
Neighs:              0 ave           0 max           0 min
Histogram: 48 0 0 0 0 0 0 0 0 0

Total # of neighbors = 0
Ave neighs/atom = 0
Ave special neighs/atom = 15.567568
Neighbor list builds = 27
Dangerous builds = 0
fix             myat1 all ave/time 1000 10 10000 v_zave v_zdes file simulation_data/abpot/${cpt}.dat
fix             myat1 all ave/time 1000 10 10000 v_zave v_zdes file simulation_data/abpot/11.dat
run             50000
Generated 0 of 1 mixed pair_coeff terms from geometric mixing rule
Per MPI rank memory allocation (min/avg/max) = 13.32 | 13.84 | 14.98 Mbytes
   Step          Temp          E_pair         E_mol          TotEng         Press     
    630000   307.42136      388.7432       18524.497      19353.095      130.15624    
    640000   290.24848      388.8203       18534.256      19338.361     -167.90497    
    650000   294.58365      387.11992      18564.767      19373.373     -153.15964    
    660000   312.81944      392.58919      18552.153      19392.321     -62.195118    
    670000   307.53328      398.34945      18529.364      19367.729      258.66917    
    680000   289.51383      384.27492      18530.77       19329.278     -94.021284    
Loop time of 15.5893 on 48 procs for 50000 steps with 481 atoms

Performance: 13.856 ns/day, 1.732 hours/ns, 3207.335 timesteps/s, 1.543 Matom-step/s
100.0% CPU use with 48 MPI tasks x 1 OpenMP threads

MPI task timing breakdown:
Section |  min time  |  avg time  |  max time  |%varavg| %total
---------------------------------------------------------------
Pair    | 0.015942   | 0.73452    | 4.0245     | 125.1 |  4.71
Bond    | 0.0049775  | 0.91007    | 3.939      | 125.8 |  5.84
Neigh   | 0.039818   | 0.043922   | 0.048462   |   1.1 |  0.28
Comm    | 6.3458     | 11.515     | 14.167     |  77.3 | 73.86
Output  | 0.0059016  | 0.010989   | 0.016072   |   3.1 |  0.07
Modify  | 0.5828     | 1.8032     | 7.4335     | 176.8 | 11.57
Other   |            | 0.5718     |            |       |  3.67

Nlocal:        10.0208 ave          45 max           0 min
Histogram: 22 8 5 3 3 2 0 1 3 1
Nghost:        1927.85 ave        2406 max        1328 min
Histogram: 8 0 0 0 24 0 0 0 0 16
Neighs:              0 ave           0 max           0 min
Histogram: 48 0 0 0 0 0 0 0 0 0

Total # of neighbors = 0
Ave neighs/atom = 0
Ave special neighs/atom = 15.567568
Neighbor list builds = 126
Dangerous builds = 0
unfix           myat1
next            cpt
jump            SELF loop
variable        zdes equal  -15+0.60*(${cpt}-1)
variable        zdes equal  -15+0.60*(12-1)
variable        zave equal xcm(H2,z)
fix             mytth2 H2 spring tether ${k1} 2.5 2.5 ${zdes} 0
fix             mytth2 H2 spring tether 5.5 2.5 2.5 ${zdes} 0
fix             mytth2 H2 spring tether 5.5 2.5 2.5 -8.4 0
run             10000
Generated 0 of 1 mixed pair_coeff terms from geometric mixing rule
Per MPI rank memory allocation (min/avg/max) = 13.32 | 13.85 | 14.98 Mbytes
   Step          Temp          E_pair         E_mol          TotEng         Press     
    680000   289.51383      384.27492      18530.77       19329.278     -94.021284    
    690000   300.34401      393.12944      18523.421      19346.28       95.960232    
Loop time of 3.03557 on 48 procs for 10000 steps with 481 atoms

Performance: 14.231 ns/day, 1.686 hours/ns, 3294.276 timesteps/s, 1.585 Matom-step/s
100.0% CPU use with 48 MPI tasks x 1 OpenMP threads

MPI task timing breakdown:
Section |  min time  |  avg time  |  max time  |%varavg| %total
---------------------------------------------------------------
Pair    | 0.0032383  | 0.14689    | 0.80636    |  55.9 |  4.84
Bond    | 0.00099659 | 0.1821     | 0.7494     |  56.0 |  6.00
Neigh   | 0.01307    | 0.01432    | 0.0156     |   0.6 |  0.47
Comm    | 1.224      | 2.2278     | 2.7506     |  33.8 | 73.39
Output  | 0.001123   | 0.0021368  | 0.0031659  |   1.4 |  0.07
Modify  | 0.11902    | 0.34828    | 1.4134     |  75.4 | 11.47
Other   |            | 0.114      |            |       |  3.76

Nlocal:        10.0208 ave          44 max           0 min
Histogram: 22 6 8 2 4 1 0 0 2 3
Nghost:        1926.98 ave        2406 max        1329 min
Histogram: 8 0 0 0 24 0 0 0 0 16
Neighs:              0 ave           0 max           0 min
Histogram: 48 0 0 0 0 0 0 0 0 0

Total # of neighbors = 0
Ave neighs/atom = 0
Ave special neighs/atom = 15.567568
Neighbor list builds = 41
Dangerous builds = 0
fix             myat1 all ave/time 1000 10 10000 v_zave v_zdes file simulation_data/abpot/${cpt}.dat
fix             myat1 all ave/time 1000 10 10000 v_zave v_zdes file simulation_data/abpot/12.dat
run             50000
Generated 0 of 1 mixed pair_coeff terms from geometric mixing rule
Per MPI rank memory allocation (min/avg/max) = 13.32 | 13.85 | 14.98 Mbytes
   Step          Temp          E_pair         E_mol          TotEng         Press     
    690000   300.34401      393.12944      18523.421      19346.28       95.960232    
    700000   306.02654      392.28103      18536.009      19366.149     -61.588698    
    710000   319.88301      389.22174      18539.044      19385.95      -72.713138    
    720000   310.86902      382.87296      18542.132      19369.793     -54.682524    
    730000   301.30381      390.83063      18541.014      19362.947     -141.72743    
    740000   300.09514      395.11585      18520.563      19345.051      26.748781    
Loop time of 15.4616 on 48 procs for 50000 steps with 481 atoms

Performance: 13.970 ns/day, 1.718 hours/ns, 3233.824 timesteps/s, 1.555 Matom-step/s
100.0% CPU use with 48 MPI tasks x 1 OpenMP threads

MPI task timing breakdown:
Section |  min time  |  avg time  |  max time  |%varavg| %total
---------------------------------------------------------------
Pair    | 0.016196   | 0.73583    | 4.0816     | 126.0 |  4.76
Bond    | 0.0049564  | 0.91082    | 3.7683     | 125.3 |  5.89
Neigh   | 0.064567   | 0.070492   | 0.076622   |   1.2 |  0.46
Comm    | 6.3351     | 11.353     | 13.942     |  77.1 | 73.43
Output  | 0.0057187  | 0.010859   | 0.015915   |   3.1 |  0.07
Modify  | 0.5959     | 1.8105     | 7.3773     | 173.9 | 11.71
Other   |            | 0.5703     |            |       |  3.69

Nlocal:        10.0208 ave          43 max           0 min
Histogram: 21 5 10 3 1 2 2 0 2 2
Nghost:         1922.6 ave        2402 max        1336 min
Histogram: 8 0 0 0 24 0 0 0 0 16
Neighs:              0 ave           0 max           0 min
Histogram: 48 0 0 0 0 0 0 0 0 0

Total # of neighbors = 0
Ave neighs/atom = 0
Ave special neighs/atom = 15.567568
Neighbor list builds = 196
Dangerous builds = 0
unfix           myat1
next            cpt
jump            SELF loop
variable        zdes equal  -15+0.60*(${cpt}-1)
variable        zdes equal  -15+0.60*(13-1)
variable        zave equal xcm(H2,z)
fix             mytth2 H2 spring tether ${k1} 2.5 2.5 ${zdes} 0
fix             mytth2 H2 spring tether 5.5 2.5 2.5 ${zdes} 0
fix             mytth2 H2 spring tether 5.5 2.5 2.5 -7.8 0
run             10000
Generated 0 of 1 mixed pair_coeff terms from geometric mixing rule
Per MPI rank memory allocation (min/avg/max) = 13.32 | 13.85 | 14.98 Mbytes
   Step          Temp          E_pair         E_mol          TotEng         Press     
    740000   300.09514      395.11585      18520.563      19345.051      26.748781    
    750000   302.96839      386.38924      18502.893      19322.766     -67.372433    
Loop time of 3.1305 on 48 procs for 10000 steps with 481 atoms

Performance: 13.800 ns/day, 1.739 hours/ns, 3194.375 timesteps/s, 1.536 Matom-step/s
100.0% CPU use with 48 MPI tasks x 1 OpenMP threads

MPI task timing breakdown:
Section |  min time  |  avg time  |  max time  |%varavg| %total
---------------------------------------------------------------
Pair    | 0.0031699  | 0.14719    | 0.83257    |  56.7 |  4.70
Bond    | 0.00099125 | 0.18199    | 0.77032    |  56.2 |  5.81
Neigh   | 0.0096143  | 0.010438   | 0.011411   |   0.5 |  0.33
Comm    | 1.2635     | 2.3093     | 2.8498     |  34.8 | 73.77
Output  | 0.0011591  | 0.0021735  | 0.0032061  |   1.4 |  0.07
Modify  | 0.11865    | 0.3646     | 1.5143     |  79.0 | 11.65
Other   |            | 0.1148     |            |       |  3.67

Nlocal:        10.0208 ave          41 max           0 min
Histogram: 21 7 6 5 1 1 1 2 1 3
Nghost:         1927.6 ave        2403 max        1332 min
Histogram: 8 0 0 0 24 0 0 0 0 16
Neighs:              0 ave           0 max           0 min
Histogram: 48 0 0 0 0 0 0 0 0 0

Total # of neighbors = 0
Ave neighs/atom = 0
Ave special neighs/atom = 15.567568
Neighbor list builds = 29
Dangerous builds = 0
fix             myat1 all ave/time 1000 10 10000 v_zave v_zdes file simulation_data/abpot/${cpt}.dat
fix             myat1 all ave/time 1000 10 10000 v_zave v_zdes file simulation_data/abpot/13.dat
run             50000
Generated 0 of 1 mixed pair_coeff terms from geometric mixing rule
Per MPI rank memory allocation (min/avg/max) = 13.32 | 13.86 | 14.98 Mbytes
   Step          Temp          E_pair         E_mol          TotEng         Press     
    750000   302.96839      386.38924      18502.893      19322.766     -67.372433    
    760000   299.19292      399.99806      18558.941      19387.021      72.222194    
    770000   308.36918      391.93485      18550.678      19383.824     -116.78176    
    780000   295.4676       390.64387      18509.492      19322.887      59.221534    
    790000   304.63747      386.39476      18532.572      19354.839     -144.89422    
    800000   299.54338      396.01948      18551.245      19375.848      22.292478    
Loop time of 15.4716 on 48 procs for 50000 steps with 481 atoms

Performance: 13.961 ns/day, 1.719 hours/ns, 3231.730 timesteps/s, 1.554 Matom-step/s
100.0% CPU use with 48 MPI tasks x 1 OpenMP threads

MPI task timing breakdown:
Section |  min time  |  avg time  |  max time  |%varavg| %total
---------------------------------------------------------------
Pair    | 0.015942   | 0.73715    | 4.0698     | 125.9 |  4.76
Bond    | 0.0049795  | 0.91119    | 3.7381     | 125.4 |  5.89
Neigh   | 0.04697    | 0.051101   | 0.055361   |   1.0 |  0.33
Comm    | 6.3288     | 11.378     | 13.896     |  75.5 | 73.54
Output  | 0.0057716  | 0.010866   | 0.015945   |   3.1 |  0.07
Modify  | 0.59178    | 1.8113     | 7.1475     | 169.3 | 11.71
Other   |            | 0.5717     |            |       |  3.70

Nlocal:        10.0208 ave          41 max           0 min
Histogram: 22 6 6 6 0 0 3 1 1 3
Nghost:        1926.98 ave        2405 max        1332 min
Histogram: 8 0 0 0 24 0 0 0 0 16
Neighs:              0 ave           0 max           0 min
Histogram: 48 0 0 0 0 0 0 0 0 0

Total # of neighbors = 0
Ave neighs/atom = 0
Ave special neighs/atom = 15.567568
Neighbor list builds = 139
Dangerous builds = 0
unfix           myat1
next            cpt
jump            SELF loop
variable        zdes equal  -15+0.60*(${cpt}-1)
variable        zdes equal  -15+0.60*(14-1)
variable        zave equal xcm(H2,z)
fix             mytth2 H2 spring tether ${k1} 2.5 2.5 ${zdes} 0
fix             mytth2 H2 spring tether 5.5 2.5 2.5 ${zdes} 0
fix             mytth2 H2 spring tether 5.5 2.5 2.5 -7.2 0
run             10000
Generated 0 of 1 mixed pair_coeff terms from geometric mixing rule
Per MPI rank memory allocation (min/avg/max) = 13.32 | 13.87 | 14.98 Mbytes
   Step          Temp          E_pair         E_mol          TotEng         Press     
    800000   299.54338      396.01948      18551.245      19375.848      22.292478    
    810000   300.21646      387.21564      18520.562      19337.324     -75.411173    
Loop time of 3.15059 on 48 procs for 10000 steps with 481 atoms

Performance: 13.712 ns/day, 1.750 hours/ns, 3174.012 timesteps/s, 1.527 Matom-step/s
100.0% CPU use with 48 MPI tasks x 1 OpenMP threads

MPI task timing breakdown:
Section |  min time  |  avg time  |  max time  |%varavg| %total
---------------------------------------------------------------
Pair    | 0.0031766  | 0.14745    | 0.85785    |  56.8 |  4.68
Bond    | 0.0010117  | 0.1823     | 0.82761    |  56.5 |  5.79
Neigh   | 0.010193   | 0.011109   | 0.012133   |   0.5 |  0.35
Comm    | 1.2065     | 2.3294     | 2.8698     |  34.9 | 73.94
Output  | 0.0011868  | 0.0022001  | 0.0032549  |   1.4 |  0.07
Modify  | 0.11915    | 0.36413    | 1.5235     |  79.8 | 11.56
Other   |            | 0.114      |            |       |  3.62

Nlocal:        10.0208 ave          41 max           0 min
Histogram: 20 9 4 7 0 0 3 1 0 4
Nghost:        1933.73 ave        2416 max        1332 min
Histogram: 8 0 0 0 24 0 0 0 0 16
Neighs:              0 ave           0 max           0 min
Histogram: 48 0 0 0 0 0 0 0 0 0

Total # of neighbors = 0
Ave neighs/atom = 0
Ave special neighs/atom = 15.567568
Neighbor list builds = 31
Dangerous builds = 0
fix             myat1 all ave/time 1000 10 10000 v_zave v_zdes file simulation_data/abpot/${cpt}.dat
fix             myat1 all ave/time 1000 10 10000 v_zave v_zdes file simulation_data/abpot/14.dat
run             50000
Generated 0 of 1 mixed pair_coeff terms from geometric mixing rule
Per MPI rank memory allocation (min/avg/max) = 13.32 | 13.87 | 14.98 Mbytes
   Step          Temp          E_pair         E_mol          TotEng         Press     
    810000   300.21646      387.21564      18520.562      19337.324     -75.411173    
    820000   305.93566      382.16403      18516.24       19336.133     -125.28217    
    830000   295.72398      401.50912      18509.466      19334.094      104.59155    
    840000   299.95374      389.87305      18536.462      19355.505     -85.744888    
    850000   305.3795       390.58226      18551.206      19378.722     -147.0291     
    860000   314.42073      391.34071      18510.382      19351.593     -31.56975     
Loop time of 15.4863 on 48 procs for 50000 steps with 481 atoms

Performance: 13.948 ns/day, 1.721 hours/ns, 3228.665 timesteps/s, 1.553 Matom-step/s
100.0% CPU use with 48 MPI tasks x 1 OpenMP threads

MPI task timing breakdown:
Section |  min time  |  avg time  |  max time  |%varavg| %total
---------------------------------------------------------------
Pair    | 0.016399   | 0.73661    | 4.1915     | 126.8 |  4.76
Bond    | 0.0050147  | 0.91153    | 3.9404     | 126.0 |  5.89
Neigh   | 0.057539   | 0.062717   | 0.068234   |   1.1 |  0.40
Comm    | 6.0324     | 11.416     | 13.977     |  76.1 | 73.72
Output  | 0.0058092  | 0.010882   | 0.015944   |   3.1 |  0.07
Modify  | 0.59694    | 1.7775     | 7.2381     | 170.4 | 11.48
Other   |            | 0.5708     |            |       |  3.69

Nlocal:        10.0208 ave          48 max           0 min
Histogram: 21 10 4 5 1 1 3 1 1 1
Nghost:         1934.1 ave        2418 max        1325 min
Histogram: 8 0 0 0 24 0 0 0 0 16
Neighs:              0 ave           0 max           0 min
Histogram: 48 0 0 0 0 0 0 0 0 0

Total # of neighbors = 0
Ave neighs/atom = 0
Ave special neighs/atom = 15.567568
Neighbor list builds = 175
Dangerous builds = 0
unfix           myat1
next            cpt
jump            SELF loop
variable        zdes equal  -15+0.60*(${cpt}-1)
variable        zdes equal  -15+0.60*(15-1)
variable        zave equal xcm(H2,z)
fix             mytth2 H2 spring tether ${k1} 2.5 2.5 ${zdes} 0
fix             mytth2 H2 spring tether 5.5 2.5 2.5 ${zdes} 0
fix             mytth2 H2 spring tether 5.5 2.5 2.5 -6.6 0
run             10000
Generated 0 of 1 mixed pair_coeff terms from geometric mixing rule
Per MPI rank memory allocation (min/avg/max) = 13.32 | 13.87 | 14.98 Mbytes
   Step          Temp          E_pair         E_mol          TotEng         Press     
    860000   314.42073      391.34071      18510.382      19351.593     -31.56975     
    870000   316.94765      395.49705      18480.254      19329.236      121.41461    
Loop time of 3.19538 on 48 procs for 10000 steps with 481 atoms

Performance: 13.520 ns/day, 1.775 hours/ns, 3129.520 timesteps/s, 1.505 Matom-step/s
100.0% CPU use with 48 MPI tasks x 1 OpenMP threads

MPI task timing breakdown:
Section |  min time  |  avg time  |  max time  |%varavg| %total
---------------------------------------------------------------
Pair    | 0.0031984  | 0.14726    | 0.8448     |  57.6 |  4.61
Bond    | 0.0010038  | 0.1823     | 0.80139    |  56.7 |  5.71
Neigh   | 0.0074751  | 0.0081161  | 0.0087529  |   0.4 |  0.25
Comm    | 1.2949     | 2.3667     | 2.9158     |  35.9 | 74.07
Output  | 0.0011138  | 0.002144   | 0.0032009  |   1.4 |  0.07
Modify  | 0.1155     | 0.3748     | 1.5799     |  82.9 | 11.73
Other   |            | 0.114      |            |       |  3.57

Nlocal:        10.0208 ave          45 max           0 min
Histogram: 23 6 6 2 3 0 4 2 1 1
Nghost:        1928.48 ave        2415 max        1328 min
Histogram: 8 0 0 0 24 0 0 0 0 16
Neighs:              0 ave           0 max           0 min
Histogram: 48 0 0 0 0 0 0 0 0 0

Total # of neighbors = 0
Ave neighs/atom = 0
Ave special neighs/atom = 15.567568
Neighbor list builds = 22
Dangerous builds = 0
fix             myat1 all ave/time 1000 10 10000 v_zave v_zdes file simulation_data/abpot/${cpt}.dat
fix             myat1 all ave/time 1000 10 10000 v_zave v_zdes file simulation_data/abpot/15.dat
run             50000
Generated 0 of 1 mixed pair_coeff terms from geometric mixing rule
Per MPI rank memory allocation (min/avg/max) = 13.32 | 13.87 | 14.98 Mbytes
   Step          Temp          E_pair         E_mol          TotEng         Press     
    870000   316.94765      395.49705      18480.254      19329.236      121.41461    
    880000   297.10076      393.32368      18501.576      19319.988     -48.865448    
    890000   293.29615      381.94379      18512.317      19313.906     -210.48248    
    900000   309.04374      389.3799       18537.965      19369.522     -270.68485    
    910000   316.65705      393.33208      18495.433      19341.834      26.09862     
    920000   294.67412      392.48908      18529.643      19343.748     -17.603722    
Loop time of 15.6766 on 48 procs for 50000 steps with 481 atoms

Performance: 13.778 ns/day, 1.742 hours/ns, 3189.460 timesteps/s, 1.534 Matom-step/s
100.0% CPU use with 48 MPI tasks x 1 OpenMP threads

MPI task timing breakdown:
Section |  min time  |  avg time  |  max time  |%varavg| %total
---------------------------------------------------------------
Pair    | 0.016373   | 0.73564    | 4.1553     | 126.3 |  4.69
Bond    | 0.0049791  | 0.90966    | 3.7208     | 125.3 |  5.80
Neigh   | 0.040445   | 0.044074   | 0.047901   |   1.0 |  0.28
Comm    | 6.4947     | 11.552     | 14.124     |  78.1 | 73.69
Output  | 0.0058225  | 0.010913   | 0.016006   |   3.1 |  0.07
Modify  | 0.59156    | 1.8523     | 7.6849     | 178.5 | 11.82
Other   |            | 0.5717     |            |       |  3.65

Nlocal:        10.0208 ave          47 max           0 min
Histogram: 23 7 5 5 1 1 2 2 1 1
Nghost:        1926.73 ave        2405 max        1326 min
Histogram: 8 0 0 0 24 0 0 0 0 16
Neighs:              0 ave           0 max           0 min
Histogram: 48 0 0 0 0 0 0 0 0 0

Total # of neighbors = 0
Ave neighs/atom = 0
Ave special neighs/atom = 15.567568
Neighbor list builds = 120
Dangerous builds = 0
unfix           myat1
next            cpt
jump            SELF loop
variable        zdes equal  -15+0.60*(${cpt}-1)
variable        zdes equal  -15+0.60*(16-1)
variable        zave equal xcm(H2,z)
fix             mytth2 H2 spring tether ${k1} 2.5 2.5 ${zdes} 0
fix             mytth2 H2 spring tether 5.5 2.5 2.5 ${zdes} 0
fix             mytth2 H2 spring tether 5.5 2.5 2.5 -6 0
run             10000
Generated 0 of 1 mixed pair_coeff terms from geometric mixing rule
Per MPI rank memory allocation (min/avg/max) = 13.32 | 13.87 | 14.98 Mbytes
   Step          Temp          E_pair         E_mol          TotEng         Press     
    920000   294.67412      392.48908      18529.643      19343.748     -17.603722    
    930000   296.97137      381.97596      18540.882      19347.761     -356.38351    
Loop time of 3.08214 on 48 procs for 10000 steps with 481 atoms

Performance: 14.016 ns/day, 1.712 hours/ns, 3244.501 timesteps/s, 1.561 Matom-step/s
100.0% CPU use with 48 MPI tasks x 1 OpenMP threads

MPI task timing breakdown:
Section |  min time  |  avg time  |  max time  |%varavg| %total
---------------------------------------------------------------
Pair    | 0.0032423  | 0.14729    | 0.82838    |  56.6 |  4.78
Bond    | 0.00098333 | 0.18189    | 0.77332    |  56.1 |  5.90
Neigh   | 0.0073038  | 0.0079979  | 0.0087157  |   0.4 |  0.26
Comm    | 1.2873     | 2.27       | 2.7956     |  34.1 | 73.65
Output  | 0.0011923  | 0.0022322  | 0.0032754  |   1.4 |  0.07
Modify  | 0.11916    | 0.35756    | 1.4323     |  76.4 | 11.60
Other   |            | 0.1152     |            |       |  3.74

Nlocal:        10.0208 ave          56 max           0 min
Histogram: 22 11 6 2 2 0 4 0 0 1
Nghost:         1930.1 ave        2411 max        1317 min
Histogram: 8 0 0 0 24 0 0 0 0 16
Neighs:              0 ave           0 max           0 min
Histogram: 48 0 0 0 0 0 0 0 0 0

Total # of neighbors = 0
Ave neighs/atom = 0
Ave special neighs/atom = 15.567568
Neighbor list builds = 22
Dangerous builds = 0
fix             myat1 all ave/time 1000 10 10000 v_zave v_zdes file simulation_data/abpot/${cpt}.dat
fix             myat1 all ave/time 1000 10 10000 v_zave v_zdes file simulation_data/abpot/16.dat
run             50000
Generated 0 of 1 mixed pair_coeff terms from geometric mixing rule
Per MPI rank memory allocation (min/avg/max) = 13.32 | 13.87 | 14.98 Mbytes
   Step          Temp          E_pair         E_mol          TotEng         Press     
    930000   296.97137      381.97596      18540.882      19347.761     -356.38351    
    940000   294.49548      393.5477       18541.213      19356.122     -99.423329    
    950000   312.73704      390.41958      18539.255      19377.135     -174.20085    
    960000   290.83523      391.24284      18545.879      19353.245     -158.7609     
    970000   302.75759      394.44731      18526.092      19353.722      121.26772    
    980000   311.64339      378.7138       18553.08       19377.69      -490.84212    
Loop time of 15.2526 on 48 procs for 50000 steps with 481 atoms

Performance: 14.161 ns/day, 1.695 hours/ns, 3278.124 timesteps/s, 1.577 Matom-step/s
100.0% CPU use with 48 MPI tasks x 1 OpenMP threads

MPI task timing breakdown:
Section |  min time  |  avg time  |  max time  |%varavg| %total
---------------------------------------------------------------
Pair    | 0.016276   | 0.73684    | 4.0452     | 125.7 |  4.83
Bond    | 0.0049624  | 0.90939    | 3.8755     | 125.3 |  5.96
Neigh   | 0.031303   | 0.03419    | 0.037175   |   0.8 |  0.22
Comm    | 6.3438     | 11.246     | 13.827     |  75.2 | 73.73
Output  | 0.0057941  | 0.010951   | 0.01606    |   3.2 |  0.07
Modify  | 0.58848    | 1.7418     | 7.0102     | 168.1 | 11.42
Other   |            | 0.5732     |            |       |  3.76

Nlocal:        10.0208 ave          42 max           0 min
Histogram: 20 9 3 7 1 0 2 2 2 2
Nghost:        1933.35 ave        2417 max        1331 min
Histogram: 8 0 0 0 24 0 0 0 0 16
Neighs:              0 ave           0 max           0 min
Histogram: 48 0 0 0 0 0 0 0 0 0

Total # of neighbors = 0
Ave neighs/atom = 0
Ave special neighs/atom = 15.567568
Neighbor list builds = 96
Dangerous builds = 0
unfix           myat1
next            cpt
jump            SELF loop
variable        zdes equal  -15+0.60*(${cpt}-1)
variable        zdes equal  -15+0.60*(17-1)
variable        zave equal xcm(H2,z)
fix             mytth2 H2 spring tether ${k1} 2.5 2.5 ${zdes} 0
fix             mytth2 H2 spring tether 5.5 2.5 2.5 ${zdes} 0
fix             mytth2 H2 spring tether 5.5 2.5 2.5 -5.4 0
run             10000
Generated 0 of 1 mixed pair_coeff terms from geometric mixing rule
Per MPI rank memory allocation (min/avg/max) = 13.32 | 13.87 | 14.98 Mbytes
   Step          Temp          E_pair         E_mol          TotEng         Press     
    980000   311.64339      378.7138       18553.08       19377.69      -490.84212    
    990000   293.38102      387.34496      18521.885      19328.996     -223.0737     
Loop time of 3.15611 on 48 procs for 10000 steps with 481 atoms

Performance: 13.688 ns/day, 1.753 hours/ns, 3168.461 timesteps/s, 1.524 Matom-step/s
100.0% CPU use with 48 MPI tasks x 1 OpenMP threads

MPI task timing breakdown:
Section |  min time  |  avg time  |  max time  |%varavg| %total
---------------------------------------------------------------
Pair    | 0.0032082  | 0.14786    | 0.8286     |  56.5 |  4.68
Bond    | 0.0010048  | 0.18248    | 0.83014    |  56.5 |  5.78
Neigh   | 0.0098538  | 0.01068    | 0.011571   |   0.4 |  0.34
Comm    | 1.2599     | 2.3429     | 2.8644     |  33.9 | 74.23
Output  | 0.0011668  | 0.0021854  | 0.0032246  |   1.4 |  0.07
Modify  | 0.11912    | 0.35508    | 1.4819     |  77.0 | 11.25
Other   |            | 0.1149     |            |       |  3.64

Nlocal:        10.0208 ave          44 max           0 min
Histogram: 20 8 8 4 0 1 2 2 1 2
Nghost:        1932.73 ave        2416 max        1332 min
Histogram: 8 0 0 0 24 0 0 0 0 16
Neighs:              0 ave           0 max           0 min
Histogram: 48 0 0 0 0 0 0 0 0 0

Total # of neighbors = 0
Ave neighs/atom = 0
Ave special neighs/atom = 15.567568
[...]
Section |  min time  |  avg time  |  max time  |%varavg| %total
---------------------------------------------------------------
Pair    | 0.0032124  | 0.14408    | 0.78791    |  53.7 |  4.98
Bond    | 0.0010154  | 0.18139    | 0.79131    |  56.1 |  6.27
Neigh   | 0.0027011  | 0.0031123  | 0.0034455  |   0.3 |  0.11
Comm    | 1.1438     | 2.1236     | 2.6128     |  31.4 | 73.42
Output  | 0.0011164  | 0.00212    | 0.0031472  |   1.4 |  0.07
Modify  | 0.11017    | 0.32363    | 1.2422     |  66.0 | 11.19
Other   |            | 0.1145     |            |       |  3.96

Nlocal:        10.0208 ave          42 max           0 min
Histogram: 23 5 7 4 1 1 2 1 1 3
Nghost:        1931.73 ave        2412 max        1332 min
Histogram: 8 0 0 0 24 0 0 0 0 16
Neighs:              0 ave           0 max           0 min
Histogram: 48 0 0 0 0 0 0 0 0 0

Total # of neighbors = 0
Ave neighs/atom = 0
Ave special neighs/atom = 15.567568
Neighbor list builds = 9
Dangerous builds = 0
fix             myat1 all ave/time 1000 10 10000 v_zave v_zdes file simulation_data/abpot/${cpt}.dat
fix             myat1 all ave/time 1000 10 10000 v_zave v_zdes file simulation_data/abpot/47.dat
run             50000
Generated 0 of 1 mixed pair_coeff terms from geometric mixing rule
Per MPI rank memory allocation (min/avg/max) = 13.32 | 13.88 | 14.98 Mbytes
   Step          Temp          E_pair         E_mol          TotEng         Press     
   2790000   318.85513      371.85025      18515.938      19344.002      35.93885     
   2800000   306.85146      373.05465      18544.806      19356.901     -66.706757    
   2810000   291.92047      373.20537      18563.805      19354.687     -144.29304    
   2820000   302.0519       377.25762      18493.478      19302.908      184.94396    
   2830000   303.61393      363.64833      18506.757      19304.813     -160.57389    
   2840000   308.69593      373.48353      18528.768      19343.93       62.219783    
Loop time of 15.2727 on 48 procs for 50000 steps with 481 atoms

Performance: 14.143 ns/day, 1.697 hours/ns, 3273.825 timesteps/s, 1.575 Matom-step/s
100.0% CPU use with 48 MPI tasks x 1 OpenMP threads

MPI task timing breakdown:
Section |  min time  |  avg time  |  max time  |%varavg| %total
---------------------------------------------------------------
Pair    | 0.016252   | 0.72028    | 4.0328     | 119.4 |  4.72
Bond    | 0.0050462  | 0.9073     | 3.8247     | 124.7 |  5.94
Neigh   | 0.01753    | 0.019792   | 0.021696   |   0.7 |  0.13
Comm    | 6.8178     | 11.296     | 13.788     |  72.2 | 73.97
Output  | 0.0057438  | 0.01081    | 0.015799   |   3.1 |  0.07
Modify  | 0.55356    | 1.7502     | 6.9337     | 163.3 | 11.46
Other   |            | 0.5678     |            |       |  3.72

Nlocal:        10.0208 ave          52 max           0 min
Histogram: 22 10 7 3 0 1 2 1 0 2
Nghost:        1931.73 ave        2415 max        1321 min
Histogram: 8 0 0 0 24 0 0 0 0 16
Neighs:              0 ave           0 max           0 min
Histogram: 48 0 0 0 0 0 0 0 0 0

Total # of neighbors = 0
Ave neighs/atom = 0
Ave special neighs/atom = 15.567568
Neighbor list builds = 53
Dangerous builds = 0
unfix           myat1
next            cpt
jump            SELF loop
variable        zdes equal  -15+0.60*(${cpt}-1)
variable        zdes equal  -15+0.60*(48-1)
variable        zave equal xcm(H2,z)
fix             mytth2 H2 spring tether ${k1} 2.5 2.5 ${zdes} 0
fix             mytth2 H2 spring tether 5.5 2.5 2.5 ${zdes} 0
fix             mytth2 H2 spring tether 5.5 2.5 2.5 13.2 0
run             10000
Generated 0 of 1 mixed pair_coeff terms from geometric mixing rule
Per MPI rank memory allocation (min/avg/max) = 13.32 | 13.88 | 14.98 Mbytes
   Step          Temp          E_pair         E_mol          TotEng         Press     
   2840000   308.69593      373.48353      18528.768      19343.93       62.219783    
   2850000   304.78589      376.66668      18541.416      19354.167      1.0969446    
Loop time of 3.15865 on 48 procs for 10000 steps with 481 atoms

Performance: 13.677 ns/day, 1.755 hours/ns, 3165.907 timesteps/s, 1.523 Matom-step/s
100.0% CPU use with 48 MPI tasks x 1 OpenMP threads

MPI task timing breakdown:
Section |  min time  |  avg time  |  max time  |%varavg| %total
---------------------------------------------------------------
Pair    | 0.0032085  | 0.14407    | 0.79511    |  53.3 |  4.56
Bond    | 0.001006   | 0.18156    | 0.78899    |  56.1 |  5.75
Neigh   | 0.0036922  | 0.0041858  | 0.0045885  |   0.3 |  0.13
Comm    | 1.3971     | 2.3422     | 2.872      |  33.3 | 74.15
Output  | 0.001154   | 0.0021657  | 0.0031927  |   1.4 |  0.07
Modify  | 0.10751    | 0.36981    | 1.504      |  77.2 | 11.71
Other   |            | 0.1147     |            |       |  3.63

Nlocal:        10.0208 ave          44 max           0 min
Histogram: 21 6 10 3 1 0 2 2 2 1
Nghost:        1933.35 ave        2414 max        1329 min
Histogram: 8 0 0 0 24 0 0 0 0 16
Neighs:              0 ave           0 max           0 min
Histogram: 48 0 0 0 0 0 0 0 0 0

Total # of neighbors = 0
Ave neighs/atom = 0
Ave special neighs/atom = 15.567568
Neighbor list builds = 11
Dangerous builds = 0
fix             myat1 all ave/time 1000 10 10000 v_zave v_zdes file simulation_data/abpot/${cpt}.dat
fix             myat1 all ave/time 1000 10 10000 v_zave v_zdes file simulation_data/abpot/48.dat
run             50000
Generated 0 of 1 mixed pair_coeff terms from geometric mixing rule
Per MPI rank memory allocation (min/avg/max) = 13.32 | 13.88 | 14.98 Mbytes
   Step          Temp          E_pair         E_mol          TotEng         Press     
   2850000   304.78589      376.66668      18541.416      19354.167      1.0969446    
   2860000   302.5156       365.20482      18562.483      19360.524     -172.2888     
   2870000   289.87714      368.1007       18533.045      19315.898     -153.23642    
   2880000   304.34383      368.33205      18512.984      19316.768     -123.99909    
   2890000   306.98694      366.33914      18510.33       19315.902     -227.13565    
   2900000   322.01435      368.31755      18550.885      19379.937     -149.78282    
Loop time of 15.2861 on 48 procs for 50000 steps with 481 atoms

Performance: 14.130 ns/day, 1.698 hours/ns, 3270.940 timesteps/s, 1.573 Matom-step/s
100.0% CPU use with 48 MPI tasks x 1 OpenMP threads

MPI task timing breakdown:
Section |  min time  |  avg time  |  max time  |%varavg| %total
---------------------------------------------------------------
Pair    | 0.016074   | 0.71933    | 4.1038     | 118.5 |  4.71
Bond    | 0.0050497  | 0.90757    | 4.1707     | 125.9 |  5.94
Neigh   | 0.01637    | 0.018508   | 0.020233   |   0.7 |  0.12
Comm    | 6.7056     | 11.316     | 13.884     |  72.3 | 74.03
Output  | 0.0057304  | 0.010814   | 0.015796   |   3.1 |  0.07
Modify  | 0.54736    | 1.7458     | 6.9637     | 163.8 | 11.42
Other   |            | 0.5683     |            |       |  3.72

Nlocal:        10.0208 ave          39 max           0 min
Histogram: 20 7 5 5 2 1 0 3 3 2
Nghost:        1932.35 ave        2421 max        1337 min
Histogram: 8 0 0 0 24 0 0 0 0 16
Neighs:              0 ave           0 max           0 min
Histogram: 48 0 0 0 0 0 0 0 0 0

Total # of neighbors = 0
Ave neighs/atom = 0
Ave special neighs/atom = 15.567568
Neighbor list builds = 50
Dangerous builds = 0
unfix           myat1
next            cpt
jump            SELF loop
variable        zdes equal  -15+0.60*(${cpt}-1)
variable        zdes equal  -15+0.60*(49-1)
variable        zave equal xcm(H2,z)
fix             mytth2 H2 spring tether ${k1} 2.5 2.5 ${zdes} 0
fix             mytth2 H2 spring tether 5.5 2.5 2.5 ${zdes} 0
fix             mytth2 H2 spring tether 5.5 2.5 2.5 13.8 0
run             10000
Generated 0 of 1 mixed pair_coeff terms from geometric mixing rule
Per MPI rank memory allocation (min/avg/max) = 13.32 | 13.88 | 14.98 Mbytes
   Step          Temp          E_pair         E_mol          TotEng         Press     
   2900000   322.01435      368.31755      18550.885      19379.937     -149.78282    
   2910000   307.65754      379.03655      18517.759      19336.989      186.94123    
Loop time of 3.02635 on 48 procs for 10000 steps with 481 atoms

Performance: 14.275 ns/day, 1.681 hours/ns, 3304.313 timesteps/s, 1.589 Matom-step/s
100.0% CPU use with 48 MPI tasks x 1 OpenMP threads

MPI task timing breakdown:
Section |  min time  |  avg time  |  max time  |%varavg| %total
---------------------------------------------------------------
Pair    | 0.0032062  | 0.14351    | 0.83435    |  53.0 |  4.74
Bond    | 0.0010132  | 0.18135    | 0.86769    |  56.1 |  5.99
Neigh   | 0.0026426  | 0.0029755  | 0.0032553  |   0.3 |  0.10
Comm    | 1.2784     | 2.2391     | 2.7505     |  32.0 | 73.99
Output  | 0.0011152  | 0.0021253  | 0.0031596  |   1.4 |  0.07
Modify  | 0.10806    | 0.34343    | 1.3694     |  72.1 | 11.35
Other   |            | 0.1139     |            |       |  3.76

Nlocal:        10.0208 ave          45 max           0 min
Histogram: 25 4 5 5 2 2 1 0 2 2
Nghost:        1935.73 ave        2425 max        1328 min
Histogram: 8 0 0 0 24 0 0 0 0 16
Neighs:              0 ave           0 max           0 min
Histogram: 48 0 0 0 0 0 0 0 0 0

Total # of neighbors = 0
Ave neighs/atom = 0
Ave special neighs/atom = 15.567568
Neighbor list builds = 8
Dangerous builds = 0
fix             myat1 all ave/time 1000 10 10000 v_zave v_zdes file simulation_data/abpot/${cpt}.dat
fix             myat1 all ave/time 1000 10 10000 v_zave v_zdes file simulation_data/abpot/49.dat
run             50000
Generated 0 of 1 mixed pair_coeff terms from geometric mixing rule
Per MPI rank memory allocation (min/avg/max) = 13.32 | 13.88 | 14.98 Mbytes
   Step          Temp          E_pair         E_mol          TotEng         Press     
   2910000   307.65754      379.03655      18517.759      19336.989      186.94123    
   2920000   306.61229      359.82857      18524.974      19323.5       -317.65563    
   2930000   288.58089      368.52446      18524.675      19306.098     -162.49493    
   2940000   326.73383      381.32172      18541.788      19390.597      244.07154    
   2950000   300.76525      369.61115      18523.428      19323.371     -56.659632    
   2960000   296.10908      372.20715      18531.18       19327.057      82.54016     
Loop time of 14.8173 on 48 procs for 50000 steps with 481 atoms

Performance: 14.578 ns/day, 1.646 hours/ns, 3374.437 timesteps/s, 1.623 Matom-step/s
100.0% CPU use with 48 MPI tasks x 1 OpenMP threads

MPI task timing breakdown:
Section |  min time  |  avg time  |  max time  |%varavg| %total
---------------------------------------------------------------
Pair    | 0.015683   | 0.71817    | 4.0889     | 118.7 |  4.85
Bond    | 0.0050533  | 0.90677    | 4.1622     | 125.7 |  6.12
Neigh   | 0.016711   | 0.019137   | 0.021103   |   0.8 |  0.13
Comm    | 6.2109     | 10.951     | 13.317     |  69.6 | 73.91
Output  | 0.0057185  | 0.010842   | 0.015845   |   3.1 |  0.07
Modify  | 0.56082    | 1.6438     | 6.423      | 152.0 | 11.09
Other   |            | 0.5675     |            |       |  3.83

Nlocal:        10.0208 ave          43 max           0 min
Histogram: 22 7 4 6 1 2 1 2 1 2
Nghost:        1935.73 ave        2423 max        1330 min
Histogram: 8 0 0 0 24 0 0 0 0 16
Neighs:              0 ave           0 max           0 min
Histogram: 48 0 0 0 0 0 0 0 0 0

Total # of neighbors = 0
Ave neighs/atom = 0
Ave special neighs/atom = 15.567568
Neighbor list builds = 55
Dangerous builds = 0
unfix           myat1
next            cpt
jump            SELF loop
variable        zdes equal  -15+0.60*(${cpt}-1)
variable        zdes equal  -15+0.60*(50-1)
variable        zave equal xcm(H2,z)
fix             mytth2 H2 spring tether ${k1} 2.5 2.5 ${zdes} 0
fix             mytth2 H2 spring tether 5.5 2.5 2.5 ${zdes} 0
fix             mytth2 H2 spring tether 5.5 2.5 2.5 14.4 0
run             10000
Generated 0 of 1 mixed pair_coeff terms from geometric mixing rule
Per MPI rank memory allocation (min/avg/max) = 13.32 | 13.88 | 14.98 Mbytes
   Step          Temp          E_pair         E_mol          TotEng         Press     
   2960000   296.10908      372.20715      18531.18       19327.057      82.54016     
   2970000   298.76464      361.6433       18510.825      19299.938     -279.97043    
Loop time of 3.00215 on 48 procs for 10000 steps with 481 atoms

Performance: 14.390 ns/day, 1.668 hours/ns, 3330.947 timesteps/s, 1.602 Matom-step/s
100.0% CPU use with 48 MPI tasks x 1 OpenMP threads

MPI task timing breakdown:
Section |  min time  |  avg time  |  max time  |%varavg| %total
---------------------------------------------------------------
Pair    | 0.0031512  | 0.1441     | 0.78614    |  52.7 |  4.80
Bond    | 0.0010149  | 0.18181    | 0.89032    |  56.9 |  6.06
Neigh   | 0.0029618  | 0.0033665  | 0.0036849  |   0.3 |  0.11
Comm    | 1.2577     | 2.2247     | 2.7306     |  31.2 | 74.10
Output  | 0.0011588  | 0.0021852  | 0.0032195  |   1.4 |  0.07
Modify  | 0.10966    | 0.33221    | 1.2685     |  68.8 | 11.07
Other   |            | 0.1138     |            |       |  3.79

Nlocal:        10.0208 ave          44 max           0 min
Histogram: 20 10 4 6 0 1 1 3 2 1
Nghost:         1932.1 ave        2421 max        1329 min
Histogram: 8 0 0 0 24 0 0 0 0 16
Neighs:              0 ave           0 max           0 min
Histogram: 48 0 0 0 0 0 0 0 0 0

Total # of neighbors = 0
Ave neighs/atom = 0
Ave special neighs/atom = 15.567568
Neighbor list builds = 9
Dangerous builds = 0
fix             myat1 all ave/time 1000 10 10000 v_zave v_zdes file simulation_data/abpot/${cpt}.dat
fix             myat1 all ave/time 1000 10 10000 v_zave v_zdes file simulation_data/abpot/50.dat
run             50000
Generated 0 of 1 mixed pair_coeff terms from geometric mixing rule
Per MPI rank memory allocation (min/avg/max) = 13.32 | 13.88 | 14.98 Mbytes
   Step          Temp          E_pair         E_mol          TotEng         Press     
   2970000   298.76464      361.6433       18510.825      19299.938     -279.97043    
   2980000   303.75257      375.77585      18509.298      19319.68       15.075638    
   2990000   317.92556      378.92943      18528.125      19361.939      173.98567    
   3000000   297.96788      356.49958      18543.291      19326.12      -507.66576    
   3010000   295.61406      375.09934      18517.941      19316.001      30.085341    
   3020000   312.61524      364.59048      18531.006      19342.882     -291.69294    
Loop time of 14.7847 on 48 procs for 50000 steps with 481 atoms

Performance: 14.610 ns/day, 1.643 hours/ns, 3381.882 timesteps/s, 1.627 Matom-step/s
100.0% CPU use with 48 MPI tasks x 1 OpenMP threads

MPI task timing breakdown:
Section |  min time  |  avg time  |  max time  |%varavg| %total
---------------------------------------------------------------
Pair    | 0.015816   | 0.71926    | 3.9145     | 117.4 |  4.86
Bond    | 0.0050483  | 0.90846    | 4.546      | 126.8 |  6.14
Neigh   | 0.014135   | 0.016077   | 0.017695   |   0.7 |  0.11
Comm    | 6.3872     | 10.913     | 13.309     |  69.8 | 73.81
Output  | 0.0055586  | 0.010632   | 0.01567    |   3.1 |  0.07
Modify  | 0.54031    | 1.6484     | 6.2815     | 152.2 | 11.15
Other   |            | 0.5688     |            |       |  3.85

Nlocal:        10.0208 ave          45 max           0 min
Histogram: 22 5 9 4 1 1 2 1 1 2
Nghost:        1930.35 ave        2410 max        1331 min
Histogram: 8 0 0 0 24 0 0 0 0 16
Neighs:              0 ave           0 max           0 min
Histogram: 48 0 0 0 0 0 0 0 0 0

Total # of neighbors = 0
Ave neighs/atom = 0
Ave special neighs/atom = 15.567568
Neighbor list builds = 45
Dangerous builds = 0
unfix           myat1
next            cpt
jump            SELF loop
variable        zdes equal  -15+0.60*(${cpt}-1)
variable        zdes equal  -15+0.60*(51-1)
variable        zave equal xcm(H2,z)
fix             mytth2 H2 spring tether ${k1} 2.5 2.5 ${zdes} 0
fix             mytth2 H2 spring tether 5.5 2.5 2.5 ${zdes} 0
fix             mytth2 H2 spring tether 5.5 2.5 2.5 15 0
run             10000
Generated 0 of 1 mixed pair_coeff terms from geometric mixing rule
Per MPI rank memory allocation (min/avg/max) = 13.32 | 13.88 | 14.98 Mbytes
   Step          Temp          E_pair         E_mol          TotEng         Press     
   3020000   312.61524      364.59048      18531.006      19342.882     -291.69294    
   3030000   320.55606      374.63543      18523.608      19356.892      100.81193    
Loop time of 2.92766 on 48 procs for 10000 steps with 481 atoms

Performance: 14.756 ns/day, 1.626 hours/ns, 3415.702 timesteps/s, 1.643 Matom-step/s
100.0% CPU use with 48 MPI tasks x 1 OpenMP threads

MPI task timing breakdown:
Section |  min time  |  avg time  |  max time  |%varavg| %total
---------------------------------------------------------------
Pair    | 0.0031494  | 0.14384    | 0.79057    |  52.8 |  4.91
Bond    | 0.001008   | 0.18174    | 0.94038    |  57.2 |  6.21
Neigh   | 0.0020617  | 0.0023629  | 0.0026136  |   0.3 |  0.08
Comm    | 1.1866     | 2.1594     | 2.6344     |  31.2 | 73.76
Output  | 0.0011035  | 0.0020741  | 0.0030827  |   1.4 |  0.07
Modify  | 0.10816    | 0.32476    | 1.204      |  66.9 | 11.09
Other   |            | 0.1134     |            |       |  3.87

Nlocal:        10.0208 ave          46 max           0 min
Histogram: 23 6 6 4 2 1 1 3 1 1
Nghost:        1923.73 ave        2405 max        1338 min
Histogram: 8 0 0 0 24 0 0 0 0 16
Neighs:              0 ave           0 max           0 min
Histogram: 48 0 0 0 0 0 0 0 0 0

Total # of neighbors = 0
Ave neighs/atom = 0
Ave special neighs/atom = 15.567568
Neighbor list builds = 7
Dangerous builds = 0
fix             myat1 all ave/time 1000 10 10000 v_zave v_zdes file simulation_data/abpot/${cpt}.dat
fix             myat1 all ave/time 1000 10 10000 v_zave v_zdes file simulation_data/abpot/51.dat
run             50000
Generated 0 of 1 mixed pair_coeff terms from geometric mixing rule
Per MPI rank memory allocation (min/avg/max) = 13.32 | 13.88 | 14.98 Mbytes
   Step          Temp          E_pair         E_mol          TotEng         Press     
   3030000   320.55606      374.63543      18523.608      19356.892      100.81193    
   3040000   312.30231      372.03958      18546.323      19365.202     -204.90344    
   3050000   318.03899      374.54992      18511.806      19341.403      54.942206    
   3060000   287.37023      388.75658      18512.909      19312.832      330.91061    
   3070000   282.27863      374.919        18531.847      19310.647     -126.8885     
   3080000   306.76931      358.83306      18593.252      19391.007     -511.06614    
Loop time of 14.3903 on 48 procs for 50000 steps with 481 atoms

Performance: 15.010 ns/day, 1.599 hours/ns, 3474.554 timesteps/s, 1.671 Matom-step/s
100.0% CPU use with 48 MPI tasks x 1 OpenMP threads

MPI task timing breakdown:
Section |  min time  |  avg time  |  max time  |%varavg| %total
---------------------------------------------------------------
Pair    | 0.015902   | 0.71789    | 3.7583     | 116.6 |  4.99
Bond    | 0.0050491  | 0.90814    | 4.6137     | 128.4 |  6.31
Neigh   | 0.01392    | 0.015967   | 0.017695   |   0.7 |  0.11
Comm    | 5.8225     | 10.577     | 12.971     |  68.8 | 73.50
Output  | 0.0057814  | 0.010914   | 0.015959   |   3.1 |  0.08
Modify  | 0.56244    | 1.5908     | 5.9454     | 144.7 | 11.05
Other   |            | 0.5699     |            |       |  3.96

Nlocal:        10.0208 ave          52 max           0 min
Histogram: 24 8 5 5 0 2 1 1 1 1
Nghost:        1930.35 ave        2415 max        1321 min
Histogram: 8 0 0 0 24 0 0 0 0 16
Neighs:              0 ave           0 max           0 min
Histogram: 48 0 0 0 0 0 0 0 0 0

Total # of neighbors = 0
Ave neighs/atom = 0
Ave special neighs/atom = 15.567568
Neighbor list builds = 46
Dangerous builds = 0
unfix           myat1
next            cpt
jump            SELF loop

Total wall time: 0:15:50
