# --- log file ---

variable pre equal 112 # desired pressure (Atm)
variable tem equal 300 # desired temperature (K)

variable k1 equal 0.7 # spring constant
variable k2 equal 3.5 # spring constant

units real
atom_style molecular
boundary p p p
neighbor 1.0 bin
neigh_modify delay 3 one 6000
bond_style harmonic
angle_style harmonic
dihedral_style opls
improper_style harmonic
pair_style hybrid lj/cut 14 sg 15 cb 30 # Fluid-fluid interactions have a cutoff of 15 Å, fluid-solid interactions have a cutoff of 30 Å
# *--* C-C parameters *--*
bond_style harmonic
angle_style harmonic
dihedral_style opls
improper_style harmonic
# *--* C-C parameters *--*


# 2. Read the graphite platelet data file and define potentials parameters
read_data       ../geometry/carbonPlatelets/simulation_data/abpot_sys.data  extra/atom/types 1
Reading data file ...
  orthogonal box = (-30 -30 -30) to (30 30 30)
  4 by 4 by 4 MPI processor grid
  reading atoms ...
  480 atoms
  reading velocities ...
  480 velocities
  scanning bonds ...
  2 = max bonds/atom
  scanning angles ...
  3 = max angles/atom
  scanning dihedrals ...
  8 = max dihedrals/atom
  scanning impropers ...
  2 = max impropers/atom
  orthogonal box = (-30 -30 -30) to (30 30 30)
  4 by 4 by 4 MPI processor grid
  reading bonds ...
  676 bonds
  reading angles ...
  1268 angles
  reading dihedrals ...
  2394 dihedrals
  reading impropers ...
  396 impropers
Finding 1-2 1-3 1-4 neighbors ...
  special bond factors lj:    0        0        0       
  special bond factors coul:  0        0        0       
     3 = max # of 1-2 neighbors
     6 = max # of 1-3 neighbors
    18 = max # of 1-4 neighbors
    18 = max # of special neighbors
  special bonds CPU = 0.002 seconds
  read_data CPU = 0.050 seconds
include         PARM.lammps

#////////////////////////////////////////////////////////////////////////////////////////////////////////////////////////////////
#//     Filename: PARM.lammps
#//     File Type: LAMMPS input script
#//     Description: This script defines the parameters for the simulation of hydrogen absorption in graphite platelets.
#//     Author: Edoardo Cabiati
#//     Date: 2024-07-27
#////////////////////////////////////////////////////////////////////////////////////////////////////////////////////////////////

mass 2 2.016 # For now at least, in accordance with the paper by Wang and Johnson,
             # 1998, the hydrogen atoms are regarded as simple spherical atoms

# //////////////////////////////////////    C-C potentials    //////////////////////////////////////
pair_coeff 1 1 lj/cut 0.066 3.4
bond_coeff 1 469 1.4
angle_coeff 1 63 120
dihedral_coeff 1 0 7.25 0 0
improper_coeff 1 5 180
special_bonds lj 0.0 0.0 0.5
Finding 1-2 1-3 1-4 neighbors ...
  special bond factors lj:    0        0        0.5     
  special bond factors coul:  0        0        0       
     3 = max # of 1-2 neighbors
     6 = max # of 1-3 neighbors
    18 = max # of 1-4 neighbors
    18 = max # of special neighbors
  special bonds CPU = 0.001 seconds
# //////////////////////////////////////    C-C potentials    //////////////////////////////////////
# -------------------------------------------------------------------------------------------------
# //////////////////////////////////////    H-H potentials    //////////////////////////////////////
variable alpha equal 1.713          #|
variable sigma equal 1.567          #|
variable gamma equal 0.00993        #|
variable c6 equal 12.14             #|      The parameters are all in atomic units, the conversion to kcal/mol
variable c8 equal 215.2             #|      is performed in the pair_sg.cpp file
variable c9 equal 143.1             #|
variable c10 equal 4813.9           #|
variable rc equal 8.321             #|
pair_coeff 2 2 sg ${alpha} ${sigma} ${gamma} ${c6} ${c8} ${c9} ${c10} ${rc} # H-H potentials
pair_coeff 2 2 sg 1.713 ${sigma} ${gamma} ${c6} ${c8} ${c9} ${c10} ${rc} 
pair_coeff 2 2 sg 1.713 1.567 ${gamma} ${c6} ${c8} ${c9} ${c10} ${rc} 
pair_coeff 2 2 sg 1.713 1.567 0.00993 ${c6} ${c8} ${c9} ${c10} ${rc} 
pair_coeff 2 2 sg 1.713 1.567 0.00993 12.14 ${c8} ${c9} ${c10} ${rc} 
pair_coeff 2 2 sg 1.713 1.567 0.00993 12.14 215.2 ${c9} ${c10} ${rc} 
pair_coeff 2 2 sg 1.713 1.567 0.00993 12.14 215.2 143.1 ${c10} ${rc} 
pair_coeff 2 2 sg 1.713 1.567 0.00993 12.14 215.2 143.1 4813.9 ${rc} 
pair_coeff 2 2 sg 1.713 1.567 0.00993 12.14 215.2 143.1 4813.9 8.321 
#pair_coeff 2 2 sg 1.713 1.567 0.00993 12.14 215.2 143.1 4813.9 8.321 # H-H potentials
# //////////////////////////////////////    H-H potentials    //////////////////////////////////////
# -------------------------------------------------------------------------------------------------
# //////////////////////////////////////    C-H potentials    //////////////////////////////////////
# Parameters taken from the paper by Wang and Johnson, 1998
variable sigma_CC equal 3.43 # Å
variable sigma_HH equal 3.075 # Å
variable sigma_CH_geo equal sqrt(${sigma_CC}*${sigma_HH}) # Å
variable sigma_CH_geo equal sqrt(3.43*${sigma_HH}) 
variable sigma_CH_geo equal sqrt(3.43*3.075) 
variable sigma_CH_arit equal 0.5*(${sigma_CC}+${sigma_HH}) # Å
variable sigma_CH_arit equal 0.5*(3.43+${sigma_HH}) 
variable sigma_CH_arit equal 0.5*(3.43+3.075) 

variable P_par equal 0.57 # Å^3
variable P_perp equal 1.995 # Å^3
variable P_h equal 0.81 # Å^3
variable E_h equal 2.337e5*(1/503.23) # K * 1/503.23 kcal/mol/K = kcal/mol
variable E_c equal 1.39254e5*(1/503.23) # K * 1/503.23 kcal/mol/K = kcal/mol

variable epsilon equal 4*(5/11)*v_E_h*v_E_c*v_P_h*(v_P_par+v_P_perp/2)/(v_sigma_CH_geo^6*(v_E_h+v_E_c)) # kcal/mol
# The formula taken from paper by Wang and Johnson, 1998 to construct epsilon does not seem to be consistent with the
# results obtained from the LAMMPS simulation. We will be using the value of epsilon obtained from the simplified
# version of the CB potential as 12-6 lennard-jones potential, presented in the paper "Theoretical investigation of the
# effect of graphite interlayer spacing on hydrogen absorption" by Rachel S. Aga, C. L. Fu, Maja Krčmar, and James R. Morris.
variable epsilon_sub equal 4*0.085094 # kcal/mol
variable sigma equal 2.97 # Å

pair_coeff 1 2 cb ${epsilon_sub} ${sigma} ${P_par} ${P_perp} # C-H potential
pair_coeff 1 2 cb 0.340376 ${sigma} ${P_par} ${P_perp} 
pair_coeff 1 2 cb 0.340376 2.97 ${P_par} ${P_perp} 
pair_coeff 1 2 cb 0.340376 2.97 0.57 ${P_perp} 
pair_coeff 1 2 cb 0.340376 2.97 0.57 1.995 
#pair_coeff 1 2 lj/cut 0.3025 2.065
# //////////////////////////////////////    C-H potentials    //////////////////////////////////////

# 3. Add a single hydrogen molecule to the system, close to the center of the first platelet
create_atoms    2 single 0 0 -2
Created 1 atoms
  using lattice units in orthogonal box = (-30 -30 -30) to (30 30 30)
  create_atoms CPU = 0.000 seconds

group           C type 1
480 atoms in group C
group           H2 type 2
1 atoms in group H2

# 4. Equilibration
timestep        0.05
fix             mytth1 C spring/self ${k2} # Apply a spring force to the carbon atoms
fix             mytth1 C spring/self 3.5 
velocity        all create ${tem} 48 rot yes mom yes dist gaussian # Initialize velocities
velocity        all create 300 48 rot yes mom yes dist gaussian 
fix             mynpt all npt temp ${tem} ${tem} 100 x ${pre} ${pre} 1000 y ${pre} ${pre} 1000 # Apply NPT ensemble to the system
fix             mynpt all npt temp 300 ${tem} 100 x ${pre} ${pre} 1000 y ${pre} ${pre} 1000 
fix             mynpt all npt temp 300 300 100 x ${pre} ${pre} 1000 y ${pre} ${pre} 1000 
fix             mynpt all npt temp 300 300 100 x 112 ${pre} 1000 y ${pre} ${pre} 1000 
fix             mynpt all npt temp 300 300 100 x 112 112 1000 y ${pre} ${pre} 1000 
fix             mynpt all npt temp 300 300 100 x 112 112 1000 y 112 ${pre} 1000 
fix             mynpt all npt temp 300 300 100 x 112 112 1000 y 112 112 1000 

thermo          10000
dump            dump all atom 1000 simulation_data/absorption_pot.lammpstrj

run             20000

CITE-CITE-CITE-CITE-CITE-CITE-CITE-CITE-CITE-CITE-CITE-CITE-CITE

Your simulation uses code contributions which should be cited:

- Type Label Framework: https://doi.org/10.1021/acs.jpcb.3c08419

@Article{Gissinger24,
 author = {Jacob R. Gissinger, Ilia Nikiforov, Yaser Afshar, Brendon Waters, Moon-ki Choi, Daniel S. Karls, Alexander Stukowski, Wonpil Im, Hendrik Heinz, Axel Kohlmeyer, and Ellad B. Tadmor},
 title = {Type Label Framework for Bonded Force Fields in LAMMPS},
 journal = {J. Phys. Chem. B},
 year =    2024,
 volume =  128,
 number =  13,
 pages =   {3282–-3297}
}

CITE-CITE-CITE-CITE-CITE-CITE-CITE-CITE-CITE-CITE-CITE-CITE-CITE

Generated 0 of 1 mixed pair_coeff terms from geometric mixing rule
Neighbor list info ...
  update: every = 1 steps, delay = 3 steps, check = yes
  max neighbors/atom: 6000, page size: 100000
  master list distance cutoff = 31
  ghost atom cutoff = 31
  binsize = 15.5, bins = 4 4 4
  4 neighbor lists, perpetual/occasional/extra = 4 0 0
  (1) pair lj/cut, perpetual, skip trim from (4)
      attributes: half, newton on, cut 15
      pair build: skip/trim
      stencil: none
      bin: none
  (2) pair sg, perpetual, skip trim from (4)
      attributes: half, newton on, cut 16
      pair build: skip/trim
      stencil: none
      bin: none
  (3) pair cb, perpetual, skip from (4)
      attributes: half, newton on
      pair build: skip
      stencil: none
      bin: none
  (4) neighbor class addition, perpetual
      attributes: half, newton on
      pair build: half/bin/newton
      stencil: half/bin/3d
      bin: standard
Per MPI rank memory allocation (min/avg/max) = 13.29 | 13.4 | 13.93 Mbytes
   Step          Temp          E_pair         E_mol          TotEng         Press          Volume    
         0   300            308.5124       19603.922      20341.671     -432.43506      216000       
     10000   308.71881      373.71132      18568.425      19383.847     -313.89117      172136.83    
     20000   319.74694      375.11214      18539.114      19371.717     -417.40409      126541.73    
Loop time of 8.20765 on 64 procs for 20000 steps with 481 atoms

Performance: 10.527 ns/day, 2.280 hours/ns, 2436.751 timesteps/s, 1.172 Matom-step/s
99.8% CPU use with 64 MPI tasks x 1 OpenMP threads

MPI task timing breakdown:
Section |  min time  |  avg time  |  max time  |%varavg| %total
---------------------------------------------------------------
Pair    | 0.13554    | 0.45131    | 2.9015     |  76.3 |  5.50
Bond    | 0.0038316  | 0.35583    | 1.8661     | 102.7 |  4.34
Neigh   | 0.018406   | 0.020964   | 0.023315   |   1.0 |  0.26
Comm    | 2.4072     | 4.7664     | 5.9533     |  48.8 | 58.07
Output  | 0.0036534  | 0.010708   | 0.018701   |   4.7 |  0.13
Modify  | 0.80655    | 2.2844     | 4.792      |  83.7 | 27.83
Other   |            | 0.318      |            |       |  3.87

Nlocal:        7.51562 ave          36 max           0 min
Histogram: 41 7 0 0 0 1 2 9 3 1
Nghost:        1804.95 ave        2371 max        1288 min
Histogram: 16 0 0 0 32 0 0 0 0 16
Neighs:              0 ave           0 max           0 min
Histogram: 64 0 0 0 0 0 0 0 0 0

Total # of neighbors = 0
Ave neighs/atom = 0
Ave special neighs/atom = 15.567568
Neighbor list builds = 52
Dangerous builds = 0
unfix           mynpt
unfix           mytth1

# 5. Umbrella sampling
fix             mynvt all nvt temp ${tem} ${tem} 100
fix             mynvt all nvt temp 300 ${tem} 100
fix             mynvt all nvt temp 300 300 100
fix             mytth1 C spring/self ${k2}
fix             mytth1 C spring/self 3.5

variable        cpt loop 51
label           loop
variable        zdes equal  -15+0.60*(${cpt}-1)
variable        zdes equal  -15+0.60*(1-1)
variable        zave equal xcm(H2,z)
fix             mytth2 H2 spring tether ${k1} 2.5 2.5 ${zdes} 0
fix             mytth2 H2 spring tether 0.7 2.5 2.5 ${zdes} 0
fix             mytth2 H2 spring tether 0.7 2.5 2.5 -15 0
run             10000
Generated 0 of 1 mixed pair_coeff terms from geometric mixing rule
Per MPI rank memory allocation (min/avg/max) = 13.32 | 13.62 | 14.95 Mbytes
   Step          Temp          E_pair         E_mol          TotEng         Press     
     20000   319.74694      375.11214      18539.114      19371.717     -417.40409    
     30000   266.29247      343.67063      18615.3        19339.979     -1307.8798    
Loop time of 3.90434 on 64 procs for 10000 steps with 481 atoms

Performance: 11.065 ns/day, 2.169 hours/ns, 2561.251 timesteps/s, 1.232 Matom-step/s
100.0% CPU use with 64 MPI tasks x 1 OpenMP threads

MPI task timing breakdown:
Section |  min time  |  avg time  |  max time  |%varavg| %total
---------------------------------------------------------------
Pair    | 0.0030671  | 0.14116    | 0.89521    |  66.5 |  3.62
Bond    | 0.0010862  | 0.15935    | 0.82806    |  65.5 |  4.08
Neigh   | 0.038143   | 0.042213   | 0.046036   |   1.1 |  1.08
Comm    | 1.6398     | 2.9629     | 3.5366     |  38.3 | 75.89
Output  | 0.001557   | 0.0041486  | 0.0069549  |   2.7 |  0.11
Modify  | 0.15809    | 0.46526    | 2.0801     |  87.1 | 11.92
Other   |            | 0.1293     |            |       |  3.31

Nlocal:        7.51562 ave          34 max           0 min
Histogram: 43 1 4 0 1 2 4 2 3 4
Nghost:        1806.83 ave        2374 max        1290 min
Histogram: 16 0 0 0 32 0 0 0 0 16
Neighs:              0 ave           0 max           0 min
Histogram: 64 0 0 0 0 0 0 0 0 0

Total # of neighbors = 0
Ave neighs/atom = 0
Ave special neighs/atom = 15.567568
Neighbor list builds = 90
Dangerous builds = 0
fix             myat1 all ave/time 1000 10 10000 v_zave v_zdes file simulation_data/abpot/${cpt}.dat
fix             myat1 all ave/time 1000 10 10000 v_zave v_zdes file simulation_data/abpot/1.dat
run             50000
Generated 0 of 1 mixed pair_coeff terms from geometric mixing rule
Per MPI rank memory allocation (min/avg/max) = 13.32 | 13.62 | 14.95 Mbytes
   Step          Temp          E_pair         E_mol          TotEng         Press     
     30000   266.29247      343.67063      18615.3        19339.979     -1307.8798    
     40000   286.9184       419.0355       18521.118      19350.673      751.5315     
     50000   296.41864      392.76738      18538.765      19355.645      0.22896849   
     60000   299.68145      387.02533      18531.052      19346.858     -109.45899    
     70000   301.59472      391.57767      18518.991      19342.087      40.747465    
     80000   292.76942      394.75764      18552.786      19366.435      153.98454    
Loop time of 19.2955 on 64 procs for 50000 steps with 481 atoms

Performance: 11.194 ns/day, 2.144 hours/ns, 2591.274 timesteps/s, 1.246 Matom-step/s
100.0% CPU use with 64 MPI tasks x 1 OpenMP threads

MPI task timing breakdown:
Section |  min time  |  avg time  |  max time  |%varavg| %total
---------------------------------------------------------------
Pair    | 0.015547   | 0.6892     | 4.5348     | 146.1 |  3.57
Bond    | 0.0054843  | 0.78999    | 4.1285     | 147.3 |  4.09
Neigh   | 0.11317    | 0.12502    | 0.13557    |   1.7 |  0.65
Comm    | 8.1498     | 14.751     | 17.548     |  85.0 | 76.45
Output  | 0.0078947  | 0.018013   | 0.028419   |   4.8 |  0.09
Modify  | 0.77509    | 2.2761     | 10.31      | 194.3 | 11.80
Other   |            | 0.6459     |            |       |  3.35

Nlocal:        7.51562 ave          32 max           0 min
Histogram: 41 6 1 0 0 0 1 3 6 6
Nghost:        1820.52 ave        2410 max        1293 min
Histogram: 16 0 0 0 32 0 0 0 0 16
Neighs:              0 ave           0 max           0 min
Histogram: 64 0 0 0 0 0 0 0 0 0

Total # of neighbors = 0
Ave neighs/atom = 0
Ave special neighs/atom = 15.567568
Neighbor list builds = 255
Dangerous builds = 0
unfix           myat1
next            cpt
jump            SELF loop
variable        zdes equal  -15+0.60*(${cpt}-1)
variable        zdes equal  -15+0.60*(2-1)
variable        zave equal xcm(H2,z)
fix             mytth2 H2 spring tether ${k1} 2.5 2.5 ${zdes} 0
fix             mytth2 H2 spring tether 0.7 2.5 2.5 ${zdes} 0
fix             mytth2 H2 spring tether 0.7 2.5 2.5 -14.4 0
run             10000
Generated 0 of 1 mixed pair_coeff terms from geometric mixing rule
Per MPI rank memory allocation (min/avg/max) = 13.32 | 13.62 | 14.95 Mbytes
   Step          Temp          E_pair         E_mol          TotEng         Press     
     80000   292.76942      394.75764      18552.786      19366.435      153.98454    
     90000   300.43766      388.22457      18551.69       19369.778     -83.862591    
Loop time of 3.7564 on 64 procs for 10000 steps with 481 atoms

Performance: 11.500 ns/day, 2.087 hours/ns, 2662.125 timesteps/s, 1.280 Matom-step/s
100.0% CPU use with 64 MPI tasks x 1 OpenMP threads

MPI task timing breakdown:
Section |  min time  |  avg time  |  max time  |%varavg| %total
---------------------------------------------------------------
Pair    | 0.0032174  | 0.13603    | 0.87439    |  64.4 |  3.62
Bond    | 0.0010951  | 0.1578     | 0.81469    |  65.3 |  4.20
Neigh   | 0.011856   | 0.013278   | 0.014455   |   0.6 |  0.35
Comm    | 1.6289     | 2.8722     | 3.4243     |  37.2 | 76.46
Output  | 0.0015127  | 0.0031444  | 0.0048174  |   1.9 |  0.08
Modify  | 0.14734    | 0.44643    | 1.9746     |  84.6 | 11.88
Other   |            | 0.1275     |            |       |  3.40

Nlocal:        7.51562 ave          34 max           0 min
Histogram: 41 6 1 0 0 1 1 8 3 3
Nghost:        1816.02 ave        2399 max        1291 min
Histogram: 16 0 0 0 32 0 0 0 0 16
Neighs:              0 ave           0 max           0 min
Histogram: 64 0 0 0 0 0 0 0 0 0

Total # of neighbors = 0
Ave neighs/atom = 0
Ave special neighs/atom = 15.567568
Neighbor list builds = 29
Dangerous builds = 0
fix             myat1 all ave/time 1000 10 10000 v_zave v_zdes file simulation_data/abpot/${cpt}.dat
fix             myat1 all ave/time 1000 10 10000 v_zave v_zdes file simulation_data/abpot/2.dat
run             50000
Generated 0 of 1 mixed pair_coeff terms from geometric mixing rule
Per MPI rank memory allocation (min/avg/max) = 13.32 | 13.62 | 14.95 Mbytes
   Step          Temp          E_pair         E_mol          TotEng         Press     
     90000   300.43766      388.22457      18551.69       19369.778     -83.862591    
    100000   279.7235       390.90437      18533.066      19324.196     -15.445542    
    110000   294.29019      396.53669      18503.829      19321.432      188.83673    
    120000   316.37583      388.21559      18501.095      19341.977     -3.1846209    
    130000   312.90024      384.61905      18535.679      19367.992     -285.98025    
    140000   318.36227      391.54462      18546.073      19393.127      16.668028    
Loop time of 17.707 on 64 procs for 50000 steps with 481 atoms

Performance: 12.199 ns/day, 1.967 hours/ns, 2823.749 timesteps/s, 1.358 Matom-step/s
100.0% CPU use with 64 MPI tasks x 1 OpenMP threads

MPI task timing breakdown:
Section |  min time  |  avg time  |  max time  |%varavg| %total
---------------------------------------------------------------
Pair    | 0.015744   | 0.67829    | 4.5632     | 142.1 |  3.83
Bond    | 0.0054438  | 0.78757    | 4.1026     | 146.4 |  4.45
Neigh   | 0.052873   | 0.058928   | 0.06435    |   1.3 |  0.33
Comm    | 7.582      | 13.491     | 16.05      |  79.6 | 76.19
Output  | 0.0074904  | 0.015214   | 0.02265    |   3.9 |  0.09
Modify  | 0.74662    | 2.0384     | 8.8008     | 172.9 | 11.51
Other   |            | 0.6377     |            |       |  3.60

Nlocal:        7.51562 ave          37 max           0 min
Histogram: 42 5 1 1 0 2 4 3 3 3
Nghost:        1822.86 ave        2416 max        1288 min
Histogram: 16 0 0 0 32 0 0 0 0 16
Neighs:              0 ave           0 max           0 min
Histogram: 64 0 0 0 0 0 0 0 0 0

Total # of neighbors = 0
Ave neighs/atom = 0
Ave special neighs/atom = 15.567568
Neighbor list builds = 132
Dangerous builds = 0
unfix           myat1
next            cpt
jump            SELF loop
variable        zdes equal  -15+0.60*(${cpt}-1)
variable        zdes equal  -15+0.60*(3-1)
variable        zave equal xcm(H2,z)
fix             mytth2 H2 spring tether ${k1} 2.5 2.5 ${zdes} 0
fix             mytth2 H2 spring tether 0.7 2.5 2.5 ${zdes} 0
fix             mytth2 H2 spring tether 0.7 2.5 2.5 -13.8 0
run             10000
Generated 0 of 1 mixed pair_coeff terms from geometric mixing rule
Per MPI rank memory allocation (min/avg/max) = 13.32 | 13.62 | 14.95 Mbytes
   Step          Temp          E_pair         E_mol          TotEng         Press     
    140000   318.36227      391.54462      18546.073      19393.127      16.668028    
    150000   292.44497      395.14974      18536.539      19350.115      75.651908    
Loop time of 3.43407 on 64 procs for 10000 steps with 481 atoms

Performance: 12.580 ns/day, 1.908 hours/ns, 2911.993 timesteps/s, 1.401 Matom-step/s
100.0% CPU use with 64 MPI tasks x 1 OpenMP threads

MPI task timing breakdown:
Section |  min time  |  avg time  |  max time  |%varavg| %total
---------------------------------------------------------------
Pair    | 0.0031054  | 0.13506    | 0.85644    |  63.0 |  3.93
Bond    | 0.0010931  | 0.15708    | 0.76389    |  65.2 |  4.57
Neigh   | 0.0088867  | 0.0099242  | 0.010859   |   0.6 |  0.29
Comm    | 1.5256     | 2.6097     | 3.1226     |  34.5 | 75.99
Output  | 0.0014359  | 0.0028468  | 0.0042682  |   1.7 |  0.08
Modify  | 0.13695    | 0.39186    | 1.6559     |  72.8 | 11.41
Other   |            | 0.1276     |            |       |  3.72

Nlocal:        7.51562 ave          37 max           0 min
Histogram: 43 4 1 0 0 3 3 3 4 3
Nghost:         1825.2 ave        2422 max        1287 min
Histogram: 16 0 0 0 32 0 0 0 0 16
Neighs:              0 ave           0 max           0 min
Histogram: 64 0 0 0 0 0 0 0 0 0

Total # of neighbors = 0
Ave neighs/atom = 0
Ave special neighs/atom = 15.567568
Neighbor list builds = 23
Dangerous builds = 0
fix             myat1 all ave/time 1000 10 10000 v_zave v_zdes file simulation_data/abpot/${cpt}.dat
fix             myat1 all ave/time 1000 10 10000 v_zave v_zdes file simulation_data/abpot/3.dat
run             50000
Generated 0 of 1 mixed pair_coeff terms from geometric mixing rule
Per MPI rank memory allocation (min/avg/max) = 13.32 | 13.62 | 14.95 Mbytes
   Step          Temp          E_pair         E_mol          TotEng         Press     
    150000   292.44497      395.14974      18536.539      19350.115      75.651908    
    160000   295.8889       391.15244      18527.063      19341.57       70.917203    
    170000   296.32781      383.83189      18543.647      19351.461     -327.73613    
    180000   321.97003      383.64555      18542.975      19387.292     -136.29866    
    190000   307.29481      392.88384      18579.625      19412.183     -82.844171    
    200000   306.27611      385.74273      18520.368      19344.328     -251.99115    
Loop time of 17.5405 on 64 procs for 50000 steps with 481 atoms

Performance: 12.314 ns/day, 1.949 hours/ns, 2850.542 timesteps/s, 1.371 Matom-step/s
100.0% CPU use with 64 MPI tasks x 1 OpenMP threads

MPI task timing breakdown:
Section |  min time  |  avg time  |  max time  |%varavg| %total
---------------------------------------------------------------
Pair    | 0.015607   | 0.67668    | 4.3132     | 141.8 |  3.86
Bond    | 0.0054927  | 0.78606    | 3.8449     | 146.2 |  4.48
Neigh   | 0.036451   | 0.040778   | 0.044571   |   1.1 |  0.23
Comm    | 7.8646     | 13.365     | 15.962     |  79.0 | 76.19
Output  | 0.0073918  | 0.014496   | 0.021305   |   3.6 |  0.08
Modify  | 0.71236    | 2.0193     | 8.6874     | 169.7 | 11.51
Other   |            | 0.6386     |            |       |  3.64

Nlocal:        7.51562 ave          40 max           0 min
Histogram: 40 8 0 0 4 2 3 1 4 2
Nghost:        1821.55 ave        2411 max        1284 min
Histogram: 16 0 0 0 32 0 0 0 0 16
Neighs:              0 ave           0 max           0 min
Histogram: 64 0 0 0 0 0 0 0 0 0

Total # of neighbors = 0
Ave neighs/atom = 0
Ave special neighs/atom = 15.567568
Neighbor list builds = 90
Dangerous builds = 0
unfix           myat1
next            cpt
jump            SELF loop
variable        zdes equal  -15+0.60*(${cpt}-1)
variable        zdes equal  -15+0.60*(4-1)
variable        zave equal xcm(H2,z)
fix             mytth2 H2 spring tether ${k1} 2.5 2.5 ${zdes} 0
fix             mytth2 H2 spring tether 0.7 2.5 2.5 ${zdes} 0
fix             mytth2 H2 spring tether 0.7 2.5 2.5 -13.2 0
run             10000
Generated 0 of 1 mixed pair_coeff terms from geometric mixing rule
Per MPI rank memory allocation (min/avg/max) = 13.32 | 13.62 | 14.95 Mbytes
   Step          Temp          E_pair         E_mol          TotEng         Press     
    200000   306.27611      385.74273      18520.368      19344.328     -251.99115    
    210000   303.89692      386.1725       18525.615      19346.6       -69.632904    
Loop time of 3.61061 on 64 procs for 10000 steps with 481 atoms

Performance: 11.965 ns/day, 2.006 hours/ns, 2769.619 timesteps/s, 1.332 Matom-step/s
100.0% CPU use with 64 MPI tasks x 1 OpenMP threads

MPI task timing breakdown:
Section |  min time  |  avg time  |  max time  |%varavg| %total
---------------------------------------------------------------
Pair    | 0.0030703  | 0.13533    | 0.89742    |  63.8 |  3.75
Bond    | 0.0010753  | 0.15716    | 0.81831    |  65.5 |  4.35
Neigh   | 0.0078949  | 0.0087357  | 0.0094892  |   0.5 |  0.24
Comm    | 1.6068     | 2.7597     | 3.2843     |  36.2 | 76.43
Output  | 0.001537   | 0.0029293  | 0.004287   |   1.6 |  0.08
Modify  | 0.15027    | 0.41844    | 1.8356     |  80.1 | 11.59
Other   |            | 0.1283     |            |       |  3.55

Nlocal:        7.51562 ave          39 max           0 min
Histogram: 40 8 0 0 3 4 1 1 3 4
Nghost:        1826.89 ave        2425 max        1285 min
Histogram: 16 0 0 0 32 0 0 0 0 16
Neighs:              0 ave           0 max           0 min
Histogram: 64 0 0 0 0 0 0 0 0 0

Total # of neighbors = 0
Ave neighs/atom = 0
Ave special neighs/atom = 15.567568
Neighbor list builds = 18
Dangerous builds = 0
fix             myat1 all ave/time 1000 10 10000 v_zave v_zdes file simulation_data/abpot/${cpt}.dat
fix             myat1 all ave/time 1000 10 10000 v_zave v_zdes file simulation_data/abpot/4.dat
run             50000
Generated 0 of 1 mixed pair_coeff terms from geometric mixing rule
Per MPI rank memory allocation (min/avg/max) = 13.32 | 13.62 | 14.95 Mbytes
   Step          Temp          E_pair         E_mol          TotEng         Press     
    210000   303.89692      386.1725       18525.615      19346.6       -69.632904    
    220000   302.67482      388.89798      18532.972      19354.934     -44.89513     
    230000   320.16861      389.05565      18535.913      19383.062     -59.316284    
    240000   320.13083      378.74831      18536.126      19372.914     -222.368      
    250000   289.75677      386.47313      18554.982      19356.036     -66.143347    
    260000   298.2363       403.90651      18514.959      19345.579      298.36086    
Loop time of 17.7748 on 64 procs for 50000 steps with 481 atoms

Performance: 12.152 ns/day, 1.975 hours/ns, 2812.972 timesteps/s, 1.353 Matom-step/s
100.0% CPU use with 64 MPI tasks x 1 OpenMP threads

MPI task timing breakdown:
Section |  min time  |  avg time  |  max time  |%varavg| %total
---------------------------------------------------------------
Pair    | 0.015449   | 0.6789     | 4.5266     | 142.8 |  3.82
Bond    | 0.005487   | 0.79068    | 4.0701     | 147.0 |  4.45
Neigh   | 0.047964   | 0.053597   | 0.058379   |   1.3 |  0.30
Comm    | 7.6652     | 13.548     | 16.185     |  80.1 | 76.22
Output  | 0.0074885  | 0.014507   | 0.021152   |   3.6 |  0.08
Modify  | 0.71715    | 2.0537     | 8.9123     | 173.9 | 11.55
Other   |            | 0.6354     |            |       |  3.57

Nlocal:        7.51562 ave          37 max           0 min
Histogram: 43 4 1 0 0 3 2 6 4 1
Nghost:        1821.73 ave        2421 max        1287 min
Histogram: 16 0 0 0 32 0 0 0 0 16
Neighs:              0 ave           0 max           0 min
Histogram: 64 0 0 0 0 0 0 0 0 0

Total # of neighbors = 0
Ave neighs/atom = 0
Ave special neighs/atom = 15.567568
Neighbor list builds = 117
Dangerous builds = 0
unfix           myat1
next            cpt
jump            SELF loop
variable        zdes equal  -15+0.60*(${cpt}-1)
variable        zdes equal  -15+0.60*(5-1)
variable        zave equal xcm(H2,z)
fix             mytth2 H2 spring tether ${k1} 2.5 2.5 ${zdes} 0
fix             mytth2 H2 spring tether 0.7 2.5 2.5 ${zdes} 0
fix             mytth2 H2 spring tether 0.7 2.5 2.5 -12.6 0
run             10000
Generated 0 of 1 mixed pair_coeff terms from geometric mixing rule
Per MPI rank memory allocation (min/avg/max) = 13.32 | 13.62 | 14.95 Mbytes
   Step          Temp          E_pair         E_mol          TotEng         Press     
    260000   298.2363       403.90651      18514.959      19345.579      298.36086    
    270000   305.13169      377.57789      18546.488      19360.645     -297.85362    
Loop time of 3.65603 on 64 procs for 10000 steps with 481 atoms

Performance: 11.816 ns/day, 2.031 hours/ns, 2735.208 timesteps/s, 1.316 Matom-step/s
100.0% CPU use with 64 MPI tasks x 1 OpenMP threads

MPI task timing breakdown:
Section |  min time  |  avg time  |  max time  |%varavg| %total
---------------------------------------------------------------
Pair    | 0.0031156  | 0.13214    | 0.92433    |  63.3 |  3.61
Bond    | 0.0010941  | 0.15694    | 0.83021    |  65.9 |  4.29
Neigh   | 0.005787   | 0.0063766  | 0.0069411  |   0.4 |  0.17
Comm    | 1.6237     | 2.7819     | 3.3522     |  36.1 | 76.09
Output  | 0.0015221  | 0.0028841  | 0.0042254  |   1.6 |  0.08
Modify  | 0.13257    | 0.44819    | 1.8864     |  79.5 | 12.26
Other   |            | 0.1276     |            |       |  3.49

Nlocal:        7.51562 ave          39 max           0 min
Histogram: 42 6 0 0 1 2 8 2 1 2
Nghost:        1818.73 ave        2412 max        1285 min
Histogram: 16 0 0 0 32 0 0 0 0 16
Neighs:              0 ave           0 max           0 min
Histogram: 64 0 0 0 0 0 0 0 0 0

Total # of neighbors = 0
Ave neighs/atom = 0
Ave special neighs/atom = 15.567568
Neighbor list builds = 13
Dangerous builds = 0
fix             myat1 all ave/time 1000 10 10000 v_zave v_zdes file simulation_data/abpot/${cpt}.dat
fix             myat1 all ave/time 1000 10 10000 v_zave v_zdes file simulation_data/abpot/5.dat
run             50000
Generated 0 of 1 mixed pair_coeff terms from geometric mixing rule
Per MPI rank memory allocation (min/avg/max) = 13.32 | 13.62 | 14.95 Mbytes
   Step          Temp          E_pair         E_mol          TotEng         Press     
    270000   305.13169      377.57789      18546.488      19360.645     -297.85362    
    280000   290.0657       388.70935      18522.989      19326.722     -119.41435    
    290000   292.71501      394.61868      18510.741      19324.173      198.98807    
    300000   305.34825      383.26019      18515.422      19335.571     -88.027812    
    310000   295.88351      387.3808       18537.927      19348.654     -104.7095     
    320000   303.62048      391.31258      18534.397      19360.126      40.098125    
Loop time of 17.57 on 64 procs for 50000 steps with 481 atoms

Performance: 12.294 ns/day, 1.952 hours/ns, 2845.760 timesteps/s, 1.369 Matom-step/s
100.0% CPU use with 64 MPI tasks x 1 OpenMP threads

MPI task timing breakdown:
Section |  min time  |  avg time  |  max time  |%varavg| %total
---------------------------------------------------------------
Pair    | 0.015252   | 0.66098    | 4.2607     | 139.4 |  3.76
Bond    | 0.0053781  | 0.78515    | 4.0228     | 146.6 |  4.47
Neigh   | 0.028835   | 0.032346   | 0.035617   |   1.0 |  0.18
Comm    | 8.0454     | 13.36      | 16.078     |  78.1 | 76.04
Output  | 0.0074188  | 0.014309   | 0.020905   |   3.5 |  0.08
Modify  | 0.64073    | 2.0853     | 8.7301     | 168.5 | 11.87
Other   |            | 0.6315     |            |       |  3.59

Nlocal:        7.51562 ave          35 max           0 min
Histogram: 42 4 2 0 0 2 3 4 4 3
Nghost:        1819.86 ave        2405 max        1289 min
Histogram: 16 0 0 0 32 0 0 0 0 16
Neighs:              0 ave           0 max           0 min
Histogram: 64 0 0 0 0 0 0 0 0 0

Total # of neighbors = 0
Ave neighs/atom = 0
Ave special neighs/atom = 15.567568
Neighbor list builds = 71
Dangerous builds = 0
unfix           myat1
next            cpt
jump            SELF loop
variable        zdes equal  -15+0.60*(${cpt}-1)
variable        zdes equal  -15+0.60*(6-1)
variable        zave equal xcm(H2,z)
fix             mytth2 H2 spring tether ${k1} 2.5 2.5 ${zdes} 0
fix             mytth2 H2 spring tether 0.7 2.5 2.5 ${zdes} 0
fix             mytth2 H2 spring tether 0.7 2.5 2.5 -12 0
run             10000
Generated 0 of 1 mixed pair_coeff terms from geometric mixing rule
Per MPI rank memory allocation (min/avg/max) = 13.32 | 13.62 | 14.95 Mbytes
   Step          Temp          E_pair         E_mol          TotEng         Press     
    320000   303.62048      391.31258      18534.397      19360.126      40.098125    
    330000   302.22695      398.83838      18498.427      19329.688      279.08943    
Loop time of 3.46183 on 64 procs for 10000 steps with 481 atoms

Performance: 12.479 ns/day, 1.923 hours/ns, 2888.649 timesteps/s, 1.389 Matom-step/s
100.0% CPU use with 64 MPI tasks x 1 OpenMP threads

MPI task timing breakdown:
Section |  min time  |  avg time  |  max time  |%varavg| %total
---------------------------------------------------------------
Pair    | 0.0031258  | 0.13221    | 0.85097    |  62.1 |  3.82
Bond    | 0.0010665  | 0.15654    | 0.7877     |  65.1 |  4.52
Neigh   | 0.0035599  | 0.0039949  | 0.0043945  |   0.4 |  0.12
Comm    | 1.569      | 2.6305     | 3.1749     |  34.5 | 75.99
Output  | 0.0014394  | 0.0027906  | 0.0041266  |   1.6 |  0.08
Modify  | 0.1272     | 0.41057    | 1.7016     |  73.9 | 11.86
Other   |            | 0.1252     |            |       |  3.62

Nlocal:        7.51562 ave          36 max           0 min
Histogram: 42 4 2 0 0 1 2 6 6 1
Nghost:        1819.86 ave        2406 max        1294 min
Histogram: 16 0 0 0 32 0 0 0 0 16
Neighs:              0 ave           0 max           0 min
Histogram: 64 0 0 0 0 0 0 0 0 0

Total # of neighbors = 0
Ave neighs/atom = 0
Ave special neighs/atom = 15.567568
Neighbor list builds = 9
Dangerous builds = 0
fix             myat1 all ave/time 1000 10 10000 v_zave v_zdes file simulation_data/abpot/${cpt}.dat
fix             myat1 all ave/time 1000 10 10000 v_zave v_zdes file simulation_data/abpot/6.dat
run             50000
Generated 0 of 1 mixed pair_coeff terms from geometric mixing rule
Per MPI rank memory allocation (min/avg/max) = 13.32 | 13.62 | 14.95 Mbytes
   Step          Temp          E_pair         E_mol          TotEng         Press     
    330000   302.22695      398.83838      18498.427      19329.688      279.08943    
    340000   301.01506      376.1048       18498.234      19305.028     -339.71875    
    350000   299.97426      387.70095      18503.708      19320.609     -42.742168    
    360000   300.61998      391.99452      18526.187      19348.306      55.909064    
    370000   292.48811      382.65475      18533.008      19334.151     -304.16939    
    380000   301.20026      389.34163      18512.141      19332.436     -32.113653    
Loop time of 17.5051 on 64 procs for 50000 steps with 481 atoms

Performance: 12.339 ns/day, 1.945 hours/ns, 2856.311 timesteps/s, 1.374 Matom-step/s
100.0% CPU use with 64 MPI tasks x 1 OpenMP threads

MPI task timing breakdown:
Section |  min time  |  avg time  |  max time  |%varavg| %total
---------------------------------------------------------------
Pair    | 0.015821   | 0.66208    | 4.3216     | 140.1 |  3.78
Bond    | 0.0053841  | 0.78571    | 3.8959     | 146.7 |  4.49
Neigh   | 0.030002   | 0.03353    | 0.036723   |   1.0 |  0.19
Comm    | 7.8653     | 13.318     | 16.009     |  78.3 | 76.08
Output  | 0.0073094  | 0.014194   | 0.020801   |   3.6 |  0.08
Modify  | 0.64497    | 2.0648     | 8.6794     | 168.1 | 11.80
Other   |            | 0.6271     |            |       |  3.58

Nlocal:        7.51562 ave          41 max           0 min
Histogram: 42 6 0 2 2 2 3 2 3 2
Nghost:         1817.7 ave        2402 max        1283 min
Histogram: 16 0 0 0 32 0 0 0 0 16
Neighs:              0 ave           0 max           0 min
Histogram: 64 0 0 0 0 0 0 0 0 0

Total # of neighbors = 0
Ave neighs/atom = 0
Ave special neighs/atom = 15.567568
Neighbor list builds = 73
Dangerous builds = 0
unfix           myat1
next            cpt
jump            SELF loop
variable        zdes equal  -15+0.60*(${cpt}-1)
variable        zdes equal  -15+0.60*(7-1)
variable        zave equal xcm(H2,z)
fix             mytth2 H2 spring tether ${k1} 2.5 2.5 ${zdes} 0
fix             mytth2 H2 spring tether 0.7 2.5 2.5 ${zdes} 0
fix             mytth2 H2 spring tether 0.7 2.5 2.5 -11.4 0
run             10000
Generated 0 of 1 mixed pair_coeff terms from geometric mixing rule
Per MPI rank memory allocation (min/avg/max) = 13.32 | 13.62 | 14.95 Mbytes
   Step          Temp          E_pair         E_mol          TotEng         Press     
    380000   301.20026      389.34163      18512.141      19332.436     -32.113653    
    390000   308.76616      402.32371      18517.441      19361.543      281.78413    
Loop time of 3.44187 on 64 procs for 10000 steps with 481 atoms

Performance: 12.551 ns/day, 1.912 hours/ns, 2905.398 timesteps/s, 1.397 Matom-step/s
100.0% CPU use with 64 MPI tasks x 1 OpenMP threads

MPI task timing breakdown:
Section |  min time  |  avg time  |  max time  |%varavg| %total
---------------------------------------------------------------
Pair    | 0.003193   | 0.1328     | 0.85927    |  62.7 |  3.86
Bond    | 0.0010989  | 0.15789    | 0.79913    |  66.1 |  4.59
Neigh   | 0.0040594  | 0.0045586  | 0.0050058  |   0.4 |  0.13
Comm    | 1.5501     | 2.6189     | 3.1485     |  34.9 | 76.09
Output  | 0.0014669  | 0.0028298  | 0.0041721  |   1.6 |  0.08
Modify  | 0.12731    | 0.39956    | 1.6881     |  74.0 | 11.61
Other   |            | 0.1253     |            |       |  3.64

Nlocal:        7.51562 ave          42 max           0 min
Histogram: 44 4 0 1 0 7 1 3 3 1
Nghost:        1822.86 ave        2415 max        1282 min
Histogram: 16 0 0 0 32 0 0 0 0 16
Neighs:              0 ave           0 max           0 min
Histogram: 64 0 0 0 0 0 0 0 0 0

Total # of neighbors = 0
Ave neighs/atom = 0
Ave special neighs/atom = 15.567568
Neighbor list builds = 10
Dangerous builds = 0
fix             myat1 all ave/time 1000 10 10000 v_zave v_zdes file simulation_data/abpot/${cpt}.dat
fix             myat1 all ave/time 1000 10 10000 v_zave v_zdes file simulation_data/abpot/7.dat
run             50000
Generated 0 of 1 mixed pair_coeff terms from geometric mixing rule
Per MPI rank memory allocation (min/avg/max) = 13.32 | 13.62 | 14.95 Mbytes
   Step          Temp          E_pair         E_mol          TotEng         Press     
    390000   308.76616      402.32371      18517.441      19361.543      281.78413    
    400000   312.36374      386.95753      18544.475      19378.359     -116.79836    
    410000   309.47933      373.10918      18537.762      19353.671     -356.81178    
    420000   295.74647      389.16224      18527.456      19339.769      130.36708    
    430000   291.15991      397.20503      18516.284      19330.078      186.71564    
    440000   306.20317      381.54887      18538.521      19358.181     -99.139275    
Loop time of 17.4664 on 64 procs for 50000 steps with 481 atoms

Performance: 12.367 ns/day, 1.941 hours/ns, 2862.638 timesteps/s, 1.377 Matom-step/s
100.0% CPU use with 64 MPI tasks x 1 OpenMP threads

MPI task timing breakdown:
Section |  min time  |  avg time  |  max time  |%varavg| %total
---------------------------------------------------------------
Pair    | 0.015389   | 0.66502    | 4.4087     | 140.3 |  3.81
Bond    | 0.0055009  | 0.78387    | 4.0877     | 146.3 |  4.49
Neigh   | 0.028197   | 0.031479   | 0.034658   |   1.0 |  0.18
Comm    | 7.4398     | 13.317     | 15.974     |  78.5 | 76.25
Output  | 0.0072426  | 0.01407    | 0.020631   |   3.5 |  0.08
Modify  | 0.65226    | 2.0279     | 8.6422     | 168.8 | 11.61
Other   |            | 0.6267     |            |       |  3.59

Nlocal:        7.51562 ave          37 max           0 min
Histogram: 41 6 1 0 0 4 3 2 4 3
Nghost:        1823.89 ave        2419 max        1287 min
Histogram: 16 0 0 0 32 0 0 0 0 16
Neighs:              0 ave           0 max           0 min
Histogram: 64 0 0 0 0 0 0 0 0 0

Total # of neighbors = 0
Ave neighs/atom = 0
Ave special neighs/atom = 15.567568
Neighbor list builds = 69
Dangerous builds = 0
unfix           myat1
next            cpt
jump            SELF loop
variable        zdes equal  -15+0.60*(${cpt}-1)
variable        zdes equal  -15+0.60*(8-1)
variable        zave equal xcm(H2,z)
fix             mytth2 H2 spring tether ${k1} 2.5 2.5 ${zdes} 0
fix             mytth2 H2 spring tether 0.7 2.5 2.5 ${zdes} 0
fix             mytth2 H2 spring tether 0.7 2.5 2.5 -10.8 0
run             10000
Generated 0 of 1 mixed pair_coeff terms from geometric mixing rule
Per MPI rank memory allocation (min/avg/max) = 13.32 | 13.62 | 14.95 Mbytes
   Step          Temp          E_pair         E_mol          TotEng         Press     
    440000   306.20317      381.54887      18538.521      19358.181     -99.139275    
    450000   298.54113      374.79091      18564.739      19366.679     -305.41438    
Loop time of 3.57634 on 64 procs for 10000 steps with 481 atoms

Performance: 12.079 ns/day, 1.987 hours/ns, 2796.157 timesteps/s, 1.345 Matom-step/s
100.0% CPU use with 64 MPI tasks x 1 OpenMP threads

MPI task timing breakdown:
Section |  min time  |  avg time  |  max time  |%varavg| %total
---------------------------------------------------------------
Pair    | 0.0030849  | 0.13389    | 0.90289    |  63.3 |  3.74
Bond    | 0.0010906  | 0.15394    | 0.8129     |  64.6 |  4.30
Neigh   | 0.0068771  | 0.0075972  | 0.0083485  |   0.4 |  0.21
Comm    | 1.5797     | 2.7412     | 3.2686     |  35.6 | 76.65
Output  | 0.0014493  | 0.0028323  | 0.0041853  |   1.6 |  0.08
Modify  | 0.14196    | 0.41279    | 1.8085     |  79.3 | 11.54
Other   |            | 0.124      |            |       |  3.47

Nlocal:        7.51562 ave          37 max           0 min
Histogram: 42 5 1 0 0 4 4 1 5 2
Nghost:         1817.7 ave        2402 max        1288 min
Histogram: 16 0 0 0 32 0 0 0 0 16
Neighs:              0 ave           0 max           0 min
Histogram: 64 0 0 0 0 0 0 0 0 0

Total # of neighbors = 0
Ave neighs/atom = 0
Ave special neighs/atom = 15.567568
Neighbor list builds = 16
Dangerous builds = 0
fix             myat1 all ave/time 1000 10 10000 v_zave v_zdes file simulation_data/abpot/${cpt}.dat
fix             myat1 all ave/time 1000 10 10000 v_zave v_zdes file simulation_data/abpot/8.dat
run             50000
Generated 0 of 1 mixed pair_coeff terms from geometric mixing rule
Per MPI rank memory allocation (min/avg/max) = 13.32 | 13.62 | 14.95 Mbytes
   Step          Temp          E_pair         E_mol          TotEng         Press     
    450000   298.54113      374.79091      18564.739      19366.679     -305.41438    
    460000   294.64514      392.10955      18493.991      19307.675      209.4543     
    470000   299.67852      384.29196      18506.113      19319.181     -188.21909    
    480000   296.84993      376.32073      18536.779      19337.829     -243.7279     
    490000   298.48972      386.17053      18544.356      19357.602     -45.368937    
    500000   322.0858       383.76529      18502.775      19347.377     -33.12845     
Loop time of 18.0163 on 64 procs for 50000 steps with 481 atoms

Performance: 11.989 ns/day, 2.002 hours/ns, 2775.264 timesteps/s, 1.335 Matom-step/s
100.0% CPU use with 64 MPI tasks x 1 OpenMP threads

MPI task timing breakdown:
Section |  min time  |  avg time  |  max time  |%varavg| %total
---------------------------------------------------------------
Pair    | 0.015472   | 0.66609    | 4.4567     | 141.2 |  3.70
Bond    | 0.005473   | 0.76714    | 4.0128     | 143.2 |  4.26
Neigh   | 0.049398   | 0.054884   | 0.060341   |   1.2 |  0.30
Comm    | 8.1411     | 13.782     | 16.413     |  79.5 | 76.50
Output  | 0.0073178  | 0.014324   | 0.020985   |   3.6 |  0.08
Modify  | 0.74088    | 2.1079     | 9.137      | 177.8 | 11.70
Other   |            | 0.624      |            |       |  3.46

Nlocal:        7.51562 ave          38 max           0 min
Histogram: 40 8 0 0 1 1 4 5 4 1
Nghost:        1823.52 ave        2415 max        1286 min
Histogram: 16 0 0 0 32 0 0 0 0 16
Neighs:              0 ave           0 max           0 min
Histogram: 64 0 0 0 0 0 0 0 0 0

Total # of neighbors = 0
Ave neighs/atom = 0
Ave special neighs/atom = 15.567568
Neighbor list builds = 121
Dangerous builds = 0
unfix           myat1
next            cpt
jump            SELF loop
variable        zdes equal  -15+0.60*(${cpt}-1)
variable        zdes equal  -15+0.60*(9-1)
variable        zave equal xcm(H2,z)
fix             mytth2 H2 spring tether ${k1} 2.5 2.5 ${zdes} 0
fix             mytth2 H2 spring tether 0.7 2.5 2.5 ${zdes} 0
fix             mytth2 H2 spring tether 0.7 2.5 2.5 -10.2 0
run             10000
Generated 0 of 1 mixed pair_coeff terms from geometric mixing rule
Per MPI rank memory allocation (min/avg/max) = 13.32 | 13.62 | 14.95 Mbytes
   Step          Temp          E_pair         E_mol          TotEng         Press     
    500000   322.0858       383.76529      18502.775      19347.377     -33.12845     
    510000   299.06993      393.60711      18506.505      19328.019      204.67155    
Loop time of 3.72367 on 64 procs for 10000 steps with 481 atoms

Performance: 11.601 ns/day, 2.069 hours/ns, 2685.522 timesteps/s, 1.292 Matom-step/s
100.0% CPU use with 64 MPI tasks x 1 OpenMP threads

MPI task timing breakdown:
Section |  min time  |  avg time  |  max time  |%varavg| %total
---------------------------------------------------------------
Pair    | 0.0030515  | 0.13446    | 0.90526    |  64.5 |  3.61
Bond    | 0.0011004  | 0.15367    | 0.77091    |  64.2 |  4.13
Neigh   | 0.013066   | 0.014471   | 0.015899   |   0.6 |  0.39
Comm    | 1.6342     | 2.8604     | 3.4125     |  36.6 | 76.82
Output  | 0.0014601  | 0.0028226  | 0.0041657  |   1.6 |  0.08
Modify  | 0.12549    | 0.43373    | 1.9384     |  83.9 | 11.65
Other   |            | 0.1242     |            |       |  3.33

Nlocal:        7.51562 ave          37 max           0 min
Histogram: 41 6 1 0 0 3 3 4 4 2
Nghost:         1825.2 ave        2420 max        1287 min
Histogram: 16 0 0 0 32 0 0 0 0 16
Neighs:              0 ave           0 max           0 min
Histogram: 64 0 0 0 0 0 0 0 0 0

Total # of neighbors = 0
Ave neighs/atom = 0
Ave special neighs/atom = 15.567568
Neighbor list builds = 32
Dangerous builds = 0
fix             myat1 all ave/time 1000 10 10000 v_zave v_zdes file simulation_data/abpot/${cpt}.dat
fix             myat1 all ave/time 1000 10 10000 v_zave v_zdes file simulation_data/abpot/9.dat
run             50000
Generated 0 of 1 mixed pair_coeff terms from geometric mixing rule
Per MPI rank memory allocation (min/avg/max) = 13.32 | 13.62 | 14.95 Mbytes
   Step          Temp          E_pair         E_mol          TotEng         Press     
    510000   299.06993      393.60711      18506.505      19328.019      204.67155    
    520000   291.58646      377.79123      18493.721      19288.711     -264.63597    
    530000   310.11204      388.10418      18512.981      19344.79       5.7486915    
    540000   308.07147      379.92908      18543.665      19364.379     -260.9445     
    550000   320.65047      390.5846       18508.975      19358.343      113.00532    
    560000   302.51781      391.13695      18502.374      19326.35       8.0434813    
Loop time of 17.9502 on 64 procs for 50000 steps with 481 atoms

Performance: 12.033 ns/day, 1.994 hours/ns, 2785.489 timesteps/s, 1.340 Matom-step/s
100.0% CPU use with 64 MPI tasks x 1 OpenMP threads

MPI task timing breakdown:
Section |  min time  |  avg time  |  max time  |%varavg| %total
---------------------------------------------------------------
Pair    | 0.015331   | 0.66851    | 4.5484     | 142.4 |  3.72
Bond    | 0.0054605  | 0.76906    | 4.0967     | 143.8 |  4.28
Neigh   | 0.052425   | 0.058133   | 0.064017   |   1.2 |  0.32
Comm    | 7.919      | 13.753     | 16.352     |  79.5 | 76.62
Output  | 0.0072567  | 0.014199   | 0.020825   |   3.6 |  0.08
Modify  | 0.72342    | 2.0648     | 9.058      | 177.3 | 11.50
Other   |            | 0.622      |            |       |  3.47

Nlocal:        7.51562 ave          32 max           0 min
Histogram: 42 4 2 0 0 0 2 2 5 7
Nghost:        1815.73 ave        2395 max        1293 min
Histogram: 16 0 0 0 32 0 0 0 0 16
Neighs:              0 ave           0 max           0 min
Histogram: 64 0 0 0 0 0 0 0 0 0

Total # of neighbors = 0
Ave neighs/atom = 0
Ave special neighs/atom = 15.567568
Neighbor list builds = 129
Dangerous builds = 0
unfix           myat1
next            cpt
jump            SELF loop
variable        zdes equal  -15+0.60*(${cpt}-1)
variable        zdes equal  -15+0.60*(10-1)
variable        zave equal xcm(H2,z)
fix             mytth2 H2 spring tether ${k1} 2.5 2.5 ${zdes} 0
fix             mytth2 H2 spring tether 0.7 2.5 2.5 ${zdes} 0
fix             mytth2 H2 spring tether 0.7 2.5 2.5 -9.6 0
run             10000
Generated 0 of 1 mixed pair_coeff terms from geometric mixing rule
Per MPI rank memory allocation (min/avg/max) = 13.32 | 13.62 | 14.95 Mbytes
   Step          Temp          E_pair         E_mol          TotEng         Press     
    560000   302.51781      391.13695      18502.374      19326.35       8.0434813    
    570000   288.86515      388.14947      18509.872      19311.327     -120.57416    
Loop time of 3.61224 on 64 procs for 10000 steps with 481 atoms

Performance: 11.959 ns/day, 2.007 hours/ns, 2768.368 timesteps/s, 1.332 Matom-step/s
99.9% CPU use with 64 MPI tasks x 1 OpenMP threads

MPI task timing breakdown:
Section |  min time  |  avg time  |  max time  |%varavg| %total
---------------------------------------------------------------
Pair    | 0.0030705  | 0.13404    | 0.88087    |  63.3 |  3.71
Bond    | 0.0010979  | 0.15427    | 0.79198    |  64.2 |  4.27
Neigh   | 0.010169   | 0.011239   | 0.012278   |   0.5 |  0.31
Comm    | 1.618      | 2.7535     | 3.2888     |  35.6 | 76.23
Output  | 0.0015047  | 0.002886   | 0.0042414  |   1.6 |  0.08
Modify  | 0.15062    | 0.42885    | 1.8434     |  79.0 | 11.87
Other   |            | 0.1275     |            |       |  3.53

Nlocal:        7.51562 ave          34 max           0 min
Histogram: 41 6 1 0 0 1 2 5 4 4
Nghost:        1817.33 ave        2405 max        1293 min
Histogram: 16 0 0 0 32 0 0 0 0 16
Neighs:              0 ave           0 max           0 min
Histogram: 64 0 0 0 0 0 0 0 0 0

Total # of neighbors = 0
Ave neighs/atom = 0
Ave special neighs/atom = 15.567568
Neighbor list builds = 24
Dangerous builds = 0
fix             myat1 all ave/time 1000 10 10000 v_zave v_zdes file simulation_data/abpot/${cpt}.dat
fix             myat1 all ave/time 1000 10 10000 v_zave v_zdes file simulation_data/abpot/10.dat
run             50000
Generated 0 of 1 mixed pair_coeff terms from geometric mixing rule
Per MPI rank memory allocation (min/avg/max) = 13.32 | 13.62 | 14.95 Mbytes
   Step          Temp          E_pair         E_mol          TotEng         Press     
    570000   288.86515      388.14947      18509.872      19311.327     -120.57416    
    580000   284.95037      389.63282      18499.569      19296.906      24.83954     
    590000   298.81304      385.7729       18524.215      19337.527     -195.3129     
    600000   307.18723      389.54073      18526.356      19355.416     -32.415304    
    610000   296.45524      386.05525      18540.139      19350.359     -100.56603    
    620000   295.79428      380.78391      18543.973      19347.976     -210.45517    
Loop time of 17.4481 on 64 procs for 50000 steps with 481 atoms

Performance: 12.380 ns/day, 1.939 hours/ns, 2865.647 timesteps/s, 1.378 Matom-step/s
100.0% CPU use with 64 MPI tasks x 1 OpenMP threads

MPI task timing breakdown:
Section |  min time  |  avg time  |  max time  |%varavg| %total
---------------------------------------------------------------
Pair    | 0.015361   | 0.66676    | 4.5108     | 141.8 |  3.82
Bond    | 0.005495   | 0.76813    | 4.0269     | 143.6 |  4.40
Neigh   | 0.040917   | 0.045527   | 0.050116   |   1.1 |  0.26
Comm    | 7.4643     | 13.336     | 15.906     |  78.0 | 76.43
Output  | 0.0071092  | 0.013999   | 0.020611   |   3.6 |  0.08
Modify  | 0.7112     | 1.9943     | 8.5751     | 168.9 | 11.43
Other   |            | 0.6235     |            |       |  3.57

Nlocal:        7.51562 ave          35 max           0 min
Histogram: 41 6 1 0 0 1 4 4 3 4
Nghost:        1818.64 ave        2402 max        1289 min
Histogram: 16 0 0 0 32 0 0 0 0 16
Neighs:              0 ave           0 max           0 min
Histogram: 64 0 0 0 0 0 0 0 0 0

Total # of neighbors = 0
Ave neighs/atom = 0
Ave special neighs/atom = 15.567568
Neighbor list builds = 101
Dangerous builds = 0
unfix           myat1
next            cpt
jump            SELF loop
variable        zdes equal  -15+0.60*(${cpt}-1)
variable        zdes equal  -15+0.60*(11-1)
variable        zave equal xcm(H2,z)
fix             mytth2 H2 spring tether ${k1} 2.5 2.5 ${zdes} 0
fix             mytth2 H2 spring tether 0.7 2.5 2.5 ${zdes} 0
fix             mytth2 H2 spring tether 0.7 2.5 2.5 -9 0
run             10000
Generated 0 of 1 mixed pair_coeff terms from geometric mixing rule
Per MPI rank memory allocation (min/avg/max) = 13.32 | 13.62 | 14.95 Mbytes
   Step          Temp          E_pair         E_mol          TotEng         Press     
    620000   295.79428      380.78391      18543.973      19347.976     -210.45517    
    630000   306.51121      389.57485      18514.495      19342.623      43.805214    
Loop time of 3.65648 on 64 procs for 10000 steps with 481 atoms

Performance: 11.815 ns/day, 2.031 hours/ns, 2734.872 timesteps/s, 1.315 Matom-step/s
100.0% CPU use with 64 MPI tasks x 1 OpenMP threads

MPI task timing breakdown:
Section |  min time  |  avg time  |  max time  |%varavg| %total
---------------------------------------------------------------
Pair    | 0.0030667  | 0.1336     | 0.94188    |  64.1 |  3.65
Bond    | 0.0010931  | 0.15373    | 0.86164    |  64.8 |  4.20
Neigh   | 0.0053431  | 0.0059038  | 0.0064748  |   0.4 |  0.16
Comm    | 1.5722     | 2.8087     | 3.3532     |  36.4 | 76.82
Output  | 0.0015162  | 0.0028837  | 0.0042307  |   1.6 |  0.08
Modify  | 0.13713    | 0.42751    | 1.8959     |  82.4 | 11.69
Other   |            | 0.1241     |            |       |  3.39

Nlocal:        7.51562 ave          37 max           0 min
Histogram: 44 2 2 0 1 2 3 4 4 2
Nghost:        1823.42 ave        2422 max        1289 min
Histogram: 16 0 0 0 32 0 0 0 0 16
Neighs:              0 ave           0 max           0 min
Histogram: 64 0 0 0 0 0 0 0 0 0

Total # of neighbors = 0
Ave neighs/atom = 0
Ave special neighs/atom = 15.567568
Neighbor list builds = 12
Dangerous builds = 0
fix             myat1 all ave/time 1000 10 10000 v_zave v_zdes file simulation_data/abpot/${cpt}.dat
fix             myat1 all ave/time 1000 10 10000 v_zave v_zdes file simulation_data/abpot/11.dat
run             50000
Generated 0 of 1 mixed pair_coeff terms from geometric mixing rule
Per MPI rank memory allocation (min/avg/max) = 13.32 | 13.62 | 14.95 Mbytes
   Step          Temp          E_pair         E_mol          TotEng         Press     
    630000   306.51121      389.57485      18514.495      19342.623      43.805214    
    640000   304.78113      390.58014      18518.101      19344.759      3.9047896    
    650000   322.48095      378.24258      18533.118      19372.763     -289.94929    
    660000   297.45156      388.88739      18549.909      19364.387     -139.42195    
    670000   293.25926      378.93312      18522.435      19320.961     -253.51835    
    680000   307.26891      377.22235      18534.61       19351.469     -458.08839    
Loop time of 17.9507 on 64 procs for 50000 steps with 481 atoms

Performance: 12.033 ns/day, 1.995 hours/ns, 2785.414 timesteps/s, 1.340 Matom-step/s
100.0% CPU use with 64 MPI tasks x 1 OpenMP threads

MPI task timing breakdown:
Section |  min time  |  avg time  |  max time  |%varavg| %total
---------------------------------------------------------------
Pair    | 0.015377   | 0.66723    | 4.5152     | 142.3 |  3.72
Bond    | 0.0054796  | 0.76977    | 4.1319     | 144.4 |  4.29
Neigh   | 0.027717   | 0.030736   | 0.033816   |   0.9 |  0.17
Comm    | 7.9084     | 13.775     | 16.413     |  80.1 | 76.74
Output  | 0.0073759  | 0.014243   | 0.020828   |   3.5 |  0.08
Modify  | 0.72082    | 2.0715     | 9.1436     | 178.7 | 11.54
Other   |            | 0.6221     |            |       |  3.47

Nlocal:        7.51562 ave          38 max           0 min
Histogram: 42 6 0 1 0 1 3 9 0 2
Nghost:        1821.17 ave        2415 max        1289 min
Histogram: 16 0 0 0 32 0 0 0 0 16
Neighs:              0 ave           0 max           0 min
Histogram: 64 0 0 0 0 0 0 0 0 0

Total # of neighbors = 0
Ave neighs/atom = 0
Ave special neighs/atom = 15.567568
Neighbor list builds = 66
Dangerous builds = 0
unfix           myat1
next            cpt
jump            SELF loop
variable        zdes equal  -15+0.60*(${cpt}-1)
variable        zdes equal  -15+0.60*(12-1)
variable        zave equal xcm(H2,z)
fix             mytth2 H2 spring tether ${k1} 2.5 2.5 ${zdes} 0
fix             mytth2 H2 spring tether 0.7 2.5 2.5 ${zdes} 0
fix             mytth2 H2 spring tether 0.7 2.5 2.5 -8.4 0
run             10000
Generated 0 of 1 mixed pair_coeff terms from geometric mixing rule
Per MPI rank memory allocation (min/avg/max) = 13.32 | 13.62 | 14.95 Mbytes
   Step          Temp          E_pair         E_mol          TotEng         Press     
    680000   307.26891      377.22235      18534.61       19351.469     -458.08839    
    690000   313.00843      383.54367      18531.677      19363.069     -91.85437     
Loop time of 3.60821 on 64 procs for 10000 steps with 481 atoms

Performance: 11.973 ns/day, 2.005 hours/ns, 2771.456 timesteps/s, 1.333 Matom-step/s
100.0% CPU use with 64 MPI tasks x 1 OpenMP threads

MPI task timing breakdown:
Section |  min time  |  avg time  |  max time  |%varavg| %total
---------------------------------------------------------------
Pair    | 0.0030862  | 0.13373    | 0.86156    |  63.3 |  3.71
Bond    | 0.0010752  | 0.15417    | 0.83603    |  64.7 |  4.27
Neigh   | 0.0058336  | 0.0064574  | 0.0070969  |   0.4 |  0.18
Comm    | 1.6182     | 2.7592     | 3.298      |  35.8 | 76.47
Output  | 0.0014459  | 0.0028177  | 0.0041697  |   1.6 |  0.08
Modify  | 0.15094    | 0.42734    | 1.847      |  79.4 | 11.84
Other   |            | 0.1245     |            |       |  3.45

Nlocal:        7.51562 ave          38 max           0 min
Histogram: 41 6 1 0 0 4 5 2 4 1
Nghost:         1822.3 ave        2418 max        1287 min
Histogram: 16 0 0 0 32 0 0 0 0 16
Neighs:              0 ave           0 max           0 min
Histogram: 64 0 0 0 0 0 0 0 0 0

Total # of neighbors = 0
Ave neighs/atom = 0
Ave special neighs/atom = 15.567568
Neighbor list builds = 14
Dangerous builds = 0
fix             myat1 all ave/time 1000 10 10000 v_zave v_zdes file simulation_data/abpot/${cpt}.dat
fix             myat1 all ave/time 1000 10 10000 v_zave v_zdes file simulation_data/abpot/12.dat
run             50000
Generated 0 of 1 mixed pair_coeff terms from geometric mixing rule
Per MPI rank memory allocation (min/avg/max) = 13.32 | 13.62 | 14.95 Mbytes
   Step          Temp          E_pair         E_mol          TotEng         Press     
    690000   313.00843      383.54367      18531.677      19363.069     -91.85437     
    700000   296.23283      396.19576      18519.921      19339.964      21.294506    
    710000   290.89131      393.56693      18509.345      19319.116     -53.805124    
    720000   293.74201      377.97206      18552.016      19350.271     -386.34365    
    730000   305.55922      393.21064      18526.577      19356.978     -125.34643    
    740000   328.42862      392.00882      18512.7        19374.621     -25.533367    
Loop time of 17.9602 on 64 procs for 50000 steps with 481 atoms

Performance: 12.027 ns/day, 1.996 hours/ns, 2783.935 timesteps/s, 1.339 Matom-step/s
100.0% CPU use with 64 MPI tasks x 1 OpenMP threads

MPI task timing breakdown:
Section |  min time  |  avg time  |  max time  |%varavg| %total
---------------------------------------------------------------
Pair    | 0.015404   | 0.67689    | 4.3407     | 143.0 |  3.77
Bond    | 0.0054603  | 0.7711     | 3.8865     | 144.3 |  4.29
Neigh   | 0.021158   | 0.023369   | 0.025639   |   0.8 |  0.13
Comm    | 8.0949     | 13.747     | 16.424     |  80.3 | 76.54
Output  | 0.0073434  | 0.014205   | 0.020817   |   3.5 |  0.08
Modify  | 0.72908    | 2.1047     | 9.157      | 177.8 | 11.72
Other   |            | 0.6229     |            |       |  3.47

Nlocal:        7.51562 ave          39 max           0 min
Histogram: 43 4 1 0 3 2 3 3 3 2
Nghost:        1825.48 ave        2419 max        1292 min
Histogram: 16 0 0 0 32 0 0 0 0 16
Neighs:              0 ave           0 max           0 min
Histogram: 64 0 0 0 0 0 0 0 0 0

Total # of neighbors = 0
Ave neighs/atom = 0
Ave special neighs/atom = 15.567568
Neighbor list builds = 50
Dangerous builds = 0
unfix           myat1
next            cpt
jump            SELF loop
variable        zdes equal  -15+0.60*(${cpt}-1)
variable        zdes equal  -15+0.60*(13-1)
variable        zave equal xcm(H2,z)
fix             mytth2 H2 spring tether ${k1} 2.5 2.5 ${zdes} 0
fix             mytth2 H2 spring tether 0.7 2.5 2.5 ${zdes} 0
fix             mytth2 H2 spring tether 0.7 2.5 2.5 -7.8 0
run             10000
Generated 0 of 1 mixed pair_coeff terms from geometric mixing rule
Per MPI rank memory allocation (min/avg/max) = 13.32 | 13.62 | 14.95 Mbytes
   Step          Temp          E_pair         E_mol          TotEng         Press     
    740000   328.42862      392.00882      18512.7        19374.621     -25.533367    
    750000   306.95002      387.82728      18511.939      19338.947     -122.00833    
Loop time of 3.58718 on 64 procs for 10000 steps with 481 atoms

Performance: 12.043 ns/day, 1.993 hours/ns, 2787.705 timesteps/s, 1.341 Matom-step/s
100.0% CPU use with 64 MPI tasks x 1 OpenMP threads

MPI task timing breakdown:
Section |  min time  |  avg time  |  max time  |%varavg| %total
---------------------------------------------------------------
Pair    | 0.003121   | 0.13689    | 0.94512    |  65.0 |  3.82
Bond    | 0.0010774  | 0.15503    | 0.82364    |  64.7 |  4.32
Neigh   | 0.0038612  | 0.0042661  | 0.0046815  |   0.3 |  0.12
Comm    | 1.5316     | 2.7485     | 3.2813     |  36.2 | 76.62
Output  | 0.0014407  | 0.002838   | 0.0042151  |   1.6 |  0.08
Modify  | 0.14328    | 0.41365    | 1.826      |  79.9 | 11.53
Other   |            | 0.126      |            |       |  3.51

Nlocal:        7.51562 ave          35 max           0 min
Histogram: 42 4 2 0 0 2 2 6 2 4
Nghost:        1824.55 ave        2421 max        1289 min
Histogram: 16 0 0 0 32 0 0 0 0 16
Neighs:              0 ave           0 max           0 min
Histogram: 64 0 0 0 0 0 0 0 0 0

Total # of neighbors = 0
Ave neighs/atom = 0
Ave special neighs/atom = 15.567568
Neighbor list builds = 9
Dangerous builds = 0
fix             myat1 all ave/time 1000 10 10000 v_zave v_zdes file simulation_data/abpot/${cpt}.dat
fix             myat1 all ave/time 1000 10 10000 v_zave v_zdes file simulation_data/abpot/13.dat
run             50000
Generated 0 of 1 mixed pair_coeff terms from geometric mixing rule
Per MPI rank memory allocation (min/avg/max) = 13.32 | 13.62 | 14.95 Mbytes
   Step          Temp          E_pair         E_mol          TotEng         Press     
    750000   306.95002      387.82728      18511.939      19338.947     -122.00833    
    760000   286.83571      391.35199      18532.243      19333.997     -108.55517    
    770000   312.43739      396.10924      18521.043      19364.185     -9.1180281    
    780000   305.03998      398.20899      18526.906      19361.563     -101.57816    
    790000   317.55873      399.61972      18487.802      19341.781      45.044973    
    800000   286.55216      390.39387      18531.846      19332.236     -127.66609    
Loop time of 17.9444 on 64 procs for 50000 steps with 481 atoms

Performance: 12.037 ns/day, 1.994 hours/ns, 2786.392 timesteps/s, 1.340 Matom-step/s
100.0% CPU use with 64 MPI tasks x 1 OpenMP threads

MPI task timing breakdown:
Section |  min time  |  avg time  |  max time  |%varavg| %total
---------------------------------------------------------------
Pair    | 0.015386   | 0.67769    | 4.6128     | 144.5 |  3.78
Bond    | 0.0054865  | 0.7696     | 4.1195     | 144.3 |  4.29
Neigh   | 0.020212   | 0.022418   | 0.024615   |   0.7 |  0.12
Comm    | 7.8184     | 13.746     | 16.412     |  80.7 | 76.61
Output  | 0.0072855  | 0.014156   | 0.020731   |   3.5 |  0.08
Modify  | 0.72955    | 2.091      | 9.1487     | 178.4 | 11.65
Other   |            | 0.6231     |            |       |  3.47

Nlocal:        7.51562 ave          34 max           0 min
Histogram: 42 4 2 0 0 0 5 3 3 5
Nghost:        1819.86 ave        2413 max        1290 min
Histogram: 16 0 0 0 32 0 0 0 0 16
Neighs:              0 ave           0 max           0 min
Histogram: 64 0 0 0 0 0 0 0 0 0

Total # of neighbors = 0
Ave neighs/atom = 0
Ave special neighs/atom = 15.567568
Neighbor list builds = 48
Dangerous builds = 0
unfix           myat1
next            cpt
jump            SELF loop
variable        zdes equal  -15+0.60*(${cpt}-1)
variable        zdes equal  -15+0.60*(14-1)
variable        zave equal xcm(H2,z)
fix             mytth2 H2 spring tether ${k1} 2.5 2.5 ${zdes} 0
fix             mytth2 H2 spring tether 0.7 2.5 2.5 ${zdes} 0
fix             mytth2 H2 spring tether 0.7 2.5 2.5 -7.2 0
run             10000
Generated 0 of 1 mixed pair_coeff terms from geometric mixing rule
Per MPI rank memory allocation (min/avg/max) = 13.32 | 13.62 | 14.95 Mbytes
   Step          Temp          E_pair         E_mol          TotEng         Press     
    800000   286.55216      390.39387      18531.846      19332.236     -127.66609    
    810000   303.05582      396.00495      18512.476      19342.089     -6.6468065    
Loop time of 3.48675 on 64 procs for 10000 steps with 481 atoms

Performance: 12.390 ns/day, 1.937 hours/ns, 2867.999 timesteps/s, 1.380 Matom-step/s
100.0% CPU use with 64 MPI tasks x 1 OpenMP threads

MPI task timing breakdown:
Section |  min time  |  avg time  |  max time  |%varavg| %total
---------------------------------------------------------------
Pair    | 0.0030373  | 0.13567    | 0.89247    |  64.6 |  3.89
Bond    | 0.0010851  | 0.15383    | 0.81135    |  64.6 |  4.41
Neigh   | 0.0041328  | 0.0045956  | 0.0050306  |   0.3 |  0.13
Comm    | 1.4935     | 2.6667     | 3.1909     |  35.5 | 76.48
Output  | 0.0014141  | 0.0027825  | 0.0041358  |   1.6 |  0.08
Modify  | 0.13363    | 0.39908    | 1.7259     |  76.1 | 11.45
Other   |            | 0.1241     |            |       |  3.56

Nlocal:        7.51562 ave          32 max           0 min
Histogram: 42 4 2 0 0 0 2 3 6 5
Nghost:        1824.55 ave        2422 max        1294 min
Histogram: 16 0 0 0 32 0 0 0 0 16
Neighs:              0 ave           0 max           0 min
Histogram: 64 0 0 0 0 0 0 0 0 0

Total # of neighbors = 0
Ave neighs/atom = 0
Ave special neighs/atom = 15.567568
Neighbor list builds = 10
Dangerous builds = 0
fix             myat1 all ave/time 1000 10 10000 v_zave v_zdes file simulation_data/abpot/${cpt}.dat
fix             myat1 all ave/time 1000 10 10000 v_zave v_zdes file simulation_data/abpot/14.dat
run             50000
Generated 0 of 1 mixed pair_coeff terms from geometric mixing rule
Per MPI rank memory allocation (min/avg/max) = 13.32 | 13.62 | 14.95 Mbytes
   Step          Temp          E_pair         E_mol          TotEng         Press     
    810000   303.05582      396.00495      18512.476      19342.089     -6.6468065    
    820000   286.88582      391.4419       18575.483      19377.398     -177.10765    
    830000   311.31714      399.23396      18531.092      19375.755      133.42663    
    840000   291.99152      397.55144      18520.013      19335.342      60.841574    
    850000   303.50007      386.12363      18496.672      19317.04      -173.61745    
    860000   281.11561      396.43663      18534.64       19333.294      28.828362    
Loop time of 18.0854 on 64 procs for 50000 steps with 481 atoms

Performance: 11.943 ns/day, 2.009 hours/ns, 2764.658 timesteps/s, 1.330 Matom-step/s
100.0% CPU use with 64 MPI tasks x 1 OpenMP threads

MPI task timing breakdown:
Section |  min time  |  avg time  |  max time  |%varavg| %total
---------------------------------------------------------------
Pair    | 0.015264   | 0.67603    | 4.5429     | 144.4 |  3.74
Bond    | 0.0054692  | 0.7686     | 4.0906     | 144.2 |  4.25
Neigh   | 0.020877   | 0.023166   | 0.025374   |   0.8 |  0.13
Comm    | 8.0078     | 13.851     | 16.554     |  80.9 | 76.59
Output  | 0.0072962  | 0.014168   | 0.020761   |   3.5 |  0.08
Modify  | 0.71941    | 2.129      | 9.2847     | 179.4 | 11.77
Other   |            | 0.6231     |            |       |  3.45

Nlocal:        7.51562 ave          41 max           0 min
Histogram: 44 3 1 0 4 2 3 2 3 2
Nghost:        1824.64 ave        2417 max        1283 min
Histogram: 16 0 0 0 32 0 0 0 0 16
Neighs:              0 ave           0 max           0 min
Histogram: 64 0 0 0 0 0 0 0 0 0

Total # of neighbors = 0
Ave neighs/atom = 0
Ave special neighs/atom = 15.567568
Neighbor list builds = 49
Dangerous builds = 0
unfix           myat1
next            cpt
jump            SELF loop
variable        zdes equal  -15+0.60*(${cpt}-1)
variable        zdes equal  -15+0.60*(15-1)
variable        zave equal xcm(H2,z)
fix             mytth2 H2 spring tether ${k1} 2.5 2.5 ${zdes} 0
fix             mytth2 H2 spring tether 0.7 2.5 2.5 ${zdes} 0
fix             mytth2 H2 spring tether 0.7 2.5 2.5 -6.6 0
run             10000
Generated 0 of 1 mixed pair_coeff terms from geometric mixing rule
Per MPI rank memory allocation (min/avg/max) = 13.32 | 13.62 | 14.95 Mbytes
   Step          Temp          E_pair         E_mol          TotEng         Press     
    860000   281.11561      396.43663      18534.64       19333.294      28.828362    
    870000   297.5757       391.8969       18541.029      19358.694     -189.3554     
Loop time of 3.5947 on 64 procs for 10000 steps with 481 atoms

Performance: 12.018 ns/day, 1.997 hours/ns, 2781.875 timesteps/s, 1.338 Matom-step/s
100.0% CPU use with 64 MPI tasks x 1 OpenMP threads

MPI task timing breakdown:
Section |  min time  |  avg time  |  max time  |%varavg| %total
---------------------------------------------------------------
Pair    | 0.003041   | 0.13515    | 0.90325    |  64.5 |  3.76
Bond    | 0.0010941  | 0.1535     | 0.81102    |  64.6 |  4.27
Neigh   | 0.0037488  | 0.0041571  | 0.0045667  |   0.3 |  0.12
Comm    | 1.5995     | 2.7516     | 3.2906     |  36.0 | 76.55
Output  | 0.0014387  | 0.0027904  | 0.0041201  |   1.6 |  0.08
Modify  | 0.1426     | 0.42326    | 1.8471     |  79.3 | 11.77
Other   |            | 0.1242     |            |       |  3.46

Nlocal:        7.51562 ave          37 max           0 min
Histogram: 43 3 2 0 2 2 2 4 3 3
Nghost:        1822.39 ave        2413 max        1288 min
Histogram: 16 0 0 0 32 0 0 0 0 16
Neighs:              0 ave           0 max           0 min
Histogram: 64 0 0 0 0 0 0 0 0 0

Total # of neighbors = 0
Ave neighs/atom = 0
Ave special neighs/atom = 15.567568
Neighbor list builds = 9
Dangerous builds = 0
fix             myat1 all ave/time 1000 10 10000 v_zave v_zdes file simulation_data/abpot/${cpt}.dat
fix             myat1 all ave/time 1000 10 10000 v_zave v_zdes file simulation_data/abpot/15.dat
run             50000
Generated 0 of 1 mixed pair_coeff terms from geometric mixing rule
Per MPI rank memory allocation (min/avg/max) = 13.32 | 13.62 | 14.95 Mbytes
   Step          Temp          E_pair         E_mol          TotEng         Press     
    870000   297.5757       391.8969       18541.029      19358.694     -189.3554     
    880000   312.86647      382.14256      18525.505      19355.293     -311.71288    
    890000   311.25477      396.08641      18512.263      19353.689      41.695456    
    900000   310.54751      387.80479      18499.391      19331.523     -51.798302    
    910000   290.44174      392.82145      18524.835      19333.217     -200.81365    
    920000   314.96165      383.42674      18521.613      19355.683     -334.69996    
Loop time of 17.9432 on 64 procs for 50000 steps with 481 atoms

Performance: 12.038 ns/day, 1.994 hours/ns, 2786.564 timesteps/s, 1.340 Matom-step/s
100.0% CPU use with 64 MPI tasks x 1 OpenMP threads

MPI task timing breakdown:
Section |  min time  |  avg time  |  max time  |%varavg| %total
---------------------------------------------------------------
Pair    | 0.01524    | 0.67482    | 4.6627     | 143.7 |  3.76
Bond    | 0.0054556  | 0.76772    | 4.1451     | 144.0 |  4.28
Neigh   | 0.018404   | 0.02041    | 0.022423   |   0.7 |  0.11
Comm    | 7.7383     | 13.733     | 16.419     |  79.6 | 76.53
Output  | 0.0071858  | 0.014048   | 0.020658   |   3.6 |  0.08
Modify  | 0.73814    | 2.1116     | 9.133      | 175.8 | 11.77
Other   |            | 0.622      |            |       |  3.47

Nlocal:        7.51562 ave          37 max           0 min
Histogram: 42 5 1 0 0 5 1 4 4 2
Nghost:        1816.67 ave        2404 max        1287 min
Histogram: 16 0 0 0 32 0 0 0 0 16
Neighs:              0 ave           0 max           0 min
Histogram: 64 0 0 0 0 0 0 0 0 0

Total # of neighbors = 0
Ave neighs/atom = 0
Ave special neighs/atom = 15.567568
Neighbor list builds = 44
Dangerous builds = 0
unfix           myat1
next            cpt
jump            SELF loop
variable        zdes equal  -15+0.60*(${cpt}-1)
variable        zdes equal  -15+0.60*(16-1)
variable        zave equal xcm(H2,z)
fix             mytth2 H2 spring tether ${k1} 2.5 2.5 ${zdes} 0
fix             mytth2 H2 spring tether 0.7 2.5 2.5 ${zdes} 0
fix             mytth2 H2 spring tether 0.7 2.5 2.5 -6 0
run             10000
Generated 0 of 1 mixed pair_coeff terms from geometric mixing rule
Per MPI rank memory allocation (min/avg/max) = 13.32 | 13.62 | 14.95 Mbytes
   Step          Temp          E_pair         E_mol          TotEng         Press     
    920000   314.96165      383.42674      18521.613      19355.683     -334.69996    
    930000   310.97488      400.86864      18521.243      19367.051      257.19595    
Loop time of 3.57159 on 64 procs for 10000 steps with 481 atoms

Performance: 12.095 ns/day, 1.984 hours/ns, 2799.870 timesteps/s, 1.347 Matom-step/s
100.0% CPU use with 64 MPI tasks x 1 OpenMP threads

MPI task timing breakdown:
Section |  min time  |  avg time  |  max time  |%varavg| %total
---------------------------------------------------------------
Pair    | 0.003046   | 0.13621    | 0.86889    |  64.1 |  3.81
Bond    | 0.0010847  | 0.15449    | 0.80711    |  64.2 |  4.33
Neigh   | 0.0041597  | 0.0046176  | 0.0050741  |   0.4 |  0.13
Comm    | 1.6144     | 2.7326     | 3.2798     |  35.7 | 76.51
Output  | 0.0014363  | 0.0028126  | 0.0041707  |   1.6 |  0.08
Modify  | 0.13785    | 0.41495    | 1.8144     |  79.1 | 11.62
Other   |            | 0.126      |            |       |  3.53

Nlocal:        7.51562 ave          42 max           0 min
Histogram: 44 4 0 1 1 4 5 3 1 1
Nghost:        1820.33 ave        2408 max        1282 min
Histogram: 16 0 0 0 32 0 0 0 0 16
Neighs:              0 ave           0 max           0 min
Histogram: 64 0 0 0 0 0 0 0 0 0

Total # of neighbors = 0
Ave neighs/atom = 0
Ave special neighs/atom = 15.567568
Neighbor list builds = 10
Dangerous builds = 0
fix             myat1 all ave/time 1000 10 10000 v_zave v_zdes file simulation_data/abpot/${cpt}.dat
fix             myat1 all ave/time 1000 10 10000 v_zave v_zdes file simulation_data/abpot/16.dat
run             50000
Generated 0 of 1 mixed pair_coeff terms from geometric mixing rule
Per MPI rank memory allocation (min/avg/max) = 13.32 | 13.62 | 14.95 Mbytes
   Step          Temp          E_pair         E_mol          TotEng         Press     
    930000   310.97488      400.86864      18521.243      19367.051      257.19595    
    940000   285.27334      394.11966      18547.598      19349.884     -106.15971    
    950000   308.60497      387.19063      18508.427      19337.167     -152.99834    
    960000   289.34091      387.73048      18526.436      19328.152     -134.37942    
    970000   304.34157      384.03087      18525.395      19344.874     -320.53184    
    980000   301.24813      405.44584      18530.553      19367.021      237.62463    
Loop time of 17.5641 on 64 procs for 50000 steps with 481 atoms

Performance: 12.298 ns/day, 1.952 hours/ns, 2846.721 timesteps/s, 1.369 Matom-step/s
100.0% CPU use with 64 MPI tasks x 1 OpenMP threads

MPI task timing breakdown:
Section |  min time  |  avg time  |  max time  |%varavg| %total
---------------------------------------------------------------
Pair    | 0.015268   | 0.67591    | 4.4694     | 143.0 |  3.85
Bond    | 0.0054066  | 0.76683    | 4.0431     | 143.2 |  4.37
Neigh   | 0.021011   | 0.023304   | 0.02569    |   0.8 |  0.13
Comm    | 7.6559     | 13.428     | 16.048     |  78.8 | 76.45
Output  | 0.0071131  | 0.013994   | 0.020566   |   3.6 |  0.08
Modify  | 0.72083    | 2.0327     | 8.7676     | 171.7 | 11.57
Other   |            | 0.6233     |            |       |  3.55

Nlocal:        7.51562 ave          34 max           0 min
Histogram: 42 4 2 0 0 2 1 5 5 3
Nghost:        1820.05 ave        2418 max        1290 min
Histogram: 16 0 0 0 32 0 0 0 0 16
Neighs:              0 ave           0 max           0 min
Histogram: 64 0 0 0 0 0 0 0 0 0

Total # of neighbors = 0
Ave neighs/atom = 0
Ave special neighs/atom = 15.567568
Neighbor list builds = 51
Dangerous builds = 0
unfix           myat1
next            cpt
jump            SELF loop
variable        zdes equal  -15+0.60*(${cpt}-1)
variable        zdes equal  -15+0.60*(17-1)
variable        zave equal xcm(H2,z)
fix             mytth2 H2 spring tether ${k1} 2.5 2.5 ${zdes} 0
fix             mytth2 H2 spring tether 0.7 2.5 2.5 ${zdes} 0
fix             mytth2 H2 spring tether 0.7 2.5 2.5 -5.4 0
run             10000
Generated 0 of 1 mixed pair_coeff terms from geometric mixing rule
Per MPI rank memory allocation (min/avg/max) = 13.32 | 13.62 | 14.95 Mbytes
   Step          Temp          E_pair         E_mol          TotEng         Press     
    980000   301.24813      405.44584      18530.553      19367.021      237.62463    
    990000   293.94362      396.4887       18507.161      19324.221      124.33931    
Loop time of 3.58184 on 64 procs for 10000 steps with 481 atoms

Performance: 12.061 ns/day, 1.990 hours/ns, 2791.860 timesteps/s, 1.343 Matom-step/s
100.0% CPU use with 64 MPI tasks x 1 OpenMP threads

MPI task timing breakdown:
Section |  min time  |  avg time  |  max time  |%varavg| %total
---------------------------------------------------------------
Pair    | 0.0030426  | 0.13498    | 0.96663    |  64.8 |  3.77
Bond    | 0.0010718  | 0.15351    | 0.88251    |  64.6 |  4.29
Neigh   | 0.0037918  | 0.004223   | 0.0046327  |   0.3 |  0.12
Comm    | 1.4683     | 2.749      | 3.2788     |  36.0 | 76.75
[...]
Section |  min time  |  avg time  |  max time  |%varavg| %total
---------------------------------------------------------------
Pair    | 0.0030161  | 0.13398    | 0.89965    |  64.0 |  3.84
Bond    | 0.0010793  | 0.15756    | 0.79583    |  65.2 |  4.51
Neigh   | 0.003558   | 0.0040209  | 0.0044385  |   0.3 |  0.12
Comm    | 1.5803     | 2.6658     | 3.1933     |  35.3 | 76.32
Output  | 0.0014411  | 0.0028318  | 0.0041803  |   1.6 |  0.08
Modify  | 0.14128    | 0.40379    | 1.7331     |  75.9 | 11.56
Other   |            | 0.125      |            |       |  3.58

Nlocal:        7.51562 ave          32 max           0 min
Histogram: 44 0 4 0 0 0 1 1 8 6
Nghost:        1824.55 ave        2422 max        1292 min
Histogram: 16 0 0 0 32 0 0 0 0 16
Neighs:              0 ave           0 max           0 min
Histogram: 64 0 0 0 0 0 0 0 0 0

Total # of neighbors = 0
Ave neighs/atom = 0
Ave special neighs/atom = 15.567568
Neighbor list builds = 9
Dangerous builds = 0
fix             myat1 all ave/time 1000 10 10000 v_zave v_zdes file simulation_data/abpot/${cpt}.dat
fix             myat1 all ave/time 1000 10 10000 v_zave v_zdes file simulation_data/abpot/47.dat
run             50000
Generated 0 of 1 mixed pair_coeff terms from geometric mixing rule
Per MPI rank memory allocation (min/avg/max) = 13.32 | 13.62 | 14.95 Mbytes
   Step          Temp          E_pair         E_mol          TotEng         Press     
   2790000   301.48539      390.90337      18498.035      19320.3        124.21783    
   2800000   312.54507      379.14308      18527.521      19353.85      -260.69714    
   2810000   328.635        385.86972      18505.48       19361.557      50.230114    
   2820000   277.7942       389.55024      18499.178      19286.193     -13.822856    
   2830000   290.91778      385.88531      18534.462      19336.59       1.0687471    
   2840000   294.49037      386.53924      18535.569      19343.462     -145.96328    
Loop time of 17.4356 on 64 procs for 50000 steps with 481 atoms

Performance: 12.388 ns/day, 1.937 hours/ns, 2867.696 timesteps/s, 1.379 Matom-step/s
100.0% CPU use with 64 MPI tasks x 1 OpenMP threads

MPI task timing breakdown:
Section |  min time  |  avg time  |  max time  |%varavg| %total
---------------------------------------------------------------
Pair    | 0.015098   | 0.67091    | 4.3929     | 142.6 |  3.85
Bond    | 0.0053803  | 0.78795    | 3.8619     | 145.9 |  4.52
Neigh   | 0.04173    | 0.046474   | 0.051249   |   1.1 |  0.27
Comm    | 7.9409     | 13.296     | 15.912     |  78.2 | 76.26
Output  | 0.0076772  | 0.014595   | 0.021195   |   3.5 |  0.08
Modify  | 0.69162    | 1.9969     | 8.5528     | 167.9 | 11.45
Other   |            | 0.6229     |            |       |  3.57

Nlocal:        7.51562 ave          35 max           0 min
Histogram: 42 5 1 0 0 0 4 5 5 2
Nghost:        1822.77 ave        2418 max        1289 min
Histogram: 16 0 0 0 32 0 0 0 0 16
Neighs:              0 ave           0 max           0 min
Histogram: 64 0 0 0 0 0 0 0 0 0

Total # of neighbors = 0
Ave neighs/atom = 0
Ave special neighs/atom = 15.567568
Neighbor list builds = 104
Dangerous builds = 0
unfix           myat1
next            cpt
jump            SELF loop
variable        zdes equal  -15+0.60*(${cpt}-1)
variable        zdes equal  -15+0.60*(48-1)
variable        zave equal xcm(H2,z)
fix             mytth2 H2 spring tether ${k1} 2.5 2.5 ${zdes} 0
fix             mytth2 H2 spring tether 0.7 2.5 2.5 ${zdes} 0
fix             mytth2 H2 spring tether 0.7 2.5 2.5 13.2 0
run             10000
Generated 0 of 1 mixed pair_coeff terms from geometric mixing rule
Per MPI rank memory allocation (min/avg/max) = 13.32 | 13.62 | 14.95 Mbytes
   Step          Temp          E_pair         E_mol          TotEng         Press     
   2840000   294.49037      386.53924      18535.569      19343.462     -145.96328    
   2850000   301.16095      380.84921      18544.448      19356.195     -311.61866    
Loop time of 3.50897 on 64 procs for 10000 steps with 481 atoms

Performance: 12.311 ns/day, 1.949 hours/ns, 2849.837 timesteps/s, 1.371 Matom-step/s
100.0% CPU use with 64 MPI tasks x 1 OpenMP threads

MPI task timing breakdown:
Section |  min time  |  avg time  |  max time  |%varavg| %total
---------------------------------------------------------------
Pair    | 0.003079   | 0.13527    | 0.88574    |  64.1 |  3.85
Bond    | 0.001122   | 0.15873    | 0.78447    |  65.6 |  4.52
Neigh   | 0.0096375  | 0.010745   | 0.011824   |   0.6 |  0.31
Comm    | 1.6211     | 2.6751     | 3.1947     |  35.2 | 76.23
Output  | 0.0014601  | 0.0028349  | 0.004178   |   1.6 |  0.08
Modify  | 0.13746    | 0.40021    | 1.7392     |  75.8 | 11.41
Other   |            | 0.1261     |            |       |  3.59

Nlocal:        7.51562 ave          39 max           0 min
Histogram: 42 6 0 1 0 4 2 5 2 2
Nghost:         1822.2 ave        2411 max        1285 min
Histogram: 16 0 0 0 32 0 0 0 0 16
Neighs:              0 ave           0 max           0 min
Histogram: 64 0 0 0 0 0 0 0 0 0

Total # of neighbors = 0
Ave neighs/atom = 0
Ave special neighs/atom = 15.567568
Neighbor list builds = 24
Dangerous builds = 0
fix             myat1 all ave/time 1000 10 10000 v_zave v_zdes file simulation_data/abpot/${cpt}.dat
fix             myat1 all ave/time 1000 10 10000 v_zave v_zdes file simulation_data/abpot/48.dat
run             50000
Generated 0 of 1 mixed pair_coeff terms from geometric mixing rule
Per MPI rank memory allocation (min/avg/max) = 13.32 | 13.62 | 14.95 Mbytes
   Step          Temp          E_pair         E_mol          TotEng         Press     
   2850000   301.16095      380.84921      18544.448      19356.195     -311.61866    
   2860000   295.70943      383.12559      18534.242      19340.465     -40.627885    
   2870000   301.77615      391.49541      18511.064      19334.337      157.34395    
   2880000   284.0991       373.16413      18560.675      19340.325     -392.20197    
   2890000   298.1162       383.50146      18527.602      19337.645     -182.6805     
   2900000   329.66253      396.99641      18524.952      19393.626      298.19761    
Loop time of 17.6212 on 64 procs for 50000 steps with 481 atoms

Performance: 12.258 ns/day, 1.958 hours/ns, 2837.497 timesteps/s, 1.365 Matom-step/s
100.0% CPU use with 64 MPI tasks x 1 OpenMP threads

MPI task timing breakdown:
Section |  min time  |  avg time  |  max time  |%varavg| %total
---------------------------------------------------------------
Pair    | 0.015605   | 0.67011    | 4.295      | 141.9 |  3.80
Bond    | 0.0053442  | 0.78767    | 4.1958     | 145.8 |  4.47
Neigh   | 0.040041   | 0.044676   | 0.049191   |   1.1 |  0.25
Comm    | 8.1232     | 13.437     | 16.053     |  78.4 | 76.26
Output  | 0.0073951  | 0.014297   | 0.020913   |   3.5 |  0.08
Modify  | 0.71366    | 2.0455     | 8.7713     | 170.2 | 11.61
Other   |            | 0.6218     |            |       |  3.53

Nlocal:        7.51562 ave          36 max           0 min
Histogram: 42 6 0 0 0 1 4 3 7 1
Nghost:        1829.42 ave        2429 max        1288 min
Histogram: 16 0 0 0 32 0 0 0 0 16
Neighs:              0 ave           0 max           0 min
Histogram: 64 0 0 0 0 0 0 0 0 0

Total # of neighbors = 0
Ave neighs/atom = 0
Ave special neighs/atom = 15.567568
Neighbor list builds = 100
Dangerous builds = 0
unfix           myat1
next            cpt
jump            SELF loop
variable        zdes equal  -15+0.60*(${cpt}-1)
variable        zdes equal  -15+0.60*(49-1)
variable        zave equal xcm(H2,z)
fix             mytth2 H2 spring tether ${k1} 2.5 2.5 ${zdes} 0
fix             mytth2 H2 spring tether 0.7 2.5 2.5 ${zdes} 0
fix             mytth2 H2 spring tether 0.7 2.5 2.5 13.8 0
run             10000
Generated 0 of 1 mixed pair_coeff terms from geometric mixing rule
Per MPI rank memory allocation (min/avg/max) = 13.32 | 13.62 | 14.95 Mbytes
   Step          Temp          E_pair         E_mol          TotEng         Press     
   2900000   329.66253      396.99641      18524.952      19393.626      298.19761    
   2910000   296.84902      388.19557      18537.738      19350.662     -28.525863    
Loop time of 3.45086 on 64 procs for 10000 steps with 481 atoms

Performance: 12.519 ns/day, 1.917 hours/ns, 2897.830 timesteps/s, 1.394 Matom-step/s
100.0% CPU use with 64 MPI tasks x 1 OpenMP threads

MPI task timing breakdown:
Section |  min time  |  avg time  |  max time  |%varavg| %total
---------------------------------------------------------------
Pair    | 0.0031262  | 0.13426    | 0.8856     |  63.6 |  3.89
Bond    | 0.001068   | 0.15785    | 0.81742    |  65.3 |  4.57
Neigh   | 0.0071408  | 0.0078694  | 0.0086232  |   0.4 |  0.23
Comm    | 1.5566     | 2.6239     | 3.1481     |  34.7 | 76.04
Output  | 0.0014372  | 0.0028114  | 0.0041436  |   1.6 |  0.08
Modify  | 0.13348    | 0.40034    | 1.6769     |  73.3 | 11.60
Other   |            | 0.1238     |            |       |  3.59

Nlocal:        7.51562 ave          36 max           0 min
Histogram: 41 6 1 0 0 2 5 3 3 3
Nghost:        1824.73 ave        2423 max        1288 min
Histogram: 16 0 0 0 32 0 0 0 0 16
Neighs:              0 ave           0 max           0 min
Histogram: 64 0 0 0 0 0 0 0 0 0

Total # of neighbors = 0
Ave neighs/atom = 0
Ave special neighs/atom = 15.567568
Neighbor list builds = 17
Dangerous builds = 0
fix             myat1 all ave/time 1000 10 10000 v_zave v_zdes file simulation_data/abpot/${cpt}.dat
fix             myat1 all ave/time 1000 10 10000 v_zave v_zdes file simulation_data/abpot/49.dat
run             50000
Generated 0 of 1 mixed pair_coeff terms from geometric mixing rule
Per MPI rank memory allocation (min/avg/max) = 13.32 | 13.62 | 14.95 Mbytes
   Step          Temp          E_pair         E_mol          TotEng         Press     
   2910000   296.84902      388.19557      18537.738      19350.662     -28.525863    
   2920000   295.02794      377.77857      18527.671      19327.572     -227.39982    
   2930000   300.77622      379.67419      18542.886      19352.907     -213.64281    
   2940000   316.32721      389.00922      18538.971      19380.577      40.130891    
   2950000   289.2473       378.75729      18528.803      19321.412     -139.3742     
   2960000   289.95942      374.74505      18534.354      19323.97      -244.37812    
Loop time of 17.2786 on 64 procs for 50000 steps with 481 atoms

Performance: 12.501 ns/day, 1.920 hours/ns, 2893.760 timesteps/s, 1.392 Matom-step/s
100.0% CPU use with 64 MPI tasks x 1 OpenMP threads

MPI task timing breakdown:
Section |  min time  |  avg time  |  max time  |%varavg| %total
---------------------------------------------------------------
Pair    | 0.015461   | 0.67051    | 4.2065     | 141.9 |  3.88
Bond    | 0.0053901  | 0.78898    | 3.8047     | 145.6 |  4.57
Neigh   | 0.028338   | 0.031707   | 0.035009   |   1.0 |  0.18
Comm    | 7.8704     | 13.155     | 15.739     |  77.7 | 76.14
Output  | 0.0073358  | 0.014252   | 0.020834   |   3.6 |  0.08
Modify  | 0.70114    | 1.9923     | 8.4449     | 165.5 | 11.53
Other   |            | 0.6255     |            |       |  3.62

Nlocal:        7.51562 ave          33 max           0 min
Histogram: 42 4 2 0 0 0 3 3 5 5
Nghost:        1813.39 ave        2391 max        1291 min
Histogram: 16 0 0 0 32 0 0 0 0 16
Neighs:              0 ave           0 max           0 min
Histogram: 64 0 0 0 0 0 0 0 0 0

Total # of neighbors = 0
Ave neighs/atom = 0
Ave special neighs/atom = 15.567568
Neighbor list builds = 72
Dangerous builds = 0
unfix           myat1
next            cpt
jump            SELF loop
variable        zdes equal  -15+0.60*(${cpt}-1)
variable        zdes equal  -15+0.60*(50-1)
variable        zave equal xcm(H2,z)
fix             mytth2 H2 spring tether ${k1} 2.5 2.5 ${zdes} 0
fix             mytth2 H2 spring tether 0.7 2.5 2.5 ${zdes} 0
fix             mytth2 H2 spring tether 0.7 2.5 2.5 14.4 0
run             10000
Generated 0 of 1 mixed pair_coeff terms from geometric mixing rule
Per MPI rank memory allocation (min/avg/max) = 13.32 | 13.62 | 14.95 Mbytes
   Step          Temp          E_pair         E_mol          TotEng         Press     
   2960000   289.95942      374.74505      18534.354      19323.97      -244.37812    
   2970000   308.93105      385.22245      18523.825      19351.062      114.04684    
Loop time of 3.50653 on 64 procs for 10000 steps with 481 atoms

Performance: 12.320 ns/day, 1.948 hours/ns, 2851.818 timesteps/s, 1.372 Matom-step/s
100.0% CPU use with 64 MPI tasks x 1 OpenMP threads

MPI task timing breakdown:
Section |  min time  |  avg time  |  max time  |%varavg| %total
---------------------------------------------------------------
Pair    | 0.0030521  | 0.13373    | 0.87049    |  63.9 |  3.81
Bond    | 0.0010709  | 0.15741    | 0.79804    |  65.3 |  4.49
Neigh   | 0.0049111  | 0.0054635  | 0.0060191  |   0.4 |  0.16
Comm    | 1.5666     | 2.6752     | 3.2015     |  35.2 | 76.29
Output  | 0.0014872  | 0.0028749  | 0.0042388  |   1.6 |  0.08
Modify  | 0.14403    | 0.40765    | 1.7436     |  75.9 | 11.63
Other   |            | 0.1242     |            |       |  3.54

Nlocal:        7.51562 ave          35 max           0 min
Histogram: 42 4 2 0 0 1 3 5 4 3
Nghost:        1814.14 ave        2397 max        1289 min
Histogram: 16 0 0 0 32 0 0 0 0 16
Neighs:              0 ave           0 max           0 min
Histogram: 64 0 0 0 0 0 0 0 0 0

Total # of neighbors = 0
Ave neighs/atom = 0
Ave special neighs/atom = 15.567568
Neighbor list builds = 12
Dangerous builds = 0
fix             myat1 all ave/time 1000 10 10000 v_zave v_zdes file simulation_data/abpot/${cpt}.dat
fix             myat1 all ave/time 1000 10 10000 v_zave v_zdes file simulation_data/abpot/50.dat
run             50000
Generated 0 of 1 mixed pair_coeff terms from geometric mixing rule
Per MPI rank memory allocation (min/avg/max) = 13.32 | 13.62 | 14.95 Mbytes
   Step          Temp          E_pair         E_mol          TotEng         Press     
   2970000   308.93105      385.22245      18523.825      19351.062      114.04684    
   2980000   306.51507      384.06087      18535.509      19358.128     -137.95265    
   2990000   303.24559      390.57137      18512.59       19337.042      33.824711    
   3000000   286.46869      383.41155      18512.721      19306.008      28.510543    
   3010000   292.70055      379.36969      18539.421      19337.583     -285.29526    
   3020000   309.56106      388.59556      18532.424      19363.936      17.619788    
Loop time of 17.825 on 64 procs for 50000 steps with 481 atoms

Performance: 12.118 ns/day, 1.981 hours/ns, 2805.045 timesteps/s, 1.349 Matom-step/s
100.0% CPU use with 64 MPI tasks x 1 OpenMP threads

MPI task timing breakdown:
Section |  min time  |  avg time  |  max time  |%varavg| %total
---------------------------------------------------------------
Pair    | 0.015491   | 0.66953    | 4.2944     | 142.3 |  3.76
Bond    | 0.0053452  | 0.78773    | 3.9231     | 145.9 |  4.42
Neigh   | 0.024576   | 0.027399   | 0.030187   |   0.9 |  0.15
Comm    | 8.1178     | 13.632     | 16.304     |  79.4 | 76.48
Output  | 0.0073718  | 0.014325   | 0.020905   |   3.6 |  0.08
Modify  | 0.69944    | 2.0731     | 8.9978     | 174.6 | 11.63
Other   |            | 0.6212     |            |       |  3.48

Nlocal:        7.51562 ave          34 max           0 min
Histogram: 39 9 0 0 0 2 2 4 3 5
Nghost:         1819.2 ave        2407 max        1291 min
Histogram: 16 0 0 0 32 0 0 0 0 16
Neighs:              0 ave           0 max           0 min
Histogram: 64 0 0 0 0 0 0 0 0 0

Total # of neighbors = 0
Ave neighs/atom = 0
Ave special neighs/atom = 15.567568
Neighbor list builds = 61
Dangerous builds = 0
unfix           myat1
next            cpt
jump            SELF loop
variable        zdes equal  -15+0.60*(${cpt}-1)
variable        zdes equal  -15+0.60*(51-1)
variable        zave equal xcm(H2,z)
fix             mytth2 H2 spring tether ${k1} 2.5 2.5 ${zdes} 0
fix             mytth2 H2 spring tether 0.7 2.5 2.5 ${zdes} 0
fix             mytth2 H2 spring tether 0.7 2.5 2.5 15 0
run             10000
Generated 0 of 1 mixed pair_coeff terms from geometric mixing rule
Per MPI rank memory allocation (min/avg/max) = 13.32 | 13.62 | 14.95 Mbytes
   Step          Temp          E_pair         E_mol          TotEng         Press     
   3020000   309.56106      388.59556      18532.424      19363.936      17.619788    
   3030000   322.12167      385.09192      18526.449      19372.429     -53.295024    
Loop time of 3.62874 on 64 procs for 10000 steps with 481 atoms

Performance: 11.905 ns/day, 2.016 hours/ns, 2755.775 timesteps/s, 1.326 Matom-step/s
100.0% CPU use with 64 MPI tasks x 1 OpenMP threads

MPI task timing breakdown:
Section |  min time  |  avg time  |  max time  |%varavg| %total
---------------------------------------------------------------
Pair    | 0.0033286  | 0.13419    | 0.89289    |  64.1 |  3.70
Bond    | 0.0010631  | 0.15791    | 0.78476    |  65.3 |  4.35
Neigh   | 0.0047264  | 0.0052359  | 0.0057023  |   0.4 |  0.14
Comm    | 1.6181     | 2.7677     | 3.3255     |  36.1 | 76.27
Output  | 0.0015043  | 0.0029068  | 0.0042866  |   1.6 |  0.08
Modify  | 0.13691    | 0.4349     | 1.8673     |  79.7 | 11.99
Other   |            | 0.1259     |            |       |  3.47

Nlocal:        7.51562 ave          35 max           0 min
Histogram: 43 2 3 0 0 2 3 4 3 4
Nghost:        1816.39 ave        2398 max        1291 min
Histogram: 16 0 0 0 32 0 0 0 0 16
Neighs:              0 ave           0 max           0 min
Histogram: 64 0 0 0 0 0 0 0 0 0

Total # of neighbors = 0
Ave neighs/atom = 0
Ave special neighs/atom = 15.567568
Neighbor list builds = 11
Dangerous builds = 0
fix             myat1 all ave/time 1000 10 10000 v_zave v_zdes file simulation_data/abpot/${cpt}.dat
fix             myat1 all ave/time 1000 10 10000 v_zave v_zdes file simulation_data/abpot/51.dat
run             50000
Generated 0 of 1 mixed pair_coeff terms from geometric mixing rule
Per MPI rank memory allocation (min/avg/max) = 13.32 | 13.62 | 14.95 Mbytes
   Step          Temp          E_pair         E_mol          TotEng         Press     
   3030000   322.12167      385.09192      18526.449      19372.429     -53.295024    
   3040000   306.19362      380.4272       18507.451      19325.976     -161.45138    
   3050000   300.02313      391.7009       18528.418      19349.389      183.42113    
   3060000   318.72123      391.12409      18510.137      19357.284      95.173737    
   3070000   288.7455       388.77191      18513.704      19315.61       145.35242    
   3080000   281.92505      388.0301       18533.628      19325.033      6.7405547    
Loop time of 17.9272 on 64 procs for 50000 steps with 481 atoms

Performance: 12.049 ns/day, 1.992 hours/ns, 2789.052 timesteps/s, 1.342 Matom-step/s
100.0% CPU use with 64 MPI tasks x 1 OpenMP threads

MPI task timing breakdown:
Section |  min time  |  avg time  |  max time  |%varavg| %total
---------------------------------------------------------------
Pair    | 0.015713   | 0.67195    | 4.6001     | 143.3 |  3.75
Bond    | 0.005369   | 0.7893     | 3.8104     | 146.0 |  4.40
Neigh   | 0.022499   | 0.024993   | 0.027395   |   0.8 |  0.14
Comm    | 8.1265     | 13.701     | 16.412     |  80.0 | 76.42
Output  | 0.0076906  | 0.014712   | 0.021401   |   3.6 |  0.08
Modify  | 0.68827    | 2.103      | 9.0888     | 175.0 | 11.73
Other   |            | 0.6226     |            |       |  3.47

Nlocal:        7.51562 ave          34 max           0 min
Histogram: 42 4 2 0 0 1 3 4 5 3
Nghost:        1822.11 ave        2416 max        1290 min
Histogram: 16 0 0 0 32 0 0 0 0 16
Neighs:              0 ave           0 max           0 min
Histogram: 64 0 0 0 0 0 0 0 0 0

Total # of neighbors = 0
Ave neighs/atom = 0
Ave special neighs/atom = 15.567568
Neighbor list builds = 54
Dangerous builds = 0
unfix           myat1
next            cpt
jump            SELF loop

Total wall time: 0:18:23
