# --- log file ---

variable pre equal 112 # desired pressure (Atm)
variable tem equal 300 # desired temperature (K)

variable k1 equal 5.3 # spring constant
variable k2 equal 3.5 # spring constant

units real
atom_style molecular
boundary p p p
neighbor 1.0 bin
neigh_modify delay 3 one 6000
bond_style harmonic
angle_style harmonic
dihedral_style opls
improper_style harmonic
pair_style hybrid lj/cut 14 sg 15 cb 30 # Fluid-fluid interactions have a cutoff of 15 Å, fluid-solid interactions have a cutoff of 30 Å
# *--* C-C parameters *--*
bond_style harmonic
angle_style harmonic
dihedral_style opls
improper_style harmonic
# *--* C-C parameters *--*


# 2. Read the graphite platelet data file and define potentials parameters
read_data       ../geometry/carbonPlatelets/simulation_data/abpot_sys.data  extra/atom/types 1
Reading data file ...
  orthogonal box = (-30 -30 -30) to (30 30 30)
  3 by 4 by 4 MPI processor grid
  reading atoms ...
  480 atoms
  reading velocities ...
  480 velocities
  scanning bonds ...
  2 = max bonds/atom
  scanning angles ...
  3 = max angles/atom
  scanning dihedrals ...
  8 = max dihedrals/atom
  scanning impropers ...
  2 = max impropers/atom
  orthogonal box = (-30 -30 -30) to (30 30 30)
  3 by 4 by 4 MPI processor grid
  reading bonds ...
  676 bonds
  reading angles ...
  1268 angles
  reading dihedrals ...
  2394 dihedrals
  reading impropers ...
  396 impropers
Finding 1-2 1-3 1-4 neighbors ...
  special bond factors lj:    0        0        0       
  special bond factors coul:  0        0        0       
     3 = max # of 1-2 neighbors
     6 = max # of 1-3 neighbors
    18 = max # of 1-4 neighbors
    18 = max # of special neighbors
  special bonds CPU = 0.002 seconds
  read_data CPU = 0.049 seconds
include         PARM.lammps

#////////////////////////////////////////////////////////////////////////////////////////////////////////////////////////////////
#//     Filename: PARM.lammps
#//     File Type: LAMMPS input script
#//     Description: This script defines the parameters for the simulation of hydrogen absorption in graphite platelets.
#//     Author: Edoardo Cabiati
#//     Date: 2024-07-27
#////////////////////////////////////////////////////////////////////////////////////////////////////////////////////////////////

mass 2 2.016 # For now at least, in accordance with the paper by Wang and Johnson,
             # 1998, the hydrogen atoms are regarded as simple spherical atoms

# //////////////////////////////////////    C-C potentials    //////////////////////////////////////
pair_coeff 1 1 lj/cut 0.066 3.4
bond_coeff 1 469 1.4
angle_coeff 1 63 120
dihedral_coeff 1 0 7.25 0 0
improper_coeff 1 5 180
special_bonds lj 0.0 0.0 0.5
Finding 1-2 1-3 1-4 neighbors ...
  special bond factors lj:    0        0        0.5     
  special bond factors coul:  0        0        0       
     3 = max # of 1-2 neighbors
     6 = max # of 1-3 neighbors
    18 = max # of 1-4 neighbors
    18 = max # of special neighbors
  special bonds CPU = 0.001 seconds
# //////////////////////////////////////    C-C potentials    //////////////////////////////////////
# -------------------------------------------------------------------------------------------------
# //////////////////////////////////////    H-H potentials    //////////////////////////////////////
variable alpha equal 1.713          #|
variable sigma equal 1.567          #|
variable gamma equal 0.00993        #|
variable c6 equal 12.14             #|      The parameters are all in atomic units, the conversion to kcal/mol
variable c8 equal 215.2             #|      is performed in the pair_sg.cpp file
variable c9 equal 143.1             #|
variable c10 equal 4813.9           #|
variable rc equal 8.321             #|
pair_coeff 2 2 sg ${alpha} ${sigma} ${gamma} ${c6} ${c8} ${c9} ${c10} ${rc} # H-H potentials
pair_coeff 2 2 sg 1.713 ${sigma} ${gamma} ${c6} ${c8} ${c9} ${c10} ${rc} 
pair_coeff 2 2 sg 1.713 1.567 ${gamma} ${c6} ${c8} ${c9} ${c10} ${rc} 
pair_coeff 2 2 sg 1.713 1.567 0.00993 ${c6} ${c8} ${c9} ${c10} ${rc} 
pair_coeff 2 2 sg 1.713 1.567 0.00993 12.14 ${c8} ${c9} ${c10} ${rc} 
pair_coeff 2 2 sg 1.713 1.567 0.00993 12.14 215.2 ${c9} ${c10} ${rc} 
pair_coeff 2 2 sg 1.713 1.567 0.00993 12.14 215.2 143.1 ${c10} ${rc} 
pair_coeff 2 2 sg 1.713 1.567 0.00993 12.14 215.2 143.1 4813.9 ${rc} 
pair_coeff 2 2 sg 1.713 1.567 0.00993 12.14 215.2 143.1 4813.9 8.321 
#pair_coeff 2 2 sg 1.713 1.567 0.00993 12.14 215.2 143.1 4813.9 8.321 # H-H potentials
# //////////////////////////////////////    H-H potentials    //////////////////////////////////////
# -------------------------------------------------------------------------------------------------
# //////////////////////////////////////    C-H potentials    //////////////////////////////////////
variable sigma_CC equal 3.43 # Å
variable sigma_HH equal 3.075 # Å
variable sigma_CH_geo equal sqrt(${sigma_CC}*${sigma_HH}) # Å
variable sigma_CH_geo equal sqrt(3.43*${sigma_HH}) 
variable sigma_CH_geo equal sqrt(3.43*3.075) 
variable sigma_CH_arit equal 0.5*(${sigma_CC}+${sigma_HH}) # Å
variable sigma_CH_arit equal 0.5*(3.43+${sigma_HH}) 
variable sigma_CH_arit equal 0.5*(3.43+3.075) 

variable P_par equal 0.57 # Å^3
variable P_perp equal 1.995 # Å^3
variable P_h equal 0.81 # Å^3
variable E_h equal 2.337e5*(1/503.23) # K * 1/503.23 kcal/mol/K = kcal/mol
variable E_c equal 1.39254e5*(1/503.23) # K * 1/503.23 kcal/mol/K = kcal/mol

variable epsilon equal 4*v_E_h*v_E_c*v_P_h*(v_P_par+v_P_perp/2)/(v_sigma_CH_geo^6*(v_E_h+v_E_c)) # kcal/mol

pair_coeff 1 2 cb ${epsilon} ${sigma_CH_geo} ${P_par} ${P_perp} # C-H potential
pair_coeff 1 2 cb 0.750549668586509 ${sigma_CH_geo} ${P_par} ${P_perp} 
pair_coeff 1 2 cb 0.750549668586509 3.24765299870537 ${P_par} ${P_perp} 
pair_coeff 1 2 cb 0.750549668586509 3.24765299870537 0.57 ${P_perp} 
pair_coeff 1 2 cb 0.750549668586509 3.24765299870537 0.57 1.995 
#pair_coeff 1 2 lj/cut 0.3025 2.065
# //////////////////////////////////////    C-H potentials    //////////////////////////////////////

# 3. Add a single hydrogen molecule to the system, close to the center of the first platelet
create_atoms    2 single 0 0 -2
Created 1 atoms
  using lattice units in orthogonal box = (-30 -30 -30) to (30 30 30)
  create_atoms CPU = 0.000 seconds

group           C type 1
480 atoms in group C
group           H2 type 2
1 atoms in group H2

# 4. Equilibration
timestep        0.05
fix             mytth1 C spring/self ${k2} # Apply a spring force to the carbon atoms
fix             mytth1 C spring/self 3.5 
velocity        all create ${tem} 48 rot yes mom yes dist gaussian # Initialize velocities
velocity        all create 300 48 rot yes mom yes dist gaussian 
fix             mynpt all npt temp ${tem} ${tem} 100 x ${pre} ${pre} 1000 y ${pre} ${pre} 1000 # Apply NPT ensemble to the system
fix             mynpt all npt temp 300 ${tem} 100 x ${pre} ${pre} 1000 y ${pre} ${pre} 1000 
fix             mynpt all npt temp 300 300 100 x ${pre} ${pre} 1000 y ${pre} ${pre} 1000 
fix             mynpt all npt temp 300 300 100 x 112 ${pre} 1000 y ${pre} ${pre} 1000 
fix             mynpt all npt temp 300 300 100 x 112 112 1000 y ${pre} ${pre} 1000 
fix             mynpt all npt temp 300 300 100 x 112 112 1000 y 112 ${pre} 1000 
fix             mynpt all npt temp 300 300 100 x 112 112 1000 y 112 112 1000 

thermo          10000
dump            dump all atom 1000 simulation_data/absorption_pot.lammpstrj

run             20000

CITE-CITE-CITE-CITE-CITE-CITE-CITE-CITE-CITE-CITE-CITE-CITE-CITE

Your simulation uses code contributions which should be cited:

- Type Label Framework: https://doi.org/10.1021/acs.jpcb.3c08419

@Article{Gissinger24,
 author = {Jacob R. Gissinger, Ilia Nikiforov, Yaser Afshar, Brendon Waters, Moon-ki Choi, Daniel S. Karls, Alexander Stukowski, Wonpil Im, Hendrik Heinz, Axel Kohlmeyer, and Ellad B. Tadmor},
 title = {Type Label Framework for Bonded Force Fields in LAMMPS},
 journal = {J. Phys. Chem. B},
 year =    2024,
 volume =  128,
 number =  13,
 pages =   {3282–-3297}
}

CITE-CITE-CITE-CITE-CITE-CITE-CITE-CITE-CITE-CITE-CITE-CITE-CITE

Generated 0 of 1 mixed pair_coeff terms from geometric mixing rule
Neighbor list info ...
  update: every = 1 steps, delay = 3 steps, check = yes
  max neighbors/atom: 6000, page size: 100000
  master list distance cutoff = 31
  ghost atom cutoff = 31
  binsize = 15.5, bins = 4 4 4
  4 neighbor lists, perpetual/occasional/extra = 4 0 0
  (1) pair lj/cut, perpetual, skip trim from (4)
      attributes: half, newton on, cut 15
      pair build: skip/trim
      stencil: none
      bin: none
  (2) pair sg, perpetual, skip trim from (4)
      attributes: half, newton on, cut 16
      pair build: skip/trim
      stencil: none
      bin: none
  (3) pair cb, perpetual, skip from (4)
      attributes: half, newton on
      pair build: skip
      stencil: none
      bin: none
  (4) neighbor class addition, perpetual
      attributes: half, newton on
      pair build: half/bin/newton
      stencil: half/bin/3d
      bin: standard
Per MPI rank memory allocation (min/avg/max) = 13.28 | 13.37 | 13.93 Mbytes
   Step          Temp          E_pair         E_mol          TotEng         Press          Volume    
         0   300            308.43814      19603.922      20341.597     -432.48369      216000       
     10000   308.72719      373.58236      18568.419      19383.724     -313.9945       172136.64    
     20000   322.02648      371.05675      18538.378      19370.187     -418.66256      126544.33    
Loop time of 9.28337 on 48 procs for 20000 steps with 481 atoms

Performance: 9.307 ns/day, 2.579 hours/ns, 2154.391 timesteps/s, 1.036 Matom-step/s
99.8% CPU use with 48 MPI tasks x 1 OpenMP threads

MPI task timing breakdown:
Section |  min time  |  avg time  |  max time  |%varavg| %total
---------------------------------------------------------------
Pair    | 0.1332     | 0.58127    | 2.5386     |  85.0 |  6.26
Bond    | 0.004891   | 0.51107    | 3.013      | 125.6 |  5.51
Neigh   | 0.026646   | 0.029928   | 0.032909   |   1.0 |  0.32
Comm    | 2.6275     | 5.23       | 7.7259     |  80.9 | 56.34
Output  | 0.0047613  | 0.010777   | 0.017738   |   4.3 |  0.12
Modify  | 0.76332    | 2.5928     | 5.8381     | 123.3 | 27.93
Other   |            | 0.3276     |            |       |  3.53

Nlocal:        10.0208 ave          42 max           0 min
Histogram: 21 4 10 5 0 1 0 3 3 1
Nghost:        1907.85 ave        2370 max        1332 min
Histogram: 8 0 0 0 24 0 0 0 0 16
Neighs:              0 ave           0 max           0 min
Histogram: 48 0 0 0 0 0 0 0 0 0

Total # of neighbors = 0
Ave neighs/atom = 0
Ave special neighs/atom = 15.567568
Neighbor list builds = 55
Dangerous builds = 0
unfix           mynpt
unfix           mytth1

# 5. Umbrella sampling
fix             mynvt all nvt temp ${tem} ${tem} 100
fix             mynvt all nvt temp 300 ${tem} 100
fix             mynvt all nvt temp 300 300 100
fix             mytth1 C spring/self ${k2}
fix             mytth1 C spring/self 3.5

variable        cpt loop 51
label           loop
variable        zdes equal  -15+0.60*(${cpt}-1)
variable        zdes equal  -15+0.60*(1-1)
variable        zave equal xcm(H2,z)
fix             mytth2 H2 spring tether ${k1} 2.5 2.5 ${zdes} 0
fix             mytth2 H2 spring tether 5.3 2.5 2.5 ${zdes} 0
fix             mytth2 H2 spring tether 5.3 2.5 2.5 -15 0
run             10000
Generated 0 of 1 mixed pair_coeff terms from geometric mixing rule
Per MPI rank memory allocation (min/avg/max) = 13.32 | 13.74 | 14.98 Mbytes
   Step          Temp          E_pair         E_mol          TotEng         Press     
     20000   322.02648      371.05675      18538.378      19370.187     -418.66256    
     30000   256.64591      336.15765      18580.396      19283.76      -1118.8907    
Loop time of 3.74633 on 48 procs for 10000 steps with 481 atoms

Performance: 11.531 ns/day, 2.081 hours/ns, 2669.279 timesteps/s, 1.284 Matom-step/s
100.0% CPU use with 48 MPI tasks x 1 OpenMP threads

MPI task timing breakdown:
Section |  min time  |  avg time  |  max time  |%varavg| %total
---------------------------------------------------------------
Pair    | 0.0034415  | 0.1806     | 0.86667    |  58.1 |  4.82
Bond    | 0.0011035  | 0.22178    | 1.1648     |  63.8 |  5.92
Neigh   | 0.061174   | 0.069344   | 0.075386   |   1.4 |  1.85
Comm    | 1.473      | 2.6826     | 3.2771     |  37.3 | 71.61
Output  | 0.0017774  | 0.0038952  | 0.0062335  |   2.3 |  0.10
Modify  | 0.13467    | 0.44872    | 1.8149     |  81.3 | 11.98
Other   |            | 0.1394     |            |       |  3.72

Nlocal:        10.0208 ave          43 max           0 min
Histogram: 22 4 9 5 0 0 4 1 1 2
Nghost:        1909.25 ave        2376 max        1330 min
Histogram: 8 0 0 0 24 0 0 0 0 16
Neighs:              0 ave           0 max           0 min
Histogram: 48 0 0 0 0 0 0 0 0 0

Total # of neighbors = 0
Ave neighs/atom = 0
Ave special neighs/atom = 15.567568
Neighbor list builds = 141
Dangerous builds = 0
fix             myat1 all ave/time 1000 10 10000 v_zave v_zdes file simulation_data/abpot/${cpt}.dat
fix             myat1 all ave/time 1000 10 10000 v_zave v_zdes file simulation_data/abpot/1.dat
run             50000
Generated 0 of 1 mixed pair_coeff terms from geometric mixing rule
Per MPI rank memory allocation (min/avg/max) = 13.32 | 13.78 | 14.98 Mbytes
   Step          Temp          E_pair         E_mol          TotEng         Press     
     30000   256.64591      336.15765      18580.396      19283.76      -1118.8907    
     40000   301.53198      406.19212      18487.683      19325.304      722.7631     
     50000   300.171        387.27395      18543.652      19360.407      162.48751    
     60000   291.35217      352.86887      18565.568      19335.301     -724.13282    
     70000   306.40377      372.07473      18547.532      19358.006     -68.556073    
     80000   305.38132      396.54631      18547.689      19381.171      380.78757    
Loop time of 18.2418 on 48 procs for 50000 steps with 481 atoms

Performance: 11.841 ns/day, 2.027 hours/ns, 2740.957 timesteps/s, 1.318 Matom-step/s
100.0% CPU use with 48 MPI tasks x 1 OpenMP threads

MPI task timing breakdown:
Section |  min time  |  avg time  |  max time  |%varavg| %total
---------------------------------------------------------------
Pair    | 0.017385   | 0.89862    | 4.7884     | 131.8 |  4.93
Bond    | 0.0054885  | 1.095      | 5.8967     | 143.7 |  6.00
Neigh   | 0.10669    | 0.12145    | 0.13127    |   1.8 |  0.67
Comm    | 6.9744     | 13.052     | 16.142     |  88.6 | 71.55
Output  | 0.0089583  | 0.017791   | 0.027098   |   4.4 |  0.10
Modify  | 0.64115    | 2.3254     | 10.041     | 191.4 | 12.75
Other   |            | 0.7311     |            |       |  4.01

Nlocal:        10.0208 ave          39 max           0 min
Histogram: 20 4 9 7 0 0 1 1 4 2
Nghost:        1931.35 ave        2410 max        1337 min
Histogram: 8 0 0 0 24 0 0 0 0 16
Neighs:              0 ave           0 max           0 min
Histogram: 48 0 0 0 0 0 0 0 0 0

Total # of neighbors = 0
Ave neighs/atom = 0
Ave special neighs/atom = 15.567568
Neighbor list builds = 240
Dangerous builds = 0
unfix           myat1
next            cpt
jump            SELF loop
variable        zdes equal  -15+0.60*(${cpt}-1)
variable        zdes equal  -15+0.60*(2-1)
variable        zave equal xcm(H2,z)
fix             mytth2 H2 spring tether ${k1} 2.5 2.5 ${zdes} 0
fix             mytth2 H2 spring tether 5.3 2.5 2.5 ${zdes} 0
fix             mytth2 H2 spring tether 5.3 2.5 2.5 -14.4 0
run             10000
Generated 0 of 1 mixed pair_coeff terms from geometric mixing rule
Per MPI rank memory allocation (min/avg/max) = 13.32 | 13.82 | 14.98 Mbytes
   Step          Temp          E_pair         E_mol          TotEng         Press     
     80000   305.38132      396.54631      18547.689      19381.171      380.78757    
     90000   288.70601      363.64317      18581.842      19358.562     -375.77268    
Loop time of 3.64324 on 48 procs for 10000 steps with 481 atoms

Performance: 11.858 ns/day, 2.024 hours/ns, 2744.806 timesteps/s, 1.320 Matom-step/s
100.0% CPU use with 48 MPI tasks x 1 OpenMP threads

MPI task timing breakdown:
Section |  min time  |  avg time  |  max time  |%varavg| %total
---------------------------------------------------------------
Pair    | 0.0035429  | 0.17872    | 0.98056    |  59.0 |  4.91
Bond    | 0.0010958  | 0.21815    | 1.1558     |  64.4 |  5.99
Neigh   | 0.0069379  | 0.0079914  | 0.0085791  |   0.5 |  0.22
Comm    | 1.431      | 2.6219     | 3.2227     |  39.1 | 71.97
Output  | 0.0018159  | 0.0034038  | 0.0050364  |   1.8 |  0.09
Modify  | 0.13122    | 0.46811    | 2.0202     |  83.2 | 12.85
Other   |            | 0.1449     |            |       |  3.98

Nlocal:        10.0208 ave          41 max           0 min
Histogram: 21 6 8 5 0 1 0 2 4 1
Nghost:        1935.35 ave        2418 max        1337 min
Histogram: 8 0 0 0 24 0 0 0 0 16
Neighs:              0 ave           0 max           0 min
Histogram: 48 0 0 0 0 0 0 0 0 0

Total # of neighbors = 0
Ave neighs/atom = 0
Ave special neighs/atom = 15.567568
Neighbor list builds = 16
Dangerous builds = 0
fix             myat1 all ave/time 1000 10 10000 v_zave v_zdes file simulation_data/abpot/${cpt}.dat
fix             myat1 all ave/time 1000 10 10000 v_zave v_zdes file simulation_data/abpot/2.dat
run             50000
Generated 0 of 1 mixed pair_coeff terms from geometric mixing rule
Per MPI rank memory allocation (min/avg/max) = 13.32 | 13.83 | 14.98 Mbytes
   Step          Temp          E_pair         E_mol          TotEng         Press     
     90000   288.70601      363.64317      18581.842      19358.562     -375.77268    
    100000   282.50973      366.50511      18543.141      19313.857     -222.96951    
    110000   286.26641      400.39055      18531.875      19341.853      515.49126    
    120000   294.76845      380.1785       18571.147      19373.077     -78.531562    
    130000   307.3389       360.07877      18584.784      19384.6       -505.68729    
    140000   321.84244      384.91071      18566.596      19411.995      144.35344    
Loop time of 17.2026 on 48 procs for 50000 steps with 481 atoms

Performance: 12.556 ns/day, 1.911 hours/ns, 2906.537 timesteps/s, 1.398 Matom-step/s
100.0% CPU use with 48 MPI tasks x 1 OpenMP threads

MPI task timing breakdown:
Section |  min time  |  avg time  |  max time  |%varavg| %total
---------------------------------------------------------------
Pair    | 0.018649   | 0.86406    | 4.7858     | 127.6 |  5.02
Bond    | 0.0057703  | 1.0617     | 5.5998     | 140.1 |  6.17
Neigh   | 0.03376    | 0.038957   | 0.041683   |   1.0 |  0.23
Comm    | 6.7336     | 12.428     | 15.301     |  84.3 | 72.25
Output  | 0.0082427  | 0.014609   | 0.02101    |   3.5 |  0.08
Modify  | 0.72383    | 2.1195     | 9.1664     | 182.6 | 12.32
Other   |            | 0.6757     |            |       |  3.93

Nlocal:        10.0208 ave          44 max           0 min
Histogram: 20 7 10 3 0 2 1 2 1 2
Nghost:         1925.6 ave        2400 max        1330 min
Histogram: 8 0 0 0 24 0 0 0 0 16
Neighs:              0 ave           0 max           0 min
Histogram: 48 0 0 0 0 0 0 0 0 0

Total # of neighbors = 0
Ave neighs/atom = 0
Ave special neighs/atom = 15.567568
Neighbor list builds = 83
Dangerous builds = 0
unfix           myat1
next            cpt
jump            SELF loop
variable        zdes equal  -15+0.60*(${cpt}-1)
variable        zdes equal  -15+0.60*(3-1)
variable        zave equal xcm(H2,z)
fix             mytth2 H2 spring tether ${k1} 2.5 2.5 ${zdes} 0
fix             mytth2 H2 spring tether 5.3 2.5 2.5 ${zdes} 0
fix             mytth2 H2 spring tether 5.3 2.5 2.5 -13.8 0
run             10000
Generated 0 of 1 mixed pair_coeff terms from geometric mixing rule
Per MPI rank memory allocation (min/avg/max) = 13.32 | 13.83 | 14.98 Mbytes
   Step          Temp          E_pair         E_mol          TotEng         Press     
    140000   321.84244      384.91071      18566.596      19411.995      144.35344    
    150000   315.13729      382.21749      18538.35       19371.462      211.18321    
Loop time of 3.58436 on 48 procs for 10000 steps with 481 atoms

Performance: 12.052 ns/day, 1.991 hours/ns, 2789.901 timesteps/s, 1.342 Matom-step/s
100.0% CPU use with 48 MPI tasks x 1 OpenMP threads

MPI task timing breakdown:
Section |  min time  |  avg time  |  max time  |%varavg| %total
---------------------------------------------------------------
Pair    | 0.0033848  | 0.16997    | 0.99725    |  58.6 |  4.74
Bond    | 0.0010392  | 0.2096     | 1.1574     |  62.8 |  5.85
Neigh   | 0.0058555  | 0.0066566  | 0.0070763  |   0.4 |  0.19
Comm    | 1.4267     | 2.6176     | 3.2283     |  39.9 | 73.03
Output  | 0.0016851  | 0.0028426  | 0.0040688  |   1.4 |  0.08
Modify  | 0.1368     | 0.45091    | 1.9515     |  89.8 | 12.58
Other   |            | 0.1267     |            |       |  3.54

Nlocal:        10.0208 ave          40 max           0 min
Histogram: 20 6 8 5 1 0 2 1 2 3
Nghost:        1935.85 ave        2423 max        1334 min
Histogram: 8 0 0 0 24 0 0 0 0 16
Neighs:              0 ave           0 max           0 min
Histogram: 48 0 0 0 0 0 0 0 0 0

Total # of neighbors = 0
Ave neighs/atom = 0
Ave special neighs/atom = 15.567568
Neighbor list builds = 13
Dangerous builds = 0
fix             myat1 all ave/time 1000 10 10000 v_zave v_zdes file simulation_data/abpot/${cpt}.dat
fix             myat1 all ave/time 1000 10 10000 v_zave v_zdes file simulation_data/abpot/3.dat
run             50000
Generated 0 of 1 mixed pair_coeff terms from geometric mixing rule
Per MPI rank memory allocation (min/avg/max) = 13.32 | 13.84 | 14.98 Mbytes
   Step          Temp          E_pair         E_mol          TotEng         Press     
    150000   315.13729      382.21749      18538.35       19371.462      211.18321    
    160000   281.84214      354.69216      18600.536      19358.485     -437.18276    
    170000   301.44816      364.11575      18555.283      19350.708     -221.63754    
    180000   318.50201      372.55916      18549.533      19377.801     -160.17587    
    190000   322.77004      363.30974      18579.406      19404.532     -336.72356    
    200000   305.46466      383.73433      18555.65       19376.439      92.864708    
Loop time of 16.4621 on 48 procs for 50000 steps with 481 atoms

Performance: 13.121 ns/day, 1.829 hours/ns, 3037.289 timesteps/s, 1.461 Matom-step/s
100.0% CPU use with 48 MPI tasks x 1 OpenMP threads

MPI task timing breakdown:
Section |  min time  |  avg time  |  max time  |%varavg| %total
---------------------------------------------------------------
Pair    | 0.016898   | 0.80325    | 4.1847     | 126.7 |  4.88
Bond    | 0.0051525  | 0.99558    | 5.2794     | 133.1 |  6.05
Neigh   | 0.022501   | 0.026458   | 0.028074   |   0.8 |  0.16
Comm    | 6.4983     | 11.947     | 14.638     |  81.7 | 72.58
Output  | 0.0073969  | 0.013059   | 0.0188     |   3.3 |  0.08
Modify  | 0.68032    | 2.0613     | 8.5341     | 178.1 | 12.52
Other   |            | 0.6151     |            |       |  3.74

Nlocal:        10.0208 ave          38 max           0 min
Histogram: 20 5 8 7 0 0 1 1 2 4
Nghost:        1930.85 ave        2409 max        1335 min
Histogram: 8 0 0 0 24 0 0 0 0 16
Neighs:              0 ave           0 max           0 min
Histogram: 48 0 0 0 0 0 0 0 0 0

Total # of neighbors = 0
Ave neighs/atom = 0
Ave special neighs/atom = 15.567568
Neighbor list builds = 59
Dangerous builds = 0
unfix           myat1
next            cpt
jump            SELF loop
variable        zdes equal  -15+0.60*(${cpt}-1)
variable        zdes equal  -15+0.60*(4-1)
variable        zave equal xcm(H2,z)
fix             mytth2 H2 spring tether ${k1} 2.5 2.5 ${zdes} 0
fix             mytth2 H2 spring tether 5.3 2.5 2.5 ${zdes} 0
fix             mytth2 H2 spring tether 5.3 2.5 2.5 -13.2 0
run             10000
Generated 0 of 1 mixed pair_coeff terms from geometric mixing rule
Per MPI rank memory allocation (min/avg/max) = 13.32 | 13.84 | 14.98 Mbytes
   Step          Temp          E_pair         E_mol          TotEng         Press     
    200000   305.46466      383.73433      18555.65       19376.439      92.864708    
    210000   294.51766      387.70684      18531.142      19340.242      239.89654    
Loop time of 3.25967 on 48 procs for 10000 steps with 481 atoms

Performance: 13.253 ns/day, 1.811 hours/ns, 3067.799 timesteps/s, 1.476 Matom-step/s
100.0% CPU use with 48 MPI tasks x 1 OpenMP threads

MPI task timing breakdown:
Section |  min time  |  avg time  |  max time  |%varavg| %total
---------------------------------------------------------------
Pair    | 0.0034423  | 0.15518    | 0.80088    |  55.7 |  4.76
Bond    | 0.0010407  | 0.19495    | 1.1113     |  59.7 |  5.98
Neigh   | 0.0080126  | 0.0091926  | 0.0097763  |   0.4 |  0.28
Comm    | 1.1867     | 2.3666     | 2.9313     |  37.2 | 72.60
Output  | 0.0014535  | 0.0025306  | 0.003664   |   1.4 |  0.08
Modify  | 0.12846    | 0.41614    | 1.7203     |  81.6 | 12.77
Other   |            | 0.1151     |            |       |  3.53

Nlocal:        10.0208 ave          37 max           0 min
Histogram: 20 6 7 6 1 0 0 2 0 6
Nghost:        1937.23 ave        2428 max        1337 min
Histogram: 8 0 0 0 24 0 0 0 0 16
Neighs:              0 ave           0 max           0 min
Histogram: 48 0 0 0 0 0 0 0 0 0

Total # of neighbors = 0
Ave neighs/atom = 0
Ave special neighs/atom = 15.567568
Neighbor list builds = 19
Dangerous builds = 0
fix             myat1 all ave/time 1000 10 10000 v_zave v_zdes file simulation_data/abpot/${cpt}.dat
fix             myat1 all ave/time 1000 10 10000 v_zave v_zdes file simulation_data/abpot/4.dat
run             50000
Generated 0 of 1 mixed pair_coeff terms from geometric mixing rule
Per MPI rank memory allocation (min/avg/max) = 13.32 | 13.84 | 14.98 Mbytes
   Step          Temp          E_pair         E_mol          TotEng         Press     
    210000   294.51766      387.70684      18531.142      19340.242      239.89654    
    220000   317.15097      368.51339      18551.014      19373.304     -326.48902    
    230000   324.58595      376.69201      18518.961      19360.067      78.169944    
    240000   298.47854      378.53131      18544.442      19350.033     -81.916582    
    250000   298.88526      364.33954      18554.576      19346.558     -323.93468    
    260000   302.25084      374.41481      18567.783      19374.655     -23.056066    
Loop time of 14.9905 on 48 procs for 50000 steps with 481 atoms

Performance: 14.409 ns/day, 1.666 hours/ns, 3335.452 timesteps/s, 1.604 Matom-step/s
100.0% CPU use with 48 MPI tasks x 1 OpenMP threads

MPI task timing breakdown:
Section |  min time  |  avg time  |  max time  |%varavg| %total
---------------------------------------------------------------
Pair    | 0.016939   | 0.75867    | 3.7142     | 118.7 |  5.06
Bond    | 0.005225   | 0.946      | 3.8426     | 124.5 |  6.31
Neigh   | 0.021839   | 0.026409   | 0.028292   |   0.9 |  0.18
Comm    | 6.5506     | 10.921     | 13.559     |  75.6 | 72.85
Output  | 0.0060615  | 0.011458   | 0.016941   |   3.3 |  0.08
Modify  | 0.61101    | 1.7612     | 7.2928     | 168.6 | 11.75
Other   |            | 0.5659     |            |       |  3.78

Nlocal:        10.0208 ave          39 max           0 min
Histogram: 18 9 7 6 0 0 1 2 2 3
Nghost:        1931.73 ave        2416 max        1335 min
Histogram: 8 0 0 0 24 0 0 0 0 16
Neighs:              0 ave           0 max           0 min
Histogram: 48 0 0 0 0 0 0 0 0 0

Total # of neighbors = 0
Ave neighs/atom = 0
Ave special neighs/atom = 15.567568
Neighbor list builds = 67
Dangerous builds = 0
unfix           myat1
next            cpt
jump            SELF loop
variable        zdes equal  -15+0.60*(${cpt}-1)
variable        zdes equal  -15+0.60*(5-1)
variable        zave equal xcm(H2,z)
fix             mytth2 H2 spring tether ${k1} 2.5 2.5 ${zdes} 0
fix             mytth2 H2 spring tether 5.3 2.5 2.5 ${zdes} 0
fix             mytth2 H2 spring tether 5.3 2.5 2.5 -12.6 0
run             10000
Generated 0 of 1 mixed pair_coeff terms from geometric mixing rule
Per MPI rank memory allocation (min/avg/max) = 13.32 | 13.84 | 14.98 Mbytes
   Step          Temp          E_pair         E_mol          TotEng         Press     
    260000   302.25084      374.41481      18567.783      19374.655     -23.056066    
    270000   280.01924      386.60103      18562.128      19349.377      218.58691    
Loop time of 3.01055 on 48 procs for 10000 steps with 481 atoms

Performance: 14.350 ns/day, 1.673 hours/ns, 3321.655 timesteps/s, 1.598 Matom-step/s
100.0% CPU use with 48 MPI tasks x 1 OpenMP threads

MPI task timing breakdown:
Section |  min time  |  avg time  |  max time  |%varavg| %total
---------------------------------------------------------------
Pair    | 0.0034077  | 0.15094    | 0.72813    |  52.9 |  5.01
Bond    | 0.0010414  | 0.18776    | 0.78457    |  55.5 |  6.24
Neigh   | 0.0060138  | 0.007469   | 0.0081088  |   0.5 |  0.25
Comm    | 1.2355     | 2.2102     | 2.7443     |  33.4 | 73.42
Output  | 0.0012176  | 0.0022896  | 0.0034144  |   1.5 |  0.08
Modify  | 0.10575    | 0.33977    | 1.4357     |  76.1 | 11.29
Other   |            | 0.1121     |            |       |  3.72

Nlocal:        10.0208 ave          44 max           0 min
Histogram: 21 4 12 3 0 2 2 0 2 2
Nghost:         1936.6 ave        2424 max        1329 min
Histogram: 8 0 0 0 24 0 0 0 0 16
Neighs:              0 ave           0 max           0 min
Histogram: 48 0 0 0 0 0 0 0 0 0

Total # of neighbors = 0
Ave neighs/atom = 0
Ave special neighs/atom = 15.567568
Neighbor list builds = 20
Dangerous builds = 0
fix             myat1 all ave/time 1000 10 10000 v_zave v_zdes file simulation_data/abpot/${cpt}.dat
fix             myat1 all ave/time 1000 10 10000 v_zave v_zdes file simulation_data/abpot/5.dat
run             50000
Generated 0 of 1 mixed pair_coeff terms from geometric mixing rule
Per MPI rank memory allocation (min/avg/max) = 13.32 | 13.84 | 14.98 Mbytes
   Step          Temp          E_pair         E_mol          TotEng         Press     
    270000   280.01924      386.60103      18562.128      19349.377      218.58691    
    280000   292.35639      373.54531      18521.426      19313.272     -27.327931    
    290000   304.77353      363.75817      18543.861      19343.686     -288.82648    
    300000   299.2479       378.50912      18539.982      19346.652      80.301263    
    310000   298.03891      377.87528      18514.12       19318.426      95.000948    
    320000   304.61001      368.05882      18524.085      19327.977     -104.89166    
Loop time of 15.0588 on 48 procs for 50000 steps with 481 atoms

Performance: 14.344 ns/day, 1.673 hours/ns, 3320.314 timesteps/s, 1.597 Matom-step/s
100.0% CPU use with 48 MPI tasks x 1 OpenMP threads

MPI task timing breakdown:
Section |  min time  |  avg time  |  max time  |%varavg| %total
---------------------------------------------------------------
Pair    | 0.016822   | 0.74539    | 3.7483     | 119.6 |  4.95
Bond    | 0.0052284  | 0.93347    | 3.746      | 124.2 |  6.20
Neigh   | 0.026505   | 0.030602   | 0.032771   |   0.8 |  0.20
Comm    | 6.5015     | 11.012     | 13.698     |  76.6 | 73.13
Output  | 0.0057342  | 0.011154   | 0.016683   |   3.4 |  0.07
Modify  | 0.54947    | 1.7649     | 7.3109     | 173.7 | 11.72
Other   |            | 0.5615     |            |       |  3.73

Nlocal:        10.0208 ave          39 max           0 min
Histogram: 20 5 9 3 3 0 1 3 2 2
Nghost:        1932.73 ave        2415 max        1334 min
Histogram: 8 0 0 0 24 0 0 0 0 16
Neighs:              0 ave           0 max           0 min
Histogram: 48 0 0 0 0 0 0 0 0 0

Total # of neighbors = 0
Ave neighs/atom = 0
Ave special neighs/atom = 15.567568
Neighbor list builds = 79
Dangerous builds = 0
unfix           myat1
next            cpt
jump            SELF loop
variable        zdes equal  -15+0.60*(${cpt}-1)
variable        zdes equal  -15+0.60*(6-1)
variable        zave equal xcm(H2,z)
fix             mytth2 H2 spring tether ${k1} 2.5 2.5 ${zdes} 0
fix             mytth2 H2 spring tether 5.3 2.5 2.5 ${zdes} 0
fix             mytth2 H2 spring tether 5.3 2.5 2.5 -12 0
run             10000
Generated 0 of 1 mixed pair_coeff terms from geometric mixing rule
Per MPI rank memory allocation (min/avg/max) = 13.32 | 13.84 | 14.98 Mbytes
   Step          Temp          E_pair         E_mol          TotEng         Press     
    320000   304.61001      368.05882      18524.085      19327.977     -104.89166    
    330000   304.24085      376.20788      18548.664      19360.176      6.7325317    
Loop time of 2.96227 on 48 procs for 10000 steps with 481 atoms

Performance: 14.583 ns/day, 1.646 hours/ns, 3375.794 timesteps/s, 1.624 Matom-step/s
100.0% CPU use with 48 MPI tasks x 1 OpenMP threads

MPI task timing breakdown:
Section |  min time  |  avg time  |  max time  |%varavg| %total
---------------------------------------------------------------
Pair    | 0.0033255  | 0.14732    | 0.7784     |  54.0 |  4.97
Bond    | 0.001043   | 0.18554    | 0.75214    |  55.7 |  6.26
Neigh   | 0.0052512  | 0.005915   | 0.0062825  |   0.3 |  0.20
Comm    | 1.1993     | 2.1645     | 2.6885     |  34.5 | 73.07
Output  | 0.0011175  | 0.0021857  | 0.0032938  |   1.5 |  0.07
Modify  | 0.11835    | 0.35287    | 1.4261     |  76.9 | 11.91
Other   |            | 0.1039     |            |       |  3.51

Nlocal:        10.0208 ave          37 max           0 min
Histogram: 19 5 8 6 2 0 0 0 4 4
Nghost:        1936.48 ave        2420 max        1336 min
Histogram: 8 0 0 0 24 0 0 0 0 16
Neighs:              0 ave           0 max           0 min
Histogram: 48 0 0 0 0 0 0 0 0 0

Total # of neighbors = 0
Ave neighs/atom = 0
Ave special neighs/atom = 15.567568
Neighbor list builds = 16
Dangerous builds = 0
fix             myat1 all ave/time 1000 10 10000 v_zave v_zdes file simulation_data/abpot/${cpt}.dat
fix             myat1 all ave/time 1000 10 10000 v_zave v_zdes file simulation_data/abpot/6.dat
run             50000
Generated 0 of 1 mixed pair_coeff terms from geometric mixing rule
Per MPI rank memory allocation (min/avg/max) = 13.32 | 13.84 | 14.98 Mbytes
   Step          Temp          E_pair         E_mol          TotEng         Press     
    330000   304.24085      376.20788      18548.664      19360.176      6.7325317    
    340000   297.61717      374.13234      18544.488      19344.448      5.8201733    
    350000   294.41772      363.52354      18547.171      19331.944     -350.8294     
    360000   305.01141      367.5658       18530.212      19334.184     -119.9803     
    370000   311.69062      369.65512      18531.105      19346.724     -74.080163    
    380000   313.34525      370.66489      18568.116      19387.111     -8.5200023    
Loop time of 14.9209 on 48 procs for 50000 steps with 481 atoms

Performance: 14.476 ns/day, 1.658 hours/ns, 3351.014 timesteps/s, 1.612 Matom-step/s
100.0% CPU use with 48 MPI tasks x 1 OpenMP threads

MPI task timing breakdown:
Section |  min time  |  avg time  |  max time  |%varavg| %total
---------------------------------------------------------------
Pair    | 0.016777   | 0.73394    | 3.8509     | 121.0 |  4.92
Bond    | 0.005221   | 0.92652    | 3.7776     | 124.8 |  6.21
Neigh   | 0.032784   | 0.036705   | 0.038765   |   0.7 |  0.25
Comm    | 6.2027     | 10.916     | 13.534     |  76.5 | 73.16
Output  | 0.0058562  | 0.011143   | 0.016489   |   3.3 |  0.07
Modify  | 0.56221    | 1.7576     | 7.2344     | 171.2 | 11.78
Other   |            | 0.5391     |            |       |  3.61

Nlocal:        10.0208 ave          38 max           0 min
Histogram: 20 4 10 5 1 0 0 3 3 2
Nghost:        1929.48 ave        2414 max        1335 min
Histogram: 8 0 0 0 24 0 0 0 0 16
Neighs:              0 ave           0 max           0 min
Histogram: 48 0 0 0 0 0 0 0 0 0

Total # of neighbors = 0
Ave neighs/atom = 0
Ave special neighs/atom = 15.567568
Neighbor list builds = 98
Dangerous builds = 0
unfix           myat1
next            cpt
jump            SELF loop
variable        zdes equal  -15+0.60*(${cpt}-1)
variable        zdes equal  -15+0.60*(7-1)
variable        zave equal xcm(H2,z)
fix             mytth2 H2 spring tether ${k1} 2.5 2.5 ${zdes} 0
fix             mytth2 H2 spring tether 5.3 2.5 2.5 ${zdes} 0
fix             mytth2 H2 spring tether 5.3 2.5 2.5 -11.4 0
run             10000
Generated 0 of 1 mixed pair_coeff terms from geometric mixing rule
Per MPI rank memory allocation (min/avg/max) = 13.32 | 13.84 | 14.98 Mbytes
   Step          Temp          E_pair         E_mol          TotEng         Press     
    380000   313.34525      370.66489      18568.116      19387.111     -8.5200023    
    390000   303.6243       380.88803      18541.824      19357.134      99.518093    
Loop time of 2.96301 on 48 procs for 10000 steps with 481 atoms

Performance: 14.580 ns/day, 1.646 hours/ns, 3374.951 timesteps/s, 1.623 Matom-step/s
100.0% CPU use with 48 MPI tasks x 1 OpenMP threads

MPI task timing breakdown:
Section |  min time  |  avg time  |  max time  |%varavg| %total
---------------------------------------------------------------
Pair    | 0.0033499  | 0.1464     | 0.73285    |  53.9 |  4.94
Bond    | 0.0010435  | 0.18516    | 0.78237    |  55.9 |  6.25
Neigh   | 0.0047478  | 0.0054426  | 0.005866   |   0.4 |  0.18
Comm    | 1.1965     | 2.1653     | 2.6796     |  33.7 | 73.08
Output  | 0.0011321  | 0.0021635  | 0.0032455  |   1.5 |  0.07
Modify  | 0.12618    | 0.35287    | 1.4057     |  74.2 | 11.91
Other   |            | 0.1056     |            |       |  3.57

Nlocal:        10.0208 ave          40 max           0 min
Histogram: 20 6 8 4 2 0 1 2 3 2
Nghost:        1930.98 ave        2413 max        1333 min
Histogram: 8 0 0 0 24 0 0 0 0 16
Neighs:              0 ave           0 max           0 min
Histogram: 48 0 0 0 0 0 0 0 0 0

Total # of neighbors = 0
Ave neighs/atom = 0
Ave special neighs/atom = 15.567568
Neighbor list builds = 15
Dangerous builds = 0
fix             myat1 all ave/time 1000 10 10000 v_zave v_zdes file simulation_data/abpot/${cpt}.dat
fix             myat1 all ave/time 1000 10 10000 v_zave v_zdes file simulation_data/abpot/7.dat
run             50000
Generated 0 of 1 mixed pair_coeff terms from geometric mixing rule
Per MPI rank memory allocation (min/avg/max) = 13.32 | 13.84 | 14.98 Mbytes
   Step          Temp          E_pair         E_mol          TotEng         Press     
    390000   303.6243       380.88803      18541.824      19357.134      99.518093    
    400000   299.8376       371.09761      18538.228      19338.33      -202.76223    
    410000   300.42507      374.69443      18563.843      19368.383     -174.93781    
    420000   299.45765      369.01419      18551.812      19349.287     -185.54608    
    430000   301.25853      386.78873      18514.283      19332.109      314.36865    
    440000   295.67697      368.36773      18537.488      19328.907     -267.88513    
Loop time of 16.6018 on 48 procs for 50000 steps with 481 atoms

Performance: 13.011 ns/day, 1.845 hours/ns, 3011.723 timesteps/s, 1.449 Matom-step/s
100.0% CPU use with 48 MPI tasks x 1 OpenMP threads

MPI task timing breakdown:
Section |  min time  |  avg time  |  max time  |%varavg| %total
---------------------------------------------------------------
Pair    | 0.016798   | 0.75468    | 4.4254     | 125.4 |  4.55
Bond    | 0.0052034  | 0.94566    | 4.5485     | 128.5 |  5.70
Neigh   | 0.049888   | 0.055177   | 0.057942   |   0.8 |  0.33
Comm    | 6.3462     | 12.178     | 15.127     |  84.3 | 73.36
Output  | 0.0063056  | 0.011558   | 0.016898   |   3.2 |  0.07
Modify  | 0.64168    | 2.1101     | 8.732      | 194.7 | 12.71
Other   |            | 0.5464     |            |       |  3.29

Nlocal:        10.0208 ave          45 max           0 min
Histogram: 21 5 13 1 1 1 1 2 1 2
Nghost:         1930.1 ave        2418 max        1328 min
Histogram: 8 0 0 0 24 0 0 0 0 16
Neighs:              0 ave           0 max           0 min
Histogram: 48 0 0 0 0 0 0 0 0 0

Total # of neighbors = 0
Ave neighs/atom = 0
Ave special neighs/atom = 15.567568
Neighbor list builds = 122
Dangerous builds = 0
unfix           myat1
next            cpt
jump            SELF loop
variable        zdes equal  -15+0.60*(${cpt}-1)
variable        zdes equal  -15+0.60*(8-1)
variable        zave equal xcm(H2,z)
fix             mytth2 H2 spring tether ${k1} 2.5 2.5 ${zdes} 0
fix             mytth2 H2 spring tether 5.3 2.5 2.5 ${zdes} 0
fix             mytth2 H2 spring tether 5.3 2.5 2.5 -10.8 0
run             10000
Generated 0 of 1 mixed pair_coeff terms from geometric mixing rule
Per MPI rank memory allocation (min/avg/max) = 13.32 | 13.85 | 14.98 Mbytes
   Step          Temp          E_pair         E_mol          TotEng         Press     
    440000   295.67697      368.36773      18537.488      19328.907     -267.88513    
    450000   299.76095      369.25505      18545.174      19343.323     -191.96907    
Loop time of 3.00654 on 48 procs for 10000 steps with 481 atoms

Performance: 14.369 ns/day, 1.670 hours/ns, 3326.080 timesteps/s, 1.600 Matom-step/s
100.0% CPU use with 48 MPI tasks x 1 OpenMP threads

MPI task timing breakdown:
Section |  min time  |  avg time  |  max time  |%varavg| %total
---------------------------------------------------------------
Pair    | 0.0033305  | 0.14676    | 0.7401     |  54.4 |  4.88
Bond    | 0.0010388  | 0.18488    | 0.77744    |  56.3 |  6.15
Neigh   | 0.0059231  | 0.0067569  | 0.0072253  |   0.4 |  0.22
Comm    | 1.2677     | 2.2029     | 2.7484     |  34.9 | 73.27
Output  | 0.0011338  | 0.0021729  | 0.0032563  |   1.5 |  0.07
Modify  | 0.10388    | 0.35814    | 1.4628     |  78.7 | 11.91
Other   |            | 0.1049     |            |       |  3.49

Nlocal:        10.0208 ave          44 max           0 min
Histogram: 21 6 9 4 0 0 3 3 1 1
Nghost:        1921.98 ave        2408 max        1329 min
Histogram: 8 0 0 0 24 0 0 0 0 16
Neighs:              0 ave           0 max           0 min
Histogram: 48 0 0 0 0 0 0 0 0 0

Total # of neighbors = 0
Ave neighs/atom = 0
Ave special neighs/atom = 15.567568
Neighbor list builds = 18
Dangerous builds = 0
fix             myat1 all ave/time 1000 10 10000 v_zave v_zdes file simulation_data/abpot/${cpt}.dat
fix             myat1 all ave/time 1000 10 10000 v_zave v_zdes file simulation_data/abpot/8.dat
run             50000
Generated 0 of 1 mixed pair_coeff terms from geometric mixing rule
Per MPI rank memory allocation (min/avg/max) = 13.32 | 13.85 | 14.98 Mbytes
   Step          Temp          E_pair         E_mol          TotEng         Press     
    450000   299.76095      369.25505      18545.174      19343.323     -191.96907    
    460000   287.27376      384.32617      18567.247      19362.601      97.115217    
    470000   310.49888      360.7451       18557.982      19362.985     -400.13148    
    480000   274.42258      375.15313      18535.348      19303.142      3.5730375    
    490000   291.91323      386.47984      18500.898      19305.044      280.49245    
    500000   329.96052      374.67526      18522.129      19368.908     -8.4473081    
Loop time of 14.9778 on 48 procs for 50000 steps with 481 atoms

Performance: 14.421 ns/day, 1.664 hours/ns, 3338.275 timesteps/s, 1.606 Matom-step/s
100.0% CPU use with 48 MPI tasks x 1 OpenMP threads

MPI task timing breakdown:
Section |  min time  |  avg time  |  max time  |%varavg| %total
---------------------------------------------------------------
Pair    | 0.016644   | 0.73223    | 3.8456     | 121.5 |  4.89
Bond    | 0.0052189  | 0.92233    | 3.821      | 125.5 |  6.16
Neigh   | 0.024667   | 0.028388   | 0.030443   |   0.8 |  0.19
Comm    | 6.2741     | 10.974     | 13.654     |  77.6 | 73.27
Output  | 0.0057003  | 0.010793   | 0.01599    |   3.2 |  0.07
Modify  | 0.54838    | 1.7917     | 7.2326     | 174.4 | 11.96
Other   |            | 0.5187     |            |       |  3.46

Nlocal:        10.0208 ave          38 max           0 min
Histogram: 19 5 10 6 0 0 1 1 2 4
Nghost:        1924.85 ave        2406 max        1337 min
Histogram: 8 0 0 0 24 0 0 0 0 16
Neighs:              0 ave           0 max           0 min
Histogram: 48 0 0 0 0 0 0 0 0 0

Total # of neighbors = 0
Ave neighs/atom = 0
Ave special neighs/atom = 15.567568
Neighbor list builds = 76
Dangerous builds = 0
unfix           myat1
next            cpt
jump            SELF loop
variable        zdes equal  -15+0.60*(${cpt}-1)
variable        zdes equal  -15+0.60*(9-1)
variable        zave equal xcm(H2,z)
fix             mytth2 H2 spring tether ${k1} 2.5 2.5 ${zdes} 0
fix             mytth2 H2 spring tether 5.3 2.5 2.5 ${zdes} 0
fix             mytth2 H2 spring tether 5.3 2.5 2.5 -10.2 0
run             10000
Generated 0 of 1 mixed pair_coeff terms from geometric mixing rule
Per MPI rank memory allocation (min/avg/max) = 13.32 | 13.85 | 14.98 Mbytes
   Step          Temp          E_pair         E_mol          TotEng         Press     
    500000   329.96052      374.67526      18522.129      19368.908     -8.4473081    
    510000   300.913        372.65634      18541.85       19345.049     -71.142254    
Loop time of 3.0006 on 48 procs for 10000 steps with 481 atoms

Performance: 14.397 ns/day, 1.667 hours/ns, 3332.662 timesteps/s, 1.603 Matom-step/s
100.0% CPU use with 48 MPI tasks x 1 OpenMP threads

MPI task timing breakdown:
Section |  min time  |  avg time  |  max time  |%varavg| %total
---------------------------------------------------------------
Pair    | 0.0033448  | 0.14661    | 0.75265    |  54.3 |  4.89
Bond    | 0.001045   | 0.18442    | 0.75953    |  56.2 |  6.15
Neigh   | 0.0039933  | 0.0045233  | 0.0048301  |   0.3 |  0.15
Comm    | 1.2892     | 2.1993     | 2.7333     |  34.9 | 73.30
Output  | 0.0011253  | 0.0021107  | 0.0031553  |   1.4 |  0.07
Modify  | 0.11185    | 0.36011    | 1.4528     |  78.5 | 12.00
Other   |            | 0.1035     |            |       |  3.45

Nlocal:        10.0208 ave          44 max           0 min
Histogram: 21 5 12 2 0 2 2 0 3 1
Nghost:        1927.35 ave        2405 max        1329 min
Histogram: 8 0 0 0 24 0 0 0 0 16
Neighs:              0 ave           0 max           0 min
Histogram: 48 0 0 0 0 0 0 0 0 0

Total # of neighbors = 0
Ave neighs/atom = 0
Ave special neighs/atom = 15.567568
Neighbor list builds = 12
Dangerous builds = 0
fix             myat1 all ave/time 1000 10 10000 v_zave v_zdes file simulation_data/abpot/${cpt}.dat
fix             myat1 all ave/time 1000 10 10000 v_zave v_zdes file simulation_data/abpot/9.dat
run             50000
Generated 0 of 1 mixed pair_coeff terms from geometric mixing rule
Per MPI rank memory allocation (min/avg/max) = 13.32 | 13.86 | 14.98 Mbytes
   Step          Temp          E_pair         E_mol          TotEng         Press     
    510000   300.913        372.65634      18541.85       19345.049     -71.142254    
    520000   296.60311      375.23478      18538.914      19338.526     -11.588221    
    530000   286.72445      369.47158      18556.96       19336.674     -166.71361    
    540000   321.22886      366.96824      18584.07       19410.649     -291.09671    
    550000   302.06193      378.82517      18549.504      19360.516      117.48764    
    560000   281.63197      378.81249      18564.858      19346.626     -70.871974    
Loop time of 14.8745 on 48 procs for 50000 steps with 481 atoms

Performance: 14.522 ns/day, 1.653 hours/ns, 3361.461 timesteps/s, 1.617 Matom-step/s
100.0% CPU use with 48 MPI tasks x 1 OpenMP threads

MPI task timing breakdown:
Section |  min time  |  avg time  |  max time  |%varavg| %total
---------------------------------------------------------------
Pair    | 0.016789   | 0.73139    | 3.8636     | 121.4 |  4.92
Bond    | 0.0052409  | 0.92153    | 3.9087     | 125.7 |  6.20
Neigh   | 0.024378   | 0.027788   | 0.029539   |   0.7 |  0.19
Comm    | 6.1545     | 10.892     | 13.541     |  77.2 | 73.23
Output  | 0.0058003  | 0.010873   | 0.015929   |   3.2 |  0.07
Modify  | 0.55557    | 1.7715     | 7.1349     | 172.2 | 11.91
Other   |            | 0.519      |            |       |  3.49

Nlocal:        10.0208 ave          37 max           0 min
Histogram: 20 7 5 6 2 0 0 0 5 3
Nghost:        1934.48 ave        2415 max        1336 min
Histogram: 8 0 0 0 24 0 0 0 0 16
Neighs:              0 ave           0 max           0 min
Histogram: 48 0 0 0 0 0 0 0 0 0

Total # of neighbors = 0
Ave neighs/atom = 0
Ave special neighs/atom = 15.567568
Neighbor list builds = 75
Dangerous builds = 0
unfix           myat1
next            cpt
jump            SELF loop
variable        zdes equal  -15+0.60*(${cpt}-1)
variable        zdes equal  -15+0.60*(10-1)
variable        zave equal xcm(H2,z)
fix             mytth2 H2 spring tether ${k1} 2.5 2.5 ${zdes} 0
fix             mytth2 H2 spring tether 5.3 2.5 2.5 ${zdes} 0
fix             mytth2 H2 spring tether 5.3 2.5 2.5 -9.6 0
run             10000
Generated 0 of 1 mixed pair_coeff terms from geometric mixing rule
Per MPI rank memory allocation (min/avg/max) = 13.32 | 13.86 | 14.98 Mbytes
   Step          Temp          E_pair         E_mol          TotEng         Press     
    560000   281.63197      378.81249      18564.858      19346.626     -70.871974    
    570000   289.28198      381.44598      18535.417      19330.765      15.660769    
Loop time of 3.00714 on 48 procs for 10000 steps with 481 atoms

Performance: 14.366 ns/day, 1.671 hours/ns, 3325.414 timesteps/s, 1.600 Matom-step/s
100.0% CPU use with 48 MPI tasks x 1 OpenMP threads

MPI task timing breakdown:
Section |  min time  |  avg time  |  max time  |%varavg| %total
---------------------------------------------------------------
Pair    | 0.00336    | 0.14661    | 0.83572    |  54.9 |  4.88
Bond    | 0.0010479  | 0.18437    | 0.82003    |  56.7 |  6.13
Neigh   | 0.0054045  | 0.0061243  | 0.0064998  |   0.3 |  0.20
Comm    | 1.1705     | 2.2056     | 2.7375     |  35.2 | 73.34
Output  | 0.0011203  | 0.0021489  | 0.0032314  |   1.5 |  0.07
Modify  | 0.10876    | 0.3585     | 1.4527     |  78.7 | 11.92
Other   |            | 0.1038     |            |       |  3.45

Nlocal:        10.0208 ave          36 max           0 min
Histogram: 19 7 5 6 3 0 0 1 1 6
Nghost:         1932.6 ave        2419 max        1338 min
Histogram: 8 0 0 0 24 0 0 0 0 16
Neighs:              0 ave           0 max           0 min
Histogram: 48 0 0 0 0 0 0 0 0 0

Total # of neighbors = 0
Ave neighs/atom = 0
Ave special neighs/atom = 15.567568
Neighbor list builds = 16
Dangerous builds = 0
fix             myat1 all ave/time 1000 10 10000 v_zave v_zdes file simulation_data/abpot/${cpt}.dat
fix             myat1 all ave/time 1000 10 10000 v_zave v_zdes file simulation_data/abpot/10.dat
run             50000
Generated 0 of 1 mixed pair_coeff terms from geometric mixing rule
Per MPI rank memory allocation (min/avg/max) = 13.32 | 13.86 | 14.98 Mbytes
   Step          Temp          E_pair         E_mol          TotEng         Press     
    570000   289.28198      381.44598      18535.417      19330.765      15.660769    
    580000   284.16543      378.4839       18537.073      19322.138     -158.54575    
    590000   288.82944      376.77436      18545.944      19335.972     -52.266224    
    600000   295.12196      380.92023      18550.314      19353.491      64.779889    
    610000   315.86229      375.55128      18551.356      19378.84      -34.893253    
    620000   287.89607      381.21158      18559.3        19352.43      -50.430436    
Loop time of 14.8082 on 48 procs for 50000 steps with 481 atoms

Performance: 14.587 ns/day, 1.645 hours/ns, 3376.516 timesteps/s, 1.624 Matom-step/s
100.0% CPU use with 48 MPI tasks x 1 OpenMP threads

MPI task timing breakdown:
Section |  min time  |  avg time  |  max time  |%varavg| %total
---------------------------------------------------------------
Pair    | 0.016535   | 0.73355    | 3.9306     | 121.9 |  4.95
Bond    | 0.0052427  | 0.92195    | 3.9842     | 125.8 |  6.23
Neigh   | 0.027956   | 0.031845   | 0.034009   |   0.8 |  0.22
Comm    | 5.9164     | 10.855     | 13.439     |  77.1 | 73.30
Output  | 0.0056375  | 0.010715   | 0.015849   |   3.2 |  0.07
Modify  | 0.5381     | 1.7373     | 7.0025     | 172.0 | 11.73
Other   |            | 0.5178     |            |       |  3.50

Nlocal:        10.0208 ave          44 max           0 min
Histogram: 22 5 11 2 1 0 3 1 0 3
Nghost:        1930.85 ave        2417 max        1329 min
Histogram: 8 0 0 0 24 0 0 0 0 16
Neighs:              0 ave           0 max           0 min
Histogram: 48 0 0 0 0 0 0 0 0 0

Total # of neighbors = 0
Ave neighs/atom = 0
Ave special neighs/atom = 15.567568
Neighbor list builds = 86
Dangerous builds = 0
unfix           myat1
next            cpt
jump            SELF loop
variable        zdes equal  -15+0.60*(${cpt}-1)
variable        zdes equal  -15+0.60*(11-1)
variable        zave equal xcm(H2,z)
fix             mytth2 H2 spring tether ${k1} 2.5 2.5 ${zdes} 0
fix             mytth2 H2 spring tether 5.3 2.5 2.5 ${zdes} 0
fix             mytth2 H2 spring tether 5.3 2.5 2.5 -9 0
run             10000
Generated 0 of 1 mixed pair_coeff terms from geometric mixing rule
Per MPI rank memory allocation (min/avg/max) = 13.32 | 13.86 | 14.98 Mbytes
   Step          Temp          E_pair         E_mol          TotEng         Press     
    620000   287.89607      381.21158      18559.3        19352.43      -50.430436    
    630000   285.0274       374.7108       18545.227      19327.751     -88.972836    
Loop time of 2.93172 on 48 procs for 10000 steps with 481 atoms

Performance: 14.735 ns/day, 1.629 hours/ns, 3410.972 timesteps/s, 1.641 Matom-step/s
100.0% CPU use with 48 MPI tasks x 1 OpenMP threads

MPI task timing breakdown:
Section |  min time  |  avg time  |  max time  |%varavg| %total
---------------------------------------------------------------
Pair    | 0.0033324  | 0.14731    | 0.77666    |  54.6 |  5.02
Bond    | 0.0010265  | 0.18412    | 0.7498     |  55.9 |  6.28
Neigh   | 0.006752   | 0.0076924  | 0.0081656  |   0.4 |  0.26
Comm    | 1.194      | 2.1444     | 2.6596     |  34.2 | 73.15
Output  | 0.0010861  | 0.0020849  | 0.0031403  |   1.4 |  0.07
Modify  | 0.10016    | 0.34266    | 1.3877     |  75.9 | 11.69
Other   |            | 0.1034     |            |       |  3.53

Nlocal:        10.0208 ave          44 max           0 min
Histogram: 21 8 5 6 0 2 2 1 1 2
Nghost:         1936.6 ave        2418 max        1329 min
Histogram: 8 0 0 0 24 0 0 0 0 16
Neighs:              0 ave           0 max           0 min
Histogram: 48 0 0 0 0 0 0 0 0 0

Total # of neighbors = 0
Ave neighs/atom = 0
Ave special neighs/atom = 15.567568
Neighbor list builds = 21
Dangerous builds = 0
fix             myat1 all ave/time 1000 10 10000 v_zave v_zdes file simulation_data/abpot/${cpt}.dat
fix             myat1 all ave/time 1000 10 10000 v_zave v_zdes file simulation_data/abpot/11.dat
run             50000
Generated 0 of 1 mixed pair_coeff terms from geometric mixing rule
Per MPI rank memory allocation (min/avg/max) = 13.32 | 13.86 | 14.98 Mbytes
   Step          Temp          E_pair         E_mol          TotEng         Press     
    630000   285.0274       374.7108       18545.227      19327.751     -88.972836    
    640000   305.98127      361.00844      18547.698      19346.501     -413.16084    
    650000   281.63963      393.99439      18562.046      19359.007      166.12385    
    660000   297.82799      389.87251      18526.527      19342.528     -62.564362    
    670000   304.90615      364.37227      18544.445      19345.074     -422.22339    
    680000   321.25259      375.27541      18537.506      19372.426     -68.013304    
Loop time of 15.2026 on 48 procs for 50000 steps with 481 atoms

Performance: 14.208 ns/day, 1.689 hours/ns, 3288.910 timesteps/s, 1.582 Matom-step/s
100.0% CPU use with 48 MPI tasks x 1 OpenMP threads

MPI task timing breakdown:
Section |  min time  |  avg time  |  max time  |%varavg| %total
---------------------------------------------------------------
Pair    | 0.016567   | 0.73856    | 3.9137     | 122.9 |  4.86
Bond    | 0.0052289  | 0.92172    | 3.8798     | 125.7 |  6.06
Neigh   | 0.04538    | 0.051359   | 0.054824   |   1.0 |  0.34
Comm    | 6.2538     | 11.124     | 13.773     |  79.0 | 73.17
Output  | 0.005818   | 0.010829   | 0.016304   |   3.2 |  0.07
Modify  | 0.57827    | 1.8385     | 7.419      | 178.2 | 12.09
Other   |            | 0.5179     |            |       |  3.41

Nlocal:        10.0208 ave          48 max           0 min
Histogram: 21 8 10 1 1 1 3 1 1 1
Nghost:        1929.98 ave        2408 max        1325 min
Histogram: 8 0 0 0 24 0 0 0 0 16
Neighs:              0 ave           0 max           0 min
Histogram: 48 0 0 0 0 0 0 0 0 0

Total # of neighbors = 0
Ave neighs/atom = 0
Ave special neighs/atom = 15.567568
Neighbor list builds = 137
Dangerous builds = 0
unfix           myat1
next            cpt
jump            SELF loop
variable        zdes equal  -15+0.60*(${cpt}-1)
variable        zdes equal  -15+0.60*(12-1)
variable        zave equal xcm(H2,z)
fix             mytth2 H2 spring tether ${k1} 2.5 2.5 ${zdes} 0
fix             mytth2 H2 spring tether 5.3 2.5 2.5 ${zdes} 0
fix             mytth2 H2 spring tether 5.3 2.5 2.5 -8.4 0
run             10000
Generated 0 of 1 mixed pair_coeff terms from geometric mixing rule
Per MPI rank memory allocation (min/avg/max) = 13.32 | 13.86 | 14.98 Mbytes
   Step          Temp          E_pair         E_mol          TotEng         Press     
    680000   321.25259      375.27541      18537.506      19372.426     -68.013304    
    690000   290.48798      376.98731      18556.531      19349.145     -89.572025    
Loop time of 2.95795 on 48 procs for 10000 steps with 481 atoms

Performance: 14.605 ns/day, 1.643 hours/ns, 3380.723 timesteps/s, 1.626 Matom-step/s
100.0% CPU use with 48 MPI tasks x 1 OpenMP threads

MPI task timing breakdown:
Section |  min time  |  avg time  |  max time  |%varavg| %total
---------------------------------------------------------------
Pair    | 0.0033317  | 0.14759    | 0.77155    |  54.5 |  4.99
Bond    | 0.0010467  | 0.18415    | 0.7725     |  55.9 |  6.23
Neigh   | 0.014331   | 0.01629    | 0.017341   |   0.6 |  0.55
Comm    | 1.1952     | 2.1507     | 2.6581     |  34.2 | 72.71
Output  | 0.0011535  | 0.0021718  | 0.0032514  |   1.4 |  0.07
Modify  | 0.11957    | 0.35341    | 1.3833     |  75.5 | 11.95
Other   |            | 0.1037     |            |       |  3.51

Nlocal:        10.0208 ave          52 max           0 min
Histogram: 21 11 4 5 1 1 3 1 0 1
Nghost:        1930.35 ave        2411 max        1321 min
Histogram: 8 0 0 0 24 0 0 0 0 16
Neighs:              0 ave           0 max           0 min
Histogram: 48 0 0 0 0 0 0 0 0 0

Total # of neighbors = 0
Ave neighs/atom = 0
Ave special neighs/atom = 15.567568
Neighbor list builds = 44
Dangerous builds = 0
fix             myat1 all ave/time 1000 10 10000 v_zave v_zdes file simulation_data/abpot/${cpt}.dat
fix             myat1 all ave/time 1000 10 10000 v_zave v_zdes file simulation_data/abpot/12.dat
run             50000
Generated 0 of 1 mixed pair_coeff terms from geometric mixing rule
Per MPI rank memory allocation (min/avg/max) = 13.32 | 13.86 | 14.98 Mbytes
   Step          Temp          E_pair         E_mol          TotEng         Press     
    690000   290.48798      376.98731      18556.531      19349.145     -89.572025    
    700000   299.41943      383.58742      18523.633      19335.627      122.71469    
    710000   320.18354      374.24425      18518.779      19351.138     -295.69385    
    720000   303.53386      383.13362      18528.276      19345.702     -196.96801    
    730000   299.88307      390.66951      18533.532      19353.27      -26.554838    
    740000   299.00982      399.94614      18551.243      19379.009      117.43546    
Loop time of 15.2323 on 48 procs for 50000 steps with 481 atoms

Performance: 14.180 ns/day, 1.692 hours/ns, 3282.502 timesteps/s, 1.579 Matom-step/s
100.0% CPU use with 48 MPI tasks x 1 OpenMP threads

MPI task timing breakdown:
Section |  min time  |  avg time  |  max time  |%varavg| %total
---------------------------------------------------------------
Pair    | 0.016809   | 0.73839    | 3.9559     | 122.9 |  4.85
Bond    | 0.0053233  | 0.92193    | 4.0194     | 125.5 |  6.05
Neigh   | 0.076566   | 0.087242   | 0.092817   |   1.3 |  0.57
Comm    | 6.2259     | 11.131     | 13.74      |  78.4 | 73.07
Output  | 0.0057824  | 0.01123    | 0.016811   |   3.4 |  0.07
Modify  | 0.59345    | 1.8278     | 7.3789     | 176.7 | 12.00
Other   |            | 0.5148     |            |       |  3.38

Nlocal:        10.0208 ave          40 max           0 min
Histogram: 20 5 9 6 0 0 2 2 0 4
Nghost:        1931.98 ave        2416 max        1333 min
Histogram: 8 0 0 0 24 0 0 0 0 16
Neighs:              0 ave           0 max           0 min
Histogram: 48 0 0 0 0 0 0 0 0 0

Total # of neighbors = 0
Ave neighs/atom = 0
Ave special neighs/atom = 15.567568
Neighbor list builds = 236
Dangerous builds = 0
unfix           myat1
next            cpt
jump            SELF loop
variable        zdes equal  -15+0.60*(${cpt}-1)
variable        zdes equal  -15+0.60*(13-1)
variable        zave equal xcm(H2,z)
fix             mytth2 H2 spring tether ${k1} 2.5 2.5 ${zdes} 0
fix             mytth2 H2 spring tether 5.3 2.5 2.5 ${zdes} 0
fix             mytth2 H2 spring tether 5.3 2.5 2.5 -7.8 0
run             10000
Generated 0 of 1 mixed pair_coeff terms from geometric mixing rule
Per MPI rank memory allocation (min/avg/max) = 13.32 | 13.87 | 14.98 Mbytes
   Step          Temp          E_pair         E_mol          TotEng         Press     
    740000   299.00982      399.94614      18551.243      19379.009      117.43546    
    750000   320.02733      387.45979      18553.249      19398.601     -119.08459    
Loop time of 2.9911 on 48 procs for 10000 steps with 481 atoms

Performance: 14.443 ns/day, 1.662 hours/ns, 3343.247 timesteps/s, 1.608 Matom-step/s
100.0% CPU use with 48 MPI tasks x 1 OpenMP threads

MPI task timing breakdown:
Section |  min time  |  avg time  |  max time  |%varavg| %total
---------------------------------------------------------------
Pair    | 0.0033441  | 0.14781    | 0.80942    |  55.4 |  4.94
Bond    | 0.0010629  | 0.18411    | 0.76356    |  56.1 |  6.16
Neigh   | 0.011345   | 0.012952   | 0.013727   |   0.5 |  0.43
Comm    | 1.1763     | 2.1838     | 2.6917     |  34.9 | 73.01
Output  | 0.0011395  | 0.0021417  | 0.0032001  |   1.4 |  0.07
Modify  | 0.11502    | 0.35679    | 1.4289     |  77.6 | 11.93
Other   |            | 0.1035     |            |       |  3.46

Nlocal:        10.0208 ave          37 max           0 min
Histogram: 20 4 10 6 0 0 0 2 2 4
Nghost:        1928.23 ave        2407 max        1336 min
Histogram: 8 0 0 0 24 0 0 0 0 16
Neighs:              0 ave           0 max           0 min
Histogram: 48 0 0 0 0 0 0 0 0 0

Total # of neighbors = 0
Ave neighs/atom = 0
Ave special neighs/atom = 15.567568
Neighbor list builds = 35
Dangerous builds = 0
fix             myat1 all ave/time 1000 10 10000 v_zave v_zdes file simulation_data/abpot/${cpt}.dat
fix             myat1 all ave/time 1000 10 10000 v_zave v_zdes file simulation_data/abpot/13.dat
run             50000
Generated 0 of 1 mixed pair_coeff terms from geometric mixing rule
Per MPI rank memory allocation (min/avg/max) = 13.32 | 13.87 | 14.98 Mbytes
   Step          Temp          E_pair         E_mol          TotEng         Press     
    750000   320.02733      387.45979      18553.249      19398.601     -119.08459    
    760000   314.94343      394.84077      18553.016      19398.474     -23.500853    
    770000   292.29118      386.55435      18539.951      19344.712     -136.0477     
    780000   294.4077       391.68201      18528.99       19341.907      34.244357    
    790000   301.86066      387.35121      18563.853      19383.103     -138.88879    
    800000   309.03049      396.08505      18567.442      19405.685      48.810739    
Loop time of 15.5641 on 48 procs for 50000 steps with 481 atoms

Performance: 13.878 ns/day, 1.729 hours/ns, 3212.518 timesteps/s, 1.545 Matom-step/s
100.0% CPU use with 48 MPI tasks x 1 OpenMP threads

MPI task timing breakdown:
Section |  min time  |  avg time  |  max time  |%varavg| %total
---------------------------------------------------------------
Pair    | 0.017501   | 0.74399    | 3.9608     | 123.6 |  4.78
Bond    | 0.0053184  | 0.92393    | 3.9162     | 125.1 |  5.94
Neigh   | 0.057971   | 0.068035   | 0.07253    |   1.3 |  0.44
Comm    | 6.7111     | 11.465     | 14.092     |  76.3 | 73.66
Output  | 0.0057139  | 0.01108    | 0.016406   |   3.3 |  0.07
Modify  | 0.57994    | 1.8331     | 7.4755     | 173.8 | 11.78
Other   |            | 0.5194     |            |       |  3.34

Nlocal:        10.0208 ave          38 max           0 min
Histogram: 20 6 7 5 2 0 0 1 5 2
Nghost:         1928.1 ave        2404 max        1335 min
Histogram: 8 0 0 0 24 0 0 0 0 16
Neighs:              0 ave           0 max           0 min
Histogram: 48 0 0 0 0 0 0 0 0 0

Total # of neighbors = 0
Ave neighs/atom = 0
Ave special neighs/atom = 15.567568
Neighbor list builds = 183
Dangerous builds = 0
unfix           myat1
next            cpt
jump            SELF loop
variable        zdes equal  -15+0.60*(${cpt}-1)
variable        zdes equal  -15+0.60*(14-1)
variable        zave equal xcm(H2,z)
fix             mytth2 H2 spring tether ${k1} 2.5 2.5 ${zdes} 0
fix             mytth2 H2 spring tether 5.3 2.5 2.5 ${zdes} 0
fix             mytth2 H2 spring tether 5.3 2.5 2.5 -7.2 0
run             10000
Generated 0 of 1 mixed pair_coeff terms from geometric mixing rule
Per MPI rank memory allocation (min/avg/max) = 13.32 | 13.87 | 14.98 Mbytes
   Step          Temp          E_pair         E_mol          TotEng         Press     
    800000   309.03049      396.08505      18567.442      19405.685      48.810739    
    810000   295.69466      404.94282      18549.696      19377.715      237.86029    
Loop time of 4.00084 on 48 procs for 10000 steps with 481 atoms

Performance: 10.798 ns/day, 2.223 hours/ns, 2499.478 timesteps/s, 1.202 Matom-step/s
100.0% CPU use with 48 MPI tasks x 1 OpenMP threads

MPI task timing breakdown:
Section |  min time  |  avg time  |  max time  |%varavg| %total
---------------------------------------------------------------
Pair    | 0.0033444  | 0.18107    | 1.0991     |  62.6 |  4.53
Bond    | 0.0011194  | 0.21254    | 1.067      |  63.4 |  5.31
Neigh   | 0.014387   | 0.016412   | 0.017585   |   0.6 |  0.41
Comm    | 1.5634     | 2.9724     | 3.6315     |  41.5 | 74.29
Output  | 0.0014816  | 0.0027334  | 0.0039815  |   1.6 |  0.07
Modify  | 0.13593    | 0.4912     | 2.2081     |  96.7 | 12.28
Other   |            | 0.1245     |            |       |  3.11

Nlocal:        10.0208 ave          38 max           0 min
Histogram: 19 11 3 1 6 0 1 1 2 4
Nghost:        1928.48 ave        2407 max        1335 min
Histogram: 8 0 0 0 24 0 0 0 0 16
Neighs:              0 ave           0 max           0 min
Histogram: 48 0 0 0 0 0 0 0 0 0

Total # of neighbors = 0
Ave neighs/atom = 0
Ave special neighs/atom = 15.567568
Neighbor list builds = 31
Dangerous builds = 0
fix             myat1 all ave/time 1000 10 10000 v_zave v_zdes file simulation_data/abpot/${cpt}.dat
fix             myat1 all ave/time 1000 10 10000 v_zave v_zdes file simulation_data/abpot/14.dat
run             50000
Generated 0 of 1 mixed pair_coeff terms from geometric mixing rule
Per MPI rank memory allocation (min/avg/max) = 13.32 | 13.87 | 14.98 Mbytes
   Step          Temp          E_pair         E_mol          TotEng         Press     
    810000   295.69466      404.94282      18549.696      19377.715      237.86029    
    820000   307.68869      392.20628      18541.599      19374.043     -19.262251    
    830000   304.78499      388.64618      18537.31       19362.039     -125.90514    
    840000   286.24841      383.8412       18553.87       19347.272     -281.54729    
    850000   295.11819      390.44987      18539.311      19352.013     -77.533799    
    860000   304.93408      394.6223       18560.592      19391.511     -40.532069    
Loop time of 22.2405 on 48 procs for 50000 steps with 481 atoms

Performance: 9.712 ns/day, 2.471 hours/ns, 2248.149 timesteps/s, 1.081 Matom-step/s
100.0% CPU use with 48 MPI tasks x 1 OpenMP threads

MPI task timing breakdown:
Section |  min time  |  avg time  |  max time  |%varavg| %total
---------------------------------------------------------------
Pair    | 0.017099   | 0.97128    | 6.2344     | 148.6 |  4.37
Bond    | 0.0055086  | 1.1198     | 5.963      | 149.5 |  5.03
Neigh   | 0.085323   | 0.094322   | 0.10195    |   1.3 |  0.42
Comm    | 8.0632     | 16.49      | 20.106     |  99.2 | 74.15
Output  | 0.008202   | 0.014466   | 0.020579   |   3.4 |  0.07
Modify  | 0.80687    | 2.8564     | 13.214     | 226.6 | 12.84
Other   |            | 0.6937     |            |       |  3.12

Nlocal:        10.0208 ave          46 max           0 min
Histogram: 20 8 11 1 1 2 1 1 1 2
Nghost:        1929.48 ave        2414 max        1327 min
Histogram: 8 0 0 0 24 0 0 0 0 16
Neighs:              0 ave           0 max           0 min
Histogram: 48 0 0 0 0 0 0 0 0 0

Total # of neighbors = 0
Ave neighs/atom = 0
Ave special neighs/atom = 15.567568
Neighbor list builds = 157
Dangerous builds = 0
unfix           myat1
next            cpt
jump            SELF loop
variable        zdes equal  -15+0.60*(${cpt}-1)
variable        zdes equal  -15+0.60*(15-1)
variable        zave equal xcm(H2,z)
fix             mytth2 H2 spring tether ${k1} 2.5 2.5 ${zdes} 0
fix             mytth2 H2 spring tether 5.3 2.5 2.5 ${zdes} 0
fix             mytth2 H2 spring tether 5.3 2.5 2.5 -6.6 0
run             10000
Generated 0 of 1 mixed pair_coeff terms from geometric mixing rule
Per MPI rank memory allocation (min/avg/max) = 13.32 | 13.87 | 14.98 Mbytes
   Step          Temp          E_pair         E_mol          TotEng         Press     
    860000   304.93408      394.6223       18560.592      19391.511     -40.532069    
    870000   309.44764      386.43043      18558.032      19387.217     -189.4309     
Loop time of 4.42528 on 48 procs for 10000 steps with 481 atoms

Performance: 9.762 ns/day, 2.458 hours/ns, 2259.745 timesteps/s, 1.087 Matom-step/s
100.0% CPU use with 48 MPI tasks x 1 OpenMP threads

MPI task timing breakdown:
Section |  min time  |  avg time  |  max time  |%varavg| %total
---------------------------------------------------------------
Pair    | 0.0033715  | 0.19305    | 1.2081     |  66.1 |  4.36
Bond    | 0.0011102  | 0.22296    | 1.1503     |  66.7 |  5.04
Neigh   | 0.011367   | 0.013114   | 0.014198   |   0.6 |  0.30
Comm    | 1.6021     | 3.2712     | 4.0206     |  43.5 | 73.92
Output  | 0.0015802  | 0.0028163  | 0.0040606  |   1.5 |  0.06
Modify  | 0.15125    | 0.5821     | 2.6347     |  98.6 | 13.15
Other   |            | 0.14       |            |       |  3.16

Nlocal:        10.0208 ave          47 max           0 min
Histogram: 20 7 13 0 1 2 0 3 1 1
Nghost:         1928.1 ave        2416 max        1326 min
Histogram: 8 0 0 0 24 0 0 0 0 16
Neighs:              0 ave           0 max           0 min
Histogram: 48 0 0 0 0 0 0 0 0 0

Total # of neighbors = 0
Ave neighs/atom = 0
Ave special neighs/atom = 15.567568
Neighbor list builds = 22
Dangerous builds = 0
fix             myat1 all ave/time 1000 10 10000 v_zave v_zdes file simulation_data/abpot/${cpt}.dat
fix             myat1 all ave/time 1000 10 10000 v_zave v_zdes file simulation_data/abpot/15.dat
run             50000
Generated 0 of 1 mixed pair_coeff terms from geometric mixing rule
Per MPI rank memory allocation (min/avg/max) = 13.32 | 13.87 | 14.98 Mbytes
   Step          Temp          E_pair         E_mol          TotEng         Press     
    870000   309.44764      386.43043      18558.032      19387.217     -189.4309     
    880000   297.2373       386.98114      18528.333      19340.598     -104.75245    
    890000   283.01142      394.19169      18538.201      19337.323      38.294847    
    900000   292.50377      386.30113      18579.973      19384.785     -243.23152    
    910000   310.09788      391.13727      18554.673      19389.495     -97.962671    
    920000   308.51342      395.48893      18552.532      19389.438     -51.24625     
Loop time of 21.167 on 48 procs for 50000 steps with 481 atoms

Performance: 10.205 ns/day, 2.352 hours/ns, 2362.171 timesteps/s, 1.136 Matom-step/s
100.0% CPU use with 48 MPI tasks x 1 OpenMP threads

MPI task timing breakdown:
Section |  min time  |  avg time  |  max time  |%varavg| %total
---------------------------------------------------------------
Pair    | 0.017114   | 0.95584    | 6.2345     | 148.2 |  4.52
Bond    | 0.0054979  | 1.1079     | 5.7447     | 147.8 |  5.23
Neigh   | 0.061343   | 0.068469   | 0.072474   |   1.0 |  0.32
Comm    | 7.5198     | 15.542     | 19.159     |  99.6 | 73.42
Output  | 0.0080472  | 0.013994   | 0.019864   |   3.3 |  0.07
Modify  | 0.72389    | 2.783      | 12.295     | 222.6 | 13.15
Other   |            | 0.696      |            |       |  3.29

Nlocal:        10.0208 ave          40 max           0 min
Histogram: 20 5 8 5 2 0 0 4 1 3
Nghost:        1930.98 ave        2413 max        1333 min
Histogram: 8 0 0 0 24 0 0 0 0 16
Neighs:              0 ave           0 max           0 min
Histogram: 48 0 0 0 0 0 0 0 0 0

Total # of neighbors = 0
Ave neighs/atom = 0
Ave special neighs/atom = 15.567568
Neighbor list builds = 116
Dangerous builds = 0
unfix           myat1
next            cpt
jump            SELF loop
variable        zdes equal  -15+0.60*(${cpt}-1)
variable        zdes equal  -15+0.60*(16-1)
variable        zave equal xcm(H2,z)
fix             mytth2 H2 spring tether ${k1} 2.5 2.5 ${zdes} 0
fix             mytth2 H2 spring tether 5.3 2.5 2.5 ${zdes} 0
fix             mytth2 H2 spring tether 5.3 2.5 2.5 -6 0
run             10000
Generated 0 of 1 mixed pair_coeff terms from geometric mixing rule
Per MPI rank memory allocation (min/avg/max) = 13.32 | 13.87 | 14.98 Mbytes
   Step          Temp          E_pair         E_mol          TotEng         Press     
    920000   308.51342      395.48893      18552.532      19389.438     -51.24625     
    930000   311.69522      387.02899      18533.051      19366.05      -211.63758    
Loop time of 4.11558 on 48 procs for 10000 steps with 481 atoms

Performance: 10.497 ns/day, 2.286 hours/ns, 2429.790 timesteps/s, 1.169 Matom-step/s
100.0% CPU use with 48 MPI tasks x 1 OpenMP threads

MPI task timing breakdown:
Section |  min time  |  avg time  |  max time  |%varavg| %total
---------------------------------------------------------------
Pair    | 0.0034758  | 0.18544    | 1.1291     |  65.1 |  4.51
Bond    | 0.0010878  | 0.21581    | 1.1049     |  65.2 |  5.24
Neigh   | 0.0156     | 0.017401   | 0.018436   |   0.5 |  0.42
Comm    | 1.5276     | 3.0145     | 3.7189     |  43.6 | 73.25
Output  | 0.0015407  | 0.0028036  | 0.0040511  |   1.6 |  0.07
Modify  | 0.13988    | 0.54222    | 2.3987     |  96.9 | 13.17
Other   |            | 0.1374     |            |       |  3.34

Nlocal:        10.0208 ave          50 max           0 min
Histogram: 24 5 8 4 1 0 2 2 1 1
Nghost:         1931.1 ave        2413 max        1323 min
Histogram: 8 0 0 0 24 0 0 0 0 16
Neighs:              0 ave           0 max           0 min
Histogram: 48 0 0 0 0 0 0 0 0 0

Total # of neighbors = 0
Ave neighs/atom = 0
Ave special neighs/atom = 15.567568
Neighbor list builds = 30
Dangerous builds = 0
fix             myat1 all ave/time 1000 10 10000 v_zave v_zdes file simulation_data/abpot/${cpt}.dat
fix             myat1 all ave/time 1000 10 10000 v_zave v_zdes file simulation_data/abpot/16.dat
run             50000
Generated 0 of 1 mixed pair_coeff terms from geometric mixing rule
Per MPI rank memory allocation (min/avg/max) = 13.32 | 13.87 | 14.98 Mbytes
   Step          Temp          E_pair         E_mol          TotEng         Press     
    930000   311.69522      387.02899      18533.051      19366.05      -211.63758    
    940000   281.48871      386.757        18508.526      19298.034     -107.2028     
    950000   298.29694      396.01778      18540.499      19363.317      97.173841    
    960000   306.54177      394.89855      18536.283      19369.778      109.92416    
    970000   304.15875      385.66352      18538.702      19359.552     -320.25064    
    980000   283.73714      397.39564      18531.503      19334.867      45.370795    
Loop time of 21.1566 on 48 procs for 50000 steps with 481 atoms

Performance: 10.210 ns/day, 2.351 hours/ns, 2363.331 timesteps/s, 1.137 Matom-step/s
99.9% CPU use with 48 MPI tasks x 1 OpenMP threads

MPI task timing breakdown:
Section |  min time  |  avg time  |  max time  |%varavg| %total
---------------------------------------------------------------
Pair    | 0.018161   | 0.92609    | 6.3675     | 142.5 |  4.38
Bond    | 0.0054824  | 1.0806     | 5.9896     | 142.2 |  5.11
Neigh   | 0.069932   | 0.079722   | 0.084835   |   1.2 |  0.38
Comm    | 7.1846     | 15.671     | 19.11      |  93.8 | 74.07
Output  | 0.0078867  | 0.013933   | 0.019929   |   3.4 |  0.07
Modify  | 0.8711     | 2.6924     | 11.549     | 216.0 | 12.73
Other   |            | 0.6927     |            |       |  3.27

Nlocal:        10.0208 ave          45 max           0 min
Histogram: 23 4 10 1 2 2 1 2 2 1
Nghost:         1934.1 ave        2421 max        1328 min
Histogram: 8 0 0 0 24 0 0 0 0 16
Neighs:              0 ave           0 max           0 min
Histogram: 48 0 0 0 0 0 0 0 0 0

Total # of neighbors = 0
Ave neighs/atom = 0
Ave special neighs/atom = 15.567568
Neighbor list builds = 138
Dangerous builds = 0
unfix           myat1
next            cpt
jump            SELF loop
variable        zdes equal  -15+0.60*(${cpt}-1)
variable        zdes equal  -15+0.60*(17-1)
variable        zave equal xcm(H2,z)
fix             mytth2 H2 spring tether ${k1} 2.5 2.5 ${zdes} 0
fix             mytth2 H2 spring tether 5.3 2.5 2.5 ${zdes} 0
fix             mytth2 H2 spring tether 5.3 2.5 2.5 -5.4 0
run             10000
Generated 0 of 1 mixed pair_coeff terms from geometric mixing rule
Per MPI rank memory allocation (min/avg/max) = 13.32 | 13.87 | 14.98 Mbytes
   Step          Temp          E_pair         E_mol          TotEng         Press     
    980000   283.73714      397.39564      18531.503      19334.867      45.370795    
    990000   289.08617      390.17718      18528.398      19332.197     -66.760817    
Loop time of 4.19845 on 48 procs for 10000 steps with 481 atoms

Performance: 10.290 ns/day, 2.332 hours/ns, 2381.832 timesteps/s, 1.146 Matom-step/s
100.0% CPU use with 48 MPI tasks x 1 OpenMP threads

MPI task timing breakdown:
Section |  min time  |  avg time  |  max time  |%varavg| %total
---------------------------------------------------------------
Pair    | 0.003352   | 0.18009    | 1.2668     |  62.1 |  4.29
Bond    | 0.0010568  | 0.21297    | 1.184      |  62.1 |  5.07
Neigh   | 0.014222   | 0.016976   | 0.018452   |   0.8 |  0.40
Comm    | 1.4697     | 3.1723     | 3.8226     |  38.6 | 75.56
Output  | 0.0015433  | 0.0027574  | 0.0040033  |   1.5 |  0.07
Modify  | 0.13306    | 0.48242    | 2.0734     |  93.5 | 11.49
Other   |            | 0.1309     |            |       |  3.12

Nlocal:        10.0208 ave          40 max           0 min
Histogram: 20 6 7 5 2 0 0 2 4 2
Nghost:        1927.23 ave        2412 max        1333 min
Histogram: 8 0 0 0 24 0 0 0 0 16
Neighs:              0 ave           0 max           0 min
Histogram: 48 0 0 0 0 0 0 0 0 0

Total # of neighbors = 0
Ave neighs/atom = 0
Ave special neighs/atom = 15.567568
[...]
Section |  min time  |  avg time  |  max time  |%varavg| %total
---------------------------------------------------------------
Pair    | 0.003398   | 0.20022    | 1.3122     |  73.2 |  4.32
Bond    | 0.0010427  | 0.2233     | 1.1716     |  66.6 |  4.82
Neigh   | 0.0051645  | 0.005503   | 0.0057474  |   0.2 |  0.12
Comm    | 1.5229     | 3.4127     | 4.2721     |  51.5 | 73.62
Output  | 0.0017373  | 0.0030397  | 0.004384   |   1.6 |  0.07
Modify  | 0.13249    | 0.6553     | 2.9597     | 116.4 | 14.14
Other   |            | 0.1357     |            |       |  2.93

Nlocal:        10.0208 ave          44 max           0 min
Histogram: 23 7 5 4 1 3 1 0 1 3
Nghost:        1925.23 ave        2400 max        1331 min
Histogram: 8 0 0 0 24 0 0 0 0 16
Neighs:              0 ave           0 max           0 min
Histogram: 48 0 0 0 0 0 0 0 0 0

Total # of neighbors = 0
Ave neighs/atom = 0
Ave special neighs/atom = 15.567568
Neighbor list builds = 8
Dangerous builds = 0
fix             myat1 all ave/time 1000 10 10000 v_zave v_zdes file simulation_data/abpot/${cpt}.dat
fix             myat1 all ave/time 1000 10 10000 v_zave v_zdes file simulation_data/abpot/47.dat
run             50000
Generated 0 of 1 mixed pair_coeff terms from geometric mixing rule
Per MPI rank memory allocation (min/avg/max) = 13.32 | 13.88 | 14.98 Mbytes
   Step          Temp          E_pair         E_mol          TotEng         Press     
   2790000   302.53302      367.60564      18531.809      19332.275     -175.56718    
   2800000   283.42776      367.34567      18500.782      19273.653      30.859645    
   2810000   288.94125      369.95599      18533.352      19316.722     -117.15513    
   2820000   301.91413      367.58741      18537.938      19337.501     -178.60233    
   2830000   310.02846      370.96236      18536.649      19351.196     -50.18464     
   2840000   308.12428      373.09491      18578.553      19392.509     -56.296179    
Loop time of 22.1546 on 48 procs for 50000 steps with 481 atoms

Performance: 9.750 ns/day, 2.462 hours/ns, 2256.863 timesteps/s, 1.086 Matom-step/s
100.0% CPU use with 48 MPI tasks x 1 OpenMP threads

MPI task timing breakdown:
Section |  min time  |  avg time  |  max time  |%varavg| %total
---------------------------------------------------------------
Pair    | 0.017165   | 1.0384     | 7.0568     | 166.0 |  4.69
Bond    | 0.0052463  | 1.1549     | 5.8297     | 151.2 |  5.21
Neigh   | 0.032888   | 0.034703   | 0.036008   |   0.4 |  0.16
Comm    | 7.9987     | 16.209     | 20.336     | 111.6 | 73.16
Output  | 0.008673   | 0.01513    | 0.021571   |   3.5 |  0.07
Modify  | 0.69176    | 3.0193     | 13.375     | 247.4 | 13.63
Other   |            | 0.6837     |            |       |  3.09

Nlocal:        10.0208 ave          47 max           0 min
Histogram: 21 9 7 2 3 2 0 1 1 2
Nghost:        1919.85 ave        2391 max        1326 min
Histogram: 8 0 0 0 24 0 0 0 0 16
Neighs:              0 ave           0 max           0 min
Histogram: 48 0 0 0 0 0 0 0 0 0

Total # of neighbors = 0
Ave neighs/atom = 0
Ave special neighs/atom = 15.567568
Neighbor list builds = 54
Dangerous builds = 0
unfix           myat1
next            cpt
jump            SELF loop
variable        zdes equal  -15+0.60*(${cpt}-1)
variable        zdes equal  -15+0.60*(48-1)
variable        zave equal xcm(H2,z)
fix             mytth2 H2 spring tether ${k1} 2.5 2.5 ${zdes} 0
fix             mytth2 H2 spring tether 5.3 2.5 2.5 ${zdes} 0
fix             mytth2 H2 spring tether 5.3 2.5 2.5 13.2 0
run             10000
Generated 0 of 1 mixed pair_coeff terms from geometric mixing rule
Per MPI rank memory allocation (min/avg/max) = 13.32 | 13.88 | 14.98 Mbytes
   Step          Temp          E_pair         E_mol          TotEng         Press     
   2840000   308.12428      373.09491      18578.553      19392.509     -56.296179    
   2850000   290.53651      371.48377      18531.269      19318.449     -40.121168    
Loop time of 4.56541 on 48 procs for 10000 steps with 481 atoms

Performance: 9.462 ns/day, 2.536 hours/ns, 2190.386 timesteps/s, 1.054 Matom-step/s
100.0% CPU use with 48 MPI tasks x 1 OpenMP threads

MPI task timing breakdown:
Section |  min time  |  avg time  |  max time  |%varavg| %total
---------------------------------------------------------------
Pair    | 0.0034487  | 0.212      | 1.3648     |  73.4 |  4.64
Bond    | 0.0010708  | 0.23357    | 1.1214     |  67.6 |  5.12
Neigh   | 0.0087642  | 0.0092705  | 0.0095533  |   0.2 |  0.20
Comm    | 1.787      | 3.3596     | 4.2056     |  50.0 | 73.59
Output  | 0.0016967  | 0.0029871  | 0.0043138  |   1.6 |  0.07
Modify  | 0.13451    | 0.61282    | 2.6216     | 113.2 | 13.42
Other   |            | 0.1352     |            |       |  2.96

Nlocal:        10.0208 ave          47 max           0 min
Histogram: 21 8 9 2 0 3 1 2 0 2
Nghost:        1919.73 ave        2405 max        1326 min
Histogram: 8 0 0 0 24 0 0 0 0 16
Neighs:              0 ave           0 max           0 min
Histogram: 48 0 0 0 0 0 0 0 0 0

Total # of neighbors = 0
Ave neighs/atom = 0
Ave special neighs/atom = 15.567568
Neighbor list builds = 14
Dangerous builds = 0
fix             myat1 all ave/time 1000 10 10000 v_zave v_zdes file simulation_data/abpot/${cpt}.dat
fix             myat1 all ave/time 1000 10 10000 v_zave v_zdes file simulation_data/abpot/48.dat
run             50000
Generated 0 of 1 mixed pair_coeff terms from geometric mixing rule
Per MPI rank memory allocation (min/avg/max) = 13.32 | 13.88 | 14.98 Mbytes
   Step          Temp          E_pair         E_mol          TotEng         Press     
   2850000   290.53651      371.48377      18531.269      19318.449     -40.121168    
   2860000   298.57995      366.9901       18525.715      19319.91      -144.82437    
   2870000   285.71726      379.7709       18536.862      19325.434      178.49754    
   2880000   291.02856      372.08513      18553.778      19342.263     -128.18126    
   2890000   315.60424      373.08451      18518.536      19343.183     -1.9985107    
   2900000   310.7636       368.28282      18535.215      19348.135     -303.96099    
Loop time of 21.151 on 48 procs for 50000 steps with 481 atoms

Performance: 10.212 ns/day, 2.350 hours/ns, 2363.955 timesteps/s, 1.137 Matom-step/s
100.0% CPU use with 48 MPI tasks x 1 OpenMP threads

MPI task timing breakdown:
Section |  min time  |  avg time  |  max time  |%varavg| %total
---------------------------------------------------------------
Pair    | 0.017198   | 0.97017    | 6.0751     | 155.1 |  4.59
Bond    | 0.0053036  | 1.1019     | 4.8869     | 141.8 |  5.21
Neigh   | 0.035982   | 0.038379   | 0.039821   |   0.5 |  0.18
Comm    | 8.0672     | 15.462     | 19.445     | 102.7 | 73.10
Output  | 0.0084185  | 0.014871   | 0.021226   |   3.5 |  0.07
Modify  | 0.64896    | 2.903      | 12.321     | 231.1 | 13.72
Other   |            | 0.6604     |            |       |  3.12

Nlocal:        10.0208 ave          44 max           0 min
Histogram: 20 7 10 3 0 2 0 3 1 2
Nghost:        1925.23 ave        2400 max        1337 min
Histogram: 8 0 0 0 24 0 0 0 0 16
Neighs:              0 ave           0 max           0 min
Histogram: 48 0 0 0 0 0 0 0 0 0

Total # of neighbors = 0
Ave neighs/atom = 0
Ave special neighs/atom = 15.567568
Neighbor list builds = 62
Dangerous builds = 0
unfix           myat1
next            cpt
jump            SELF loop
variable        zdes equal  -15+0.60*(${cpt}-1)
variable        zdes equal  -15+0.60*(49-1)
variable        zave equal xcm(H2,z)
fix             mytth2 H2 spring tether ${k1} 2.5 2.5 ${zdes} 0
fix             mytth2 H2 spring tether 5.3 2.5 2.5 ${zdes} 0
fix             mytth2 H2 spring tether 5.3 2.5 2.5 13.8 0
run             10000
Generated 0 of 1 mixed pair_coeff terms from geometric mixing rule
Per MPI rank memory allocation (min/avg/max) = 13.32 | 13.88 | 14.98 Mbytes
   Step          Temp          E_pair         E_mol          TotEng         Press     
   2900000   310.7636       368.28282      18535.215      19348.135     -303.96099    
   2910000   317.14741      371.99101      18497.829      19323.591      76.49641     
Loop time of 4.00631 on 48 procs for 10000 steps with 481 atoms

Performance: 10.783 ns/day, 2.226 hours/ns, 2496.061 timesteps/s, 1.201 Matom-step/s
100.0% CPU use with 48 MPI tasks x 1 OpenMP threads

MPI task timing breakdown:
Section |  min time  |  avg time  |  max time  |%varavg| %total
---------------------------------------------------------------
Pair    | 0.0033827  | 0.17863    | 1.2956     |  66.2 |  4.46
Bond    | 0.0010463  | 0.20606    | 1.0033     |  60.1 |  5.14
Neigh   | 0.0069291  | 0.007385   | 0.007764   |   0.3 |  0.18
Comm    | 1.4457     | 2.9712     | 3.6765     |  42.9 | 74.16
Output  | 0.0017074  | 0.002964   | 0.0042615  |   1.5 |  0.07
Modify  | 0.12477    | 0.51064    | 2.2472     | 101.3 | 12.75
Other   |            | 0.1294     |            |       |  3.23

Nlocal:        10.0208 ave          50 max           0 min
Histogram: 20 9 10 1 2 1 1 2 1 1
Nghost:        1920.73 ave        2394 max        1323 min
Histogram: 8 0 0 0 24 0 0 0 0 16
Neighs:              0 ave           0 max           0 min
Histogram: 48 0 0 0 0 0 0 0 0 0

Total # of neighbors = 0
Ave neighs/atom = 0
Ave special neighs/atom = 15.567568
Neighbor list builds = 12
Dangerous builds = 0
fix             myat1 all ave/time 1000 10 10000 v_zave v_zdes file simulation_data/abpot/${cpt}.dat
fix             myat1 all ave/time 1000 10 10000 v_zave v_zdes file simulation_data/abpot/49.dat
run             50000
Generated 0 of 1 mixed pair_coeff terms from geometric mixing rule
Per MPI rank memory allocation (min/avg/max) = 13.32 | 13.88 | 14.98 Mbytes
   Step          Temp          E_pair         E_mol          TotEng         Press     
   2910000   317.14741      371.99101      18497.829      19323.591      76.49641     
   2920000   294.42401      370.602        18516.944      19308.805     -78.321581    
   2930000   302.44703      379.49192      18496.138      19308.367      161.18263    
   2940000   300.34241      371.47895      18527.235      19328.441      10.21376     
   2950000   307.52672      373.16734      18559.425      19372.598      20.432762    
   2960000   308.33318      360.98182      18544.013      19346.154     -295.16962    
Loop time of 20.6264 on 48 procs for 50000 steps with 481 atoms

Performance: 10.472 ns/day, 2.292 hours/ns, 2424.083 timesteps/s, 1.166 Matom-step/s
100.0% CPU use with 48 MPI tasks x 1 OpenMP threads

MPI task timing breakdown:
Section |  min time  |  avg time  |  max time  |%varavg| %total
---------------------------------------------------------------
Pair    | 0.016738   | 0.89223    | 6.4148     | 151.2 |  4.33
Bond    | 0.005191   | 1.0291     | 4.8948     | 136.3 |  4.99
Neigh   | 0.030828   | 0.032918   | 0.034527   |   0.5 |  0.16
Comm    | 7.561      | 15.251     | 18.9       | 101.7 | 73.94
Output  | 0.0078608  | 0.013884   | 0.019852   |   3.3 |  0.07
Modify  | 0.67934    | 2.755      | 12.293     | 236.1 | 13.36
Other   |            | 0.652      |            |       |  3.16

Nlocal:        10.0208 ave          37 max           0 min
Histogram: 21 5 6 5 3 0 0 0 4 4
Nghost:        1924.73 ave        2407 max        1338 min
Histogram: 8 0 0 0 24 0 0 0 0 16
Neighs:              0 ave           0 max           0 min
Histogram: 48 0 0 0 0 0 0 0 0 0

Total # of neighbors = 0
Ave neighs/atom = 0
Ave special neighs/atom = 15.567568
Neighbor list builds = 54
Dangerous builds = 0
unfix           myat1
next            cpt
jump            SELF loop
variable        zdes equal  -15+0.60*(${cpt}-1)
variable        zdes equal  -15+0.60*(50-1)
variable        zave equal xcm(H2,z)
fix             mytth2 H2 spring tether ${k1} 2.5 2.5 ${zdes} 0
fix             mytth2 H2 spring tether 5.3 2.5 2.5 ${zdes} 0
fix             mytth2 H2 spring tether 5.3 2.5 2.5 14.4 0
run             10000
Generated 0 of 1 mixed pair_coeff terms from geometric mixing rule
Per MPI rank memory allocation (min/avg/max) = 13.32 | 13.88 | 14.98 Mbytes
   Step          Temp          E_pair         E_mol          TotEng         Press     
   2960000   308.33318      360.98182      18544.013      19346.154     -295.16962    
   2970000   291.32336      365.61177      18535.254      19317.688     -207.79712    
Loop time of 3.21889 on 48 procs for 10000 steps with 481 atoms

Performance: 13.421 ns/day, 1.788 hours/ns, 3106.663 timesteps/s, 1.494 Matom-step/s
99.9% CPU use with 48 MPI tasks x 1 OpenMP threads

MPI task timing breakdown:
Section |  min time  |  avg time  |  max time  |%varavg| %total
---------------------------------------------------------------
Pair    | 0.0033349  | 0.1542     | 0.86991    |  55.5 |  4.79
Bond    | 0.0010561  | 0.1915     | 0.8486     |  58.3 |  5.95
Neigh   | 0.0043218  | 0.004789   | 0.0051103  |   0.3 |  0.15
Comm    | 1.2645     | 2.3431     | 2.9112     |  36.1 | 72.79
Output  | 0.0012607  | 0.0023234  | 0.0034288  |   1.5 |  0.07
Modify  | 0.1353     | 0.41173    | 1.6507     |  79.1 | 12.79
Other   |            | 0.1112     |            |       |  3.46

Nlocal:        10.0208 ave          42 max           0 min
Histogram: 21 7 5 5 2 2 1 1 2 2
Nghost:         1923.1 ave        2410 max        1332 min
Histogram: 8 0 0 1 23 0 0 0 0 16
Neighs:              0 ave           0 max           0 min
Histogram: 48 0 0 0 0 0 0 0 0 0

Total # of neighbors = 0
Ave neighs/atom = 0
Ave special neighs/atom = 15.567568
Neighbor list builds = 11
Dangerous builds = 0
fix             myat1 all ave/time 1000 10 10000 v_zave v_zdes file simulation_data/abpot/${cpt}.dat
fix             myat1 all ave/time 1000 10 10000 v_zave v_zdes file simulation_data/abpot/50.dat
run             50000
Generated 0 of 1 mixed pair_coeff terms from geometric mixing rule
Per MPI rank memory allocation (min/avg/max) = 13.32 | 13.88 | 14.98 Mbytes
   Step          Temp          E_pair         E_mol          TotEng         Press     
   2970000   291.32336      365.61177      18535.254      19317.688     -207.79712    
   2980000   295.03812      369.2288       18505.928      19297.294      32.792549    
   2990000   305.94522      360.33426      18533.71       19331.788     -278.31493    
   3000000   295.85643      367.80721      18545.851      19336.966     -76.758891    
   3010000   316.42274      364.43408      18542.222      19359.39      -201.05497    
   3020000   302.32828      371.35732      18542.948      19346.873     -22.438889    
Loop time of 16.1734 on 48 procs for 50000 steps with 481 atoms

Performance: 13.355 ns/day, 1.797 hours/ns, 3091.501 timesteps/s, 1.487 Matom-step/s
100.0% CPU use with 48 MPI tasks x 1 OpenMP threads

MPI task timing breakdown:
Section |  min time  |  avg time  |  max time  |%varavg| %total
---------------------------------------------------------------
Pair    | 0.016516   | 0.74765    | 4.2451     | 122.2 |  4.62
Bond    | 0.0052649  | 0.93864    | 3.8996     | 126.4 |  5.80
Neigh   | 0.024674   | 0.026953   | 0.028511   |   0.6 |  0.17
Comm    | 6.6576     | 11.823     | 14.72      |  80.8 | 73.10
Output  | 0.0061819  | 0.011768   | 0.017242   |   3.4 |  0.07
Modify  | 0.60216    | 2.0339     | 8.2884     | 188.7 | 12.58
Other   |            | 0.5916     |            |       |  3.66

Nlocal:        10.0208 ave          40 max           0 min
Histogram: 21 6 4 5 4 1 0 2 2 3
Nghost:        1925.48 ave        2403 max        1334 min
Histogram: 8 0 0 0 24 0 0 0 0 16
Neighs:              0 ave           0 max           0 min
Histogram: 48 0 0 0 0 0 0 0 0 0

Total # of neighbors = 0
Ave neighs/atom = 0
Ave special neighs/atom = 15.567568
Neighbor list builds = 62
Dangerous builds = 0
unfix           myat1
next            cpt
jump            SELF loop
variable        zdes equal  -15+0.60*(${cpt}-1)
variable        zdes equal  -15+0.60*(51-1)
variable        zave equal xcm(H2,z)
fix             mytth2 H2 spring tether ${k1} 2.5 2.5 ${zdes} 0
fix             mytth2 H2 spring tether 5.3 2.5 2.5 ${zdes} 0
fix             mytth2 H2 spring tether 5.3 2.5 2.5 15 0
run             10000
Generated 0 of 1 mixed pair_coeff terms from geometric mixing rule
Per MPI rank memory allocation (min/avg/max) = 13.32 | 13.88 | 14.99 Mbytes
   Step          Temp          E_pair         E_mol          TotEng         Press     
   3020000   302.32828      371.35732      18542.948      19346.873     -22.438889    
   3030000   308.19084      376.1501       18497.995      19315.102      225.05224    
Loop time of 3.71201 on 48 procs for 10000 steps with 481 atoms

Performance: 11.638 ns/day, 2.062 hours/ns, 2693.958 timesteps/s, 1.296 Matom-step/s
100.0% CPU use with 48 MPI tasks x 1 OpenMP threads

MPI task timing breakdown:
Section |  min time  |  avg time  |  max time  |%varavg| %total
---------------------------------------------------------------
Pair    | 0.0034272  | 0.15923    | 1.1997     |  61.0 |  4.29
Bond    | 0.001036   | 0.196      | 1.0638     |  60.6 |  5.28
Neigh   | 0.0054928  | 0.005934   | 0.0062114  |   0.2 |  0.16
Comm    | 1.2031     | 2.7274     | 3.4055     |  42.9 | 73.48
Output  | 0.0014736  | 0.0025316  | 0.0036249  |   1.4 |  0.07
Modify  | 0.12377    | 0.5026     | 2.1289     | 100.0 | 13.54
Other   |            | 0.1183     |            |       |  3.19

Nlocal:        10.0208 ave          41 max           0 min
Histogram: 23 7 3 6 1 1 1 2 1 3
Nghost:        1930.23 ave        2419 max        1333 min
Histogram: 8 0 0 0 24 0 0 0 0 16
Neighs:              0 ave           0 max           0 min
Histogram: 48 0 0 0 0 0 0 0 0 0

Total # of neighbors = 0
Ave neighs/atom = 0
Ave special neighs/atom = 15.567568
Neighbor list builds = 11
Dangerous builds = 0
fix             myat1 all ave/time 1000 10 10000 v_zave v_zdes file simulation_data/abpot/${cpt}.dat
fix             myat1 all ave/time 1000 10 10000 v_zave v_zdes file simulation_data/abpot/51.dat
run             50000
Generated 0 of 1 mixed pair_coeff terms from geometric mixing rule
Per MPI rank memory allocation (min/avg/max) = 13.32 | 13.88 | 14.99 Mbytes
   Step          Temp          E_pair         E_mol          TotEng         Press     
   3030000   308.19084      376.1501       18497.995      19315.102      225.05224    
   3040000   302.33395      367.82168      18528.629      19329.027     -175.04864    
   3050000   315.00042      364.78518      18534.252      19349.736     -75.093162    
   3060000   303.06749      362.40705      18535.004      19331.037     -220.22703    
   3070000   293.35733      371.19626      18522.251      19313.18      -96.170522    
   3080000   289.50834      363.62057      18511.199      19289.045     -130.14882    
Loop time of 17.5212 on 48 procs for 50000 steps with 481 atoms

Performance: 12.328 ns/day, 1.947 hours/ns, 2853.689 timesteps/s, 1.373 Matom-step/s
100.0% CPU use with 48 MPI tasks x 1 OpenMP threads

MPI task timing breakdown:
Section |  min time  |  avg time  |  max time  |%varavg| %total
---------------------------------------------------------------
Pair    | 0.017387   | 0.77907    | 5.19       | 129.5 |  4.45
Bond    | 0.0051999  | 0.95995    | 4.488      | 130.9 |  5.48
Neigh   | 0.02302    | 0.025608   | 0.026882   |   0.6 |  0.15
Comm    | 6.5996     | 12.918     | 16.012     |  88.6 | 73.73
Output  | 0.0068723  | 0.012904   | 0.018678   |   3.5 |  0.07
Modify  | 0.6353     | 2.2303     | 9.4041     | 209.3 | 12.73
Other   |            | 0.5958     |            |       |  3.40

Nlocal:        10.0208 ave          49 max           0 min
Histogram: 23 5 9 4 1 2 0 1 2 1
Nghost:        1928.35 ave        2411 max        1324 min
Histogram: 8 0 0 0 24 0 0 0 0 16
Neighs:              0 ave           0 max           0 min
Histogram: 48 0 0 0 0 0 0 0 0 0

Total # of neighbors = 0
Ave neighs/atom = 0
Ave special neighs/atom = 15.567568
Neighbor list builds = 53
Dangerous builds = 0
unfix           myat1
next            cpt
jump            SELF loop

Total wall time: 0:18:53
