# --- log file ---

variable pre equal 112 # desired pressure (Atm)
variable tem equal 300 # desired temperature (K)

variable k1 equal 0.6 # spring constant
variable k2 equal 3.5 # spring constant

units real
atom_style molecular
boundary p p p
neighbor 1.0 bin
neigh_modify delay 3 one 6000
bond_style harmonic
angle_style harmonic
dihedral_style opls
improper_style harmonic
pair_style hybrid lj/cut 14 sg 15 cb 30 # Fluid-fluid interactions have a cutoff of 15 Å, fluid-solid interactions have a cutoff of 30 Å
# *--* C-C parameters *--*
bond_style harmonic
angle_style harmonic
dihedral_style opls
improper_style harmonic
# *--* C-C parameters *--*


# 2. Read the graphite platelet data file and define potentials parameters
read_data       ../geometry/carbonPlatelets/simulation_data/abpot_sys.data  extra/atom/types 1
Reading data file ...
  orthogonal box = (-30 -30 -30) to (30 30 30)
  4 by 4 by 4 MPI processor grid
  reading atoms ...
  480 atoms
  reading velocities ...
  480 velocities
  scanning bonds ...
  2 = max bonds/atom
  scanning angles ...
  3 = max angles/atom
  scanning dihedrals ...
  8 = max dihedrals/atom
  scanning impropers ...
  2 = max impropers/atom
  orthogonal box = (-30 -30 -30) to (30 30 30)
  4 by 4 by 4 MPI processor grid
  reading bonds ...
  676 bonds
  reading angles ...
  1268 angles
  reading dihedrals ...
  2394 dihedrals
  reading impropers ...
  396 impropers
Finding 1-2 1-3 1-4 neighbors ...
  special bond factors lj:    0        0        0       
  special bond factors coul:  0        0        0       
     3 = max # of 1-2 neighbors
     6 = max # of 1-3 neighbors
    18 = max # of 1-4 neighbors
    18 = max # of special neighbors
  special bonds CPU = 0.002 seconds
  read_data CPU = 0.049 seconds
include         PARM.lammps

#////////////////////////////////////////////////////////////////////////////////////////////////////////////////////////////////
#//     Filename: PARM.lammps
#//     File Type: LAMMPS input script
#//     Description: This script defines the parameters for the simulation of hydrogen absorption in graphite platelets.
#//     Author: Edoardo Cabiati
#//     Date: 2024-07-27
#////////////////////////////////////////////////////////////////////////////////////////////////////////////////////////////////

mass 2 2.016 # For now at least, in accordance with the paper by Wang and Johnson,
             # 1998, the hydrogen atoms are regarded as simple spherical atoms

# //////////////////////////////////////    C-C potentials    //////////////////////////////////////
pair_coeff 1 1 lj/cut 0.066 3.4
bond_coeff 1 469 1.4
angle_coeff 1 63 120
dihedral_coeff 1 0 7.25 0 0
improper_coeff 1 5 180
special_bonds lj 0.0 0.0 0.5
Finding 1-2 1-3 1-4 neighbors ...
  special bond factors lj:    0        0        0.5     
  special bond factors coul:  0        0        0       
     3 = max # of 1-2 neighbors
     6 = max # of 1-3 neighbors
    18 = max # of 1-4 neighbors
    18 = max # of special neighbors
  special bonds CPU = 0.001 seconds
# //////////////////////////////////////    C-C potentials    //////////////////////////////////////
# -------------------------------------------------------------------------------------------------
# //////////////////////////////////////    H-H potentials    //////////////////////////////////////
variable alpha equal 1.713          #|
variable sigma equal 1.567          #|
variable gamma equal 0.00993        #|
variable c6 equal 12.14             #|      The parameters are all in atomic units, the conversion to kcal/mol
variable c8 equal 215.2             #|      is performed in the pair_sg.cpp file
variable c9 equal 143.1             #|
variable c10 equal 4813.9           #|
variable rc equal 8.321             #|
pair_coeff 2 2 sg ${alpha} ${sigma} ${gamma} ${c6} ${c8} ${c9} ${c10} ${rc} # H-H potentials
pair_coeff 2 2 sg 1.713 ${sigma} ${gamma} ${c6} ${c8} ${c9} ${c10} ${rc} 
pair_coeff 2 2 sg 1.713 1.567 ${gamma} ${c6} ${c8} ${c9} ${c10} ${rc} 
pair_coeff 2 2 sg 1.713 1.567 0.00993 ${c6} ${c8} ${c9} ${c10} ${rc} 
pair_coeff 2 2 sg 1.713 1.567 0.00993 12.14 ${c8} ${c9} ${c10} ${rc} 
pair_coeff 2 2 sg 1.713 1.567 0.00993 12.14 215.2 ${c9} ${c10} ${rc} 
pair_coeff 2 2 sg 1.713 1.567 0.00993 12.14 215.2 143.1 ${c10} ${rc} 
pair_coeff 2 2 sg 1.713 1.567 0.00993 12.14 215.2 143.1 4813.9 ${rc} 
pair_coeff 2 2 sg 1.713 1.567 0.00993 12.14 215.2 143.1 4813.9 8.321 
#pair_coeff 2 2 sg 1.713 1.567 0.00993 12.14 215.2 143.1 4813.9 8.321 # H-H potentials
# //////////////////////////////////////    H-H potentials    //////////////////////////////////////
# -------------------------------------------------------------------------------------------------
# //////////////////////////////////////    C-H potentials    //////////////////////////////////////
# Parameters taken from the paper by Wang and Johnson, 1998
variable sigma_CC equal 3.43 # Å
variable sigma_HH equal 3.075 # Å
variable sigma_CH_geo equal sqrt(${sigma_CC}*${sigma_HH}) # Å
variable sigma_CH_geo equal sqrt(3.43*${sigma_HH}) 
variable sigma_CH_geo equal sqrt(3.43*3.075) 
variable sigma_CH_arit equal 0.5*(${sigma_CC}+${sigma_HH}) # Å
variable sigma_CH_arit equal 0.5*(3.43+${sigma_HH}) 
variable sigma_CH_arit equal 0.5*(3.43+3.075) 

variable P_par equal 0.57 # Å^3
variable P_perp equal 1.995 # Å^3
variable P_h equal 0.81 # Å^3
variable E_h equal 2.337e5*(1/503.23) # K * 1/503.23 kcal/mol/K = kcal/mol
variable E_c equal 1.39254e5*(1/503.23) # K * 1/503.23 kcal/mol/K = kcal/mol

variable epsilon equal 4*(5/11)*v_E_h*v_E_c*v_P_h*(v_P_par+v_P_perp/2)/(v_sigma_CH_geo^6*(v_E_h+v_E_c)) # kcal/mol
# The formula taken from paper by Wang and Johnson, 1998 to construct epsilon does not seem to be consistent with the
# results obtained from the LAMMPS simulation. We will be using the value of epsilon obtained from the simplified
# version of the CB potential as 12-6 lennard-jones potential, presented in the paper "Theoretical investigation of the
# effect of graphite interlayer spacing on hydrogen absorption" by Rachel S. Aga, C. L. Fu, Maja Krčmar, and James R. Morris.
variable epsilon_sub equal 4*0.085094 # kcal/mol
variable sigma equal 2.97 # Å

pair_coeff 1 2 cb ${epsilon_sub} ${sigma} ${P_par} ${P_perp} # C-H potential
pair_coeff 1 2 cb 0.340376 ${sigma} ${P_par} ${P_perp} 
pair_coeff 1 2 cb 0.340376 2.97 ${P_par} ${P_perp} 
pair_coeff 1 2 cb 0.340376 2.97 0.57 ${P_perp} 
pair_coeff 1 2 cb 0.340376 2.97 0.57 1.995 
#pair_coeff 1 2 lj/cut 0.3025 2.065
# //////////////////////////////////////    C-H potentials    //////////////////////////////////////

# 3. Add a single hydrogen molecule to the system, close to the center of the first platelet
create_atoms    2 single 0 0 -2
Created 1 atoms
  using lattice units in orthogonal box = (-30 -30 -30) to (30 30 30)
  create_atoms CPU = 0.000 seconds

group           C type 1
480 atoms in group C
group           H2 type 2
1 atoms in group H2

# 4. Equilibration
timestep        0.05
fix             mytth1 C spring/self ${k2} # Apply a spring force to the carbon atoms
fix             mytth1 C spring/self 3.5 
velocity        all create ${tem} 48 rot yes mom yes dist gaussian # Initialize velocities
velocity        all create 300 48 rot yes mom yes dist gaussian 
fix             mynpt all npt temp ${tem} ${tem} 100 x ${pre} ${pre} 1000 y ${pre} ${pre} 1000 # Apply NPT ensemble to the system
fix             mynpt all npt temp 300 ${tem} 100 x ${pre} ${pre} 1000 y ${pre} ${pre} 1000 
fix             mynpt all npt temp 300 300 100 x ${pre} ${pre} 1000 y ${pre} ${pre} 1000 
fix             mynpt all npt temp 300 300 100 x 112 ${pre} 1000 y ${pre} ${pre} 1000 
fix             mynpt all npt temp 300 300 100 x 112 112 1000 y ${pre} ${pre} 1000 
fix             mynpt all npt temp 300 300 100 x 112 112 1000 y 112 ${pre} 1000 
fix             mynpt all npt temp 300 300 100 x 112 112 1000 y 112 112 1000 

thermo          10000
dump            dump all atom 1000 simulation_data/absorption_pot.lammpstrj

run             20000

CITE-CITE-CITE-CITE-CITE-CITE-CITE-CITE-CITE-CITE-CITE-CITE-CITE

Your simulation uses code contributions which should be cited:

- Type Label Framework: https://doi.org/10.1021/acs.jpcb.3c08419

@Article{Gissinger24,
 author = {Jacob R. Gissinger, Ilia Nikiforov, Yaser Afshar, Brendon Waters, Moon-ki Choi, Daniel S. Karls, Alexander Stukowski, Wonpil Im, Hendrik Heinz, Axel Kohlmeyer, and Ellad B. Tadmor},
 title = {Type Label Framework for Bonded Force Fields in LAMMPS},
 journal = {J. Phys. Chem. B},
 year =    2024,
 volume =  128,
 number =  13,
 pages =   {3282–-3297}
}

CITE-CITE-CITE-CITE-CITE-CITE-CITE-CITE-CITE-CITE-CITE-CITE-CITE

Generated 0 of 1 mixed pair_coeff terms from geometric mixing rule
Neighbor list info ...
  update: every = 1 steps, delay = 3 steps, check = yes
  max neighbors/atom: 6000, page size: 100000
  master list distance cutoff = 31
  ghost atom cutoff = 31
  binsize = 15.5, bins = 4 4 4
  4 neighbor lists, perpetual/occasional/extra = 4 0 0
  (1) pair lj/cut, perpetual, skip trim from (4)
      attributes: half, newton on, cut 15
      pair build: skip/trim
      stencil: none
      bin: none
  (2) pair sg, perpetual, skip trim from (4)
      attributes: half, newton on, cut 16
      pair build: skip/trim
      stencil: none
      bin: none
  (3) pair cb, perpetual, skip from (4)
      attributes: half, newton on
      pair build: skip
      stencil: none
      bin: none
  (4) neighbor class addition, perpetual
      attributes: half, newton on
      pair build: half/bin/newton
      stencil: half/bin/3d
      bin: standard
Per MPI rank memory allocation (min/avg/max) = 13.29 | 13.4 | 13.93 Mbytes
   Step          Temp          E_pair         E_mol          TotEng         Press          Volume    
         0   300            308.5124       19603.922      20341.671     -432.43506      216000       
     10000   308.71881      373.71132      18568.425      19383.847     -313.89117      172136.83    
     20000   319.74694      375.11214      18539.114      19371.717     -417.40409      126541.73    
Loop time of 7.63365 on 64 procs for 20000 steps with 481 atoms

Performance: 11.318 ns/day, 2.120 hours/ns, 2619.979 timesteps/s, 1.260 Matom-step/s
99.8% CPU use with 64 MPI tasks x 1 OpenMP threads

MPI task timing breakdown:
Section |  min time  |  avg time  |  max time  |%varavg| %total
---------------------------------------------------------------
Pair    | 0.13578    | 0.43796    | 2.2017     |  71.3 |  5.74
Bond    | 0.0040624  | 0.34563    | 2.0245     | 101.1 |  4.53
Neigh   | 0.01793    | 0.021427   | 0.023657   |   1.0 |  0.28
Comm    | 2.4482     | 4.4917     | 5.4957     |  40.0 | 58.84
Output  | 0.0034595  | 0.010864   | 0.019292   |   4.9 |  0.14
Modify  | 0.68004    | 2.0332     | 4.1654     |  72.7 | 26.64
Other   |            | 0.2928     |            |       |  3.84

Nlocal:        7.51562 ave          36 max           0 min
Histogram: 41 7 0 0 0 1 2 9 3 1
Nghost:        1804.95 ave        2371 max        1288 min
Histogram: 16 0 0 0 32 0 0 0 0 16
Neighs:              0 ave           0 max           0 min
Histogram: 64 0 0 0 0 0 0 0 0 0

Total # of neighbors = 0
Ave neighs/atom = 0
Ave special neighs/atom = 15.567568
Neighbor list builds = 52
Dangerous builds = 0
unfix           mynpt
unfix           mytth1

# 5. Umbrella sampling
fix             mynvt all nvt temp ${tem} ${tem} 100
fix             mynvt all nvt temp 300 ${tem} 100
fix             mynvt all nvt temp 300 300 100
fix             mytth1 C spring/self ${k2}
fix             mytth1 C spring/self 3.5

variable        cpt loop 51
label           loop
variable        zdes equal  -15+0.60*(${cpt}-1)
variable        zdes equal  -15+0.60*(1-1)
variable        zave equal xcm(H2,z)
fix             mytth2 H2 spring tether ${k1} 2.5 2.5 ${zdes} 0
fix             mytth2 H2 spring tether 0.6 2.5 2.5 ${zdes} 0
fix             mytth2 H2 spring tether 0.6 2.5 2.5 -15 0
run             10000
Generated 0 of 1 mixed pair_coeff terms from geometric mixing rule
Per MPI rank memory allocation (min/avg/max) = 13.32 | 13.62 | 14.95 Mbytes
   Step          Temp          E_pair         E_mol          TotEng         Press     
     20000   319.74694      375.11214      18539.114      19371.717     -417.40409    
     30000   269.26998      348.47114      18622.229      19355.969     -1367.3958    
Loop time of 3.4622 on 64 procs for 10000 steps with 481 atoms

Performance: 12.478 ns/day, 1.923 hours/ns, 2888.340 timesteps/s, 1.389 Matom-step/s
99.9% CPU use with 64 MPI tasks x 1 OpenMP threads

MPI task timing breakdown:
Section |  min time  |  avg time  |  max time  |%varavg| %total
---------------------------------------------------------------
Pair    | 0.0030104  | 0.13214    | 1.0151     |  61.9 |  3.82
Bond    | 0.0010708  | 0.15524    | 0.87372    |  64.0 |  4.48
Neigh   | 0.029439   | 0.035268   | 0.039058   |   1.3 |  1.02
Comm    | 1.4838     | 2.6333     | 3.1638     |  32.1 | 76.06
Output  | 0.0015006  | 0.0042527  | 0.0073456  |   2.9 |  0.12
Modify  | 0.12044    | 0.38889    | 1.587      |  68.8 | 11.23
Other   |            | 0.1131     |            |       |  3.27

Nlocal:        7.51562 ave          33 max           0 min
Histogram: 42 3 3 0 1 0 6 2 2 5
Nghost:        1807.39 ave        2378 max        1291 min
Histogram: 16 0 0 0 32 0 0 0 0 16
Neighs:              0 ave           0 max           0 min
Histogram: 64 0 0 0 0 0 0 0 0 0

Total # of neighbors = 0
Ave neighs/atom = 0
Ave special neighs/atom = 15.567568
Neighbor list builds = 85
Dangerous builds = 0
fix             myat1 all ave/time 1000 10 10000 v_zave v_zdes file simulation_data/abpot/${cpt}.dat
fix             myat1 all ave/time 1000 10 10000 v_zave v_zdes file simulation_data/abpot/1.dat
run             50000
Generated 0 of 1 mixed pair_coeff terms from geometric mixing rule
Per MPI rank memory allocation (min/avg/max) = 13.32 | 13.62 | 14.95 Mbytes
   Step          Temp          E_pair         E_mol          TotEng         Press     
     30000   269.26998      348.47114      18622.229      19355.969     -1367.3958    
     40000   284.55834      421.96012      18540.152      19369.255      886.44759    
     50000   300.67274      396.08756      18567.219      19393.505      137.05918    
     60000   319.73326      381.47495      18542.712      19381.657     -38.238069    
     70000   302.24671      380.50326      18562.076      19375.031     -313.22113    
     80000   292.62448      393.31244      18542.576      19354.573      142.70331    
Loop time of 17.6257 on 64 procs for 50000 steps with 481 atoms

Performance: 12.255 ns/day, 1.958 hours/ns, 2836.768 timesteps/s, 1.364 Matom-step/s
100.0% CPU use with 64 MPI tasks x 1 OpenMP threads

MPI task timing breakdown:
Section |  min time  |  avg time  |  max time  |%varavg| %total
---------------------------------------------------------------
Pair    | 0.015718   | 0.6591     | 5.5089     | 140.2 |  3.74
Bond    | 0.0053601  | 0.7714     | 4.1317     | 142.9 |  4.38
Neigh   | 0.083964   | 0.099904   | 0.11018    |   2.1 |  0.57
Comm    | 7.1499     | 13.565     | 16.248     |  73.8 | 76.96
Output  | 0.0075507  | 0.018087   | 0.029128   |   5.1 |  0.10
Modify  | 0.59433    | 1.9512     | 8.2542     | 162.9 | 11.07
Other   |            | 0.5613     |            |       |  3.18

Nlocal:        7.51562 ave          36 max           0 min
Histogram: 41 7 0 0 2 2 2 2 4 4
Nghost:        1819.58 ave        2408 max        1291 min
Histogram: 16 0 0 0 32 0 0 0 0 16
Neighs:              0 ave           0 max           0 min
Histogram: 64 0 0 0 0 0 0 0 0 0

Total # of neighbors = 0
Ave neighs/atom = 0
Ave special neighs/atom = 15.567568
Neighbor list builds = 227
Dangerous builds = 0
unfix           myat1
next            cpt
jump            SELF loop
variable        zdes equal  -15+0.60*(${cpt}-1)
variable        zdes equal  -15+0.60*(2-1)
variable        zave equal xcm(H2,z)
fix             mytth2 H2 spring tether ${k1} 2.5 2.5 ${zdes} 0
fix             mytth2 H2 spring tether 0.6 2.5 2.5 ${zdes} 0
fix             mytth2 H2 spring tether 0.6 2.5 2.5 -14.4 0
run             10000
Generated 0 of 1 mixed pair_coeff terms from geometric mixing rule
Per MPI rank memory allocation (min/avg/max) = 13.32 | 13.62 | 14.95 Mbytes
   Step          Temp          E_pair         E_mol          TotEng         Press     
     80000   292.62448      393.31244      18542.576      19354.573      142.70331    
     90000   288.71776      380.31693      18553.709      19347.12      -181.36122    
Loop time of 3.36011 on 64 procs for 10000 steps with 481 atoms

Performance: 12.857 ns/day, 1.867 hours/ns, 2976.092 timesteps/s, 1.432 Matom-step/s
100.0% CPU use with 64 MPI tasks x 1 OpenMP threads

MPI task timing breakdown:
Section |  min time  |  avg time  |  max time  |%varavg| %total
---------------------------------------------------------------
Pair    | 0.00317    | 0.13       | 0.95739    |  62.6 |  3.87
Bond    | 0.0010643  | 0.15237    | 0.89652    |  64.8 |  4.53
Neigh   | 0.0093119  | 0.011243   | 0.0125     |   0.7 |  0.33
Comm    | 1.4784     | 2.5984     | 3.0737     |  32.2 | 77.33
Output  | 0.0014737  | 0.0031413  | 0.0048841  |   1.9 |  0.09
Modify  | 0.13812    | 0.35338    | 1.4955     |  66.7 | 10.52
Other   |            | 0.1116     |            |       |  3.32

Nlocal:        7.51562 ave          35 max           0 min
Histogram: 42 4 2 0 0 2 2 4 5 3
Nghost:        1818.17 ave        2405 max        1291 min
Histogram: 16 0 0 0 32 0 0 0 0 16
Neighs:              0 ave           0 max           0 min
Histogram: 64 0 0 0 0 0 0 0 0 0

Total # of neighbors = 0
Ave neighs/atom = 0
Ave special neighs/atom = 15.567568
Neighbor list builds = 27
Dangerous builds = 0
fix             myat1 all ave/time 1000 10 10000 v_zave v_zdes file simulation_data/abpot/${cpt}.dat
fix             myat1 all ave/time 1000 10 10000 v_zave v_zdes file simulation_data/abpot/2.dat
run             50000
Generated 0 of 1 mixed pair_coeff terms from geometric mixing rule
Per MPI rank memory allocation (min/avg/max) = 13.32 | 13.62 | 14.95 Mbytes
   Step          Temp          E_pair         E_mol          TotEng         Press     
     90000   288.71776      380.31693      18553.709      19347.12      -181.36122    
    100000   298.58522      380.736        18573.35       19381.298     -291.95467    
    110000   320.51406      390.75279      18530.523      19379.864     -36.451734    
    120000   298.74793      385.81242      18529.126      19342.384      18.679199    
    130000   297.02654      390.54537      18518.8        19334.328      13.29391     
    140000   296.84387      385.91276      18526.939      19337.573     -194.20032    
Loop time of 17.412 on 64 procs for 50000 steps with 481 atoms

Performance: 12.405 ns/day, 1.935 hours/ns, 2871.581 timesteps/s, 1.381 Matom-step/s
100.0% CPU use with 64 MPI tasks x 1 OpenMP threads

MPI task timing breakdown:
Section |  min time  |  avg time  |  max time  |%varavg| %total
---------------------------------------------------------------
Pair    | 0.015787   | 0.6503     | 5.3131     | 141.4 |  3.73
Bond    | 0.0053585  | 0.76285    | 4.2802     | 144.1 |  4.38
Neigh   | 0.058788   | 0.070634   | 0.078392   |   1.8 |  0.41
Comm    | 7.137      | 13.461     | 16.073     |  73.9 | 77.31
Output  | 0.0073633  | 0.015182   | 0.022898   |   4.0 |  0.09
Modify  | 0.59513    | 1.8916     | 8.2094     | 161.0 | 10.86
Other   |            | 0.5605     |            |       |  3.22

Nlocal:        7.51562 ave          34 max           0 min
Histogram: 40 8 0 0 0 1 3 5 2 5
Nghost:         1817.8 ave        2400 max        1290 min
Histogram: 16 0 0 0 32 0 0 0 0 16
Neighs:              0 ave           0 max           0 min
Histogram: 64 0 0 0 0 0 0 0 0 0

Total # of neighbors = 0
Ave neighs/atom = 0
Ave special neighs/atom = 15.567568
Neighbor list builds = 166
Dangerous builds = 0
unfix           myat1
next            cpt
jump            SELF loop
variable        zdes equal  -15+0.60*(${cpt}-1)
variable        zdes equal  -15+0.60*(3-1)
variable        zave equal xcm(H2,z)
fix             mytth2 H2 spring tether ${k1} 2.5 2.5 ${zdes} 0
fix             mytth2 H2 spring tether 0.6 2.5 2.5 ${zdes} 0
fix             mytth2 H2 spring tether 0.6 2.5 2.5 -13.8 0
run             10000
Generated 0 of 1 mixed pair_coeff terms from geometric mixing rule
Per MPI rank memory allocation (min/avg/max) = 13.32 | 13.62 | 14.95 Mbytes
   Step          Temp          E_pair         E_mol          TotEng         Press     
    140000   296.84387      385.91276      18526.939      19337.573     -194.20032    
    150000   319.11402      385.57221      18529.034      19371.191     -118.75532    
Loop time of 3.41911 on 64 procs for 10000 steps with 481 atoms

Performance: 12.635 ns/day, 1.900 hours/ns, 2924.735 timesteps/s, 1.407 Matom-step/s
100.0% CPU use with 64 MPI tasks x 1 OpenMP threads

MPI task timing breakdown:
Section |  min time  |  avg time  |  max time  |%varavg| %total
---------------------------------------------------------------
Pair    | 0.0031233  | 0.12996    | 1.0348     |  62.9 |  3.80
Bond    | 0.0010674  | 0.15132    | 0.86693    |  64.1 |  4.43
Neigh   | 0.0082148  | 0.0099856  | 0.011218   |   0.7 |  0.29
Comm    | 1.434      | 2.6405     | 3.1438     |  32.5 | 77.23
Output  | 0.0014192  | 0.0029127  | 0.0044196  |   1.7 |  0.09
Modify  | 0.1257     | 0.37258    | 1.6076     |  69.5 | 10.90
Other   |            | 0.1118     |            |       |  3.27

Nlocal:        7.51562 ave          39 max           0 min
Histogram: 43 4 1 1 0 2 6 4 2 1
Nghost:        1818.27 ave        2407 max        1291 min
Histogram: 16 0 0 0 32 0 0 0 0 16
Neighs:              0 ave           0 max           0 min
Histogram: 64 0 0 0 0 0 0 0 0 0

Total # of neighbors = 0
Ave neighs/atom = 0
Ave special neighs/atom = 15.567568
Neighbor list builds = 25
Dangerous builds = 0
fix             myat1 all ave/time 1000 10 10000 v_zave v_zdes file simulation_data/abpot/${cpt}.dat
fix             myat1 all ave/time 1000 10 10000 v_zave v_zdes file simulation_data/abpot/3.dat
run             50000
Generated 0 of 1 mixed pair_coeff terms from geometric mixing rule
Per MPI rank memory allocation (min/avg/max) = 13.32 | 13.62 | 14.95 Mbytes
   Step          Temp          E_pair         E_mol          TotEng         Press     
    150000   319.11402      385.57221      18529.034      19371.191     -118.75532    
    160000   319.77207      375.26902      18549.28       19382.075     -385.55552    
    170000   302.81635      389.87764      18567.302      19390.446     -12.472178    
    180000   298.49431      401.63059      18516.071      19344.784      349.28644    
    190000   296.96694      375.10097      18538.375      19338.373     -320.7084     
    200000   291.69152      375.99223      18564.541      19357.882     -416.01455    
Loop time of 17.5897 on 64 procs for 50000 steps with 481 atoms

Performance: 12.280 ns/day, 1.954 hours/ns, 2842.570 timesteps/s, 1.367 Matom-step/s
100.0% CPU use with 64 MPI tasks x 1 OpenMP threads

MPI task timing breakdown:
Section |  min time  |  avg time  |  max time  |%varavg| %total
---------------------------------------------------------------
Pair    | 0.015792   | 0.65662    | 5.3778     | 144.6 |  3.73
Bond    | 0.0054438  | 0.75581    | 4.1628     | 142.3 |  4.30
Neigh   | 0.024152   | 0.029231   | 0.032451   |   1.2 |  0.17
Comm    | 7.3208     | 13.639     | 16.247     |  74.6 | 77.54
Output  | 0.0073838  | 0.014621   | 0.021765   |   3.8 |  0.08
Modify  | 0.63653    | 1.9348     | 8.4971     | 164.2 | 11.00
Other   |            | 0.5597     |            |       |  3.18

Nlocal:        7.51562 ave          38 max           0 min
Histogram: 41 7 0 0 0 3 5 5 1 2
Nghost:        1812.73 ave        2394 max        1286 min
Histogram: 16 0 0 0 32 0 0 0 0 16
Neighs:              0 ave           0 max           0 min
Histogram: 64 0 0 0 0 0 0 0 0 0

Total # of neighbors = 0
Ave neighs/atom = 0
Ave special neighs/atom = 15.567568
Neighbor list builds = 68
Dangerous builds = 0
unfix           myat1
next            cpt
jump            SELF loop
variable        zdes equal  -15+0.60*(${cpt}-1)
variable        zdes equal  -15+0.60*(4-1)
variable        zave equal xcm(H2,z)
fix             mytth2 H2 spring tether ${k1} 2.5 2.5 ${zdes} 0
fix             mytth2 H2 spring tether 0.6 2.5 2.5 ${zdes} 0
fix             mytth2 H2 spring tether 0.6 2.5 2.5 -13.2 0
run             10000
Generated 0 of 1 mixed pair_coeff terms from geometric mixing rule
Per MPI rank memory allocation (min/avg/max) = 13.32 | 13.62 | 14.95 Mbytes
   Step          Temp          E_pair         E_mol          TotEng         Press     
    200000   291.69152      375.99223      18564.541      19357.882     -416.01455    
    210000   299.51103      400.21467      18533.685      19362.437      321.64164    
Loop time of 3.49432 on 64 procs for 10000 steps with 481 atoms

Performance: 12.363 ns/day, 1.941 hours/ns, 2861.791 timesteps/s, 1.377 Matom-step/s
100.0% CPU use with 64 MPI tasks x 1 OpenMP threads

MPI task timing breakdown:
Section |  min time  |  avg time  |  max time  |%varavg| %total
---------------------------------------------------------------
Pair    | 0.0030024  | 0.13171    | 1.0739     |  64.9 |  3.77
Bond    | 0.001071   | 0.15189    | 0.90613    |  64.1 |  4.35
Neigh   | 0.0031103  | 0.0037741  | 0.004213   |   0.4 |  0.11
Comm    | 1.4736     | 2.7093     | 3.2427     |  33.5 | 77.53
Output  | 0.001395   | 0.0028119  | 0.0042254  |   1.7 |  0.08
Modify  | 0.11205    | 0.38316    | 1.7002     |  73.4 | 10.97
Other   |            | 0.1117     |            |       |  3.20

Nlocal:        7.51562 ave          33 max           0 min
Histogram: 41 6 1 0 0 0 2 6 2 6
Nghost:        1817.98 ave        2407 max        1292 min
Histogram: 16 0 0 0 32 0 0 0 0 16
Neighs:              0 ave           0 max           0 min
Histogram: 64 0 0 0 0 0 0 0 0 0

Total # of neighbors = 0
Ave neighs/atom = 0
Ave special neighs/atom = 15.567568
Neighbor list builds = 9
Dangerous builds = 0
fix             myat1 all ave/time 1000 10 10000 v_zave v_zdes file simulation_data/abpot/${cpt}.dat
fix             myat1 all ave/time 1000 10 10000 v_zave v_zdes file simulation_data/abpot/4.dat
run             50000
Generated 0 of 1 mixed pair_coeff terms from geometric mixing rule
Per MPI rank memory allocation (min/avg/max) = 13.32 | 13.62 | 14.95 Mbytes
   Step          Temp          E_pair         E_mol          TotEng         Press     
    210000   299.51103      400.21467      18533.685      19362.437      321.64164    
    220000   307.71791      394.91452      18522.891      19358.085      118.19302    
    230000   299.91036      376.8907       18534.162      19340.161     -369.91629    
    240000   287.99891      395.03041      18495.366      19302.462      130.61253    
    250000   285.09766      392.55563      18510.381      19310.851     -56.54516     
    260000   299.75089      381.62033      18515.5        19326         -190.54821    
Loop time of 18.2418 on 64 procs for 50000 steps with 481 atoms

Performance: 11.841 ns/day, 2.027 hours/ns, 2740.961 timesteps/s, 1.318 Matom-step/s
100.0% CPU use with 64 MPI tasks x 1 OpenMP threads

MPI task timing breakdown:
Section |  min time  |  avg time  |  max time  |%varavg| %total
---------------------------------------------------------------
Pair    | 0.015318   | 0.66628    | 5.3069     | 146.4 |  3.65
Bond    | 0.0053381  | 0.76837    | 4.473      | 144.9 |  4.21
Neigh   | 0.03563    | 0.04232    | 0.046549   |   1.3 |  0.23
Comm    | 8.1155     | 14.177     | 16.926     |  77.8 | 77.72
Output  | 0.0074273  | 0.014581   | 0.021573   |   3.7 |  0.08
Modify  | 0.59602    | 2.0104     | 8.9913     | 176.0 | 11.02
Other   |            | 0.5624     |            |       |  3.08

Nlocal:        7.51562 ave          39 max           0 min
Histogram: 41 7 0 0 1 3 3 6 2 1
Nghost:        1822.95 ave        2416 max        1285 min
Histogram: 16 0 0 0 32 0 0 0 0 16
Neighs:              0 ave           0 max           0 min
Histogram: 64 0 0 0 0 0 0 0 0 0

Total # of neighbors = 0
Ave neighs/atom = 0
Ave special neighs/atom = 15.567568
Neighbor list builds = 92
Dangerous builds = 0
unfix           myat1
next            cpt
jump            SELF loop
variable        zdes equal  -15+0.60*(${cpt}-1)
variable        zdes equal  -15+0.60*(5-1)
variable        zave equal xcm(H2,z)
fix             mytth2 H2 spring tether ${k1} 2.5 2.5 ${zdes} 0
fix             mytth2 H2 spring tether 0.6 2.5 2.5 ${zdes} 0
fix             mytth2 H2 spring tether 0.6 2.5 2.5 -12.6 0
run             10000
Generated 0 of 1 mixed pair_coeff terms from geometric mixing rule
Per MPI rank memory allocation (min/avg/max) = 13.32 | 13.62 | 14.95 Mbytes
   Step          Temp          E_pair         E_mol          TotEng         Press     
    260000   299.75089      381.62033      18515.5        19326         -190.54821    
    270000   289.35321      392.78262      18546.412      19353.198     -51.815668    
Loop time of 3.64577 on 64 procs for 10000 steps with 481 atoms

Performance: 11.849 ns/day, 2.025 hours/ns, 2742.905 timesteps/s, 1.319 Matom-step/s
100.0% CPU use with 64 MPI tasks x 1 OpenMP threads

MPI task timing breakdown:
Section |  min time  |  avg time  |  max time  |%varavg| %total
---------------------------------------------------------------
Pair    | 0.0030433  | 0.13798    | 1.1206     |  69.4 |  3.78
Bond    | 0.001067   | 0.15694    | 0.88942    |  66.2 |  4.30
Neigh   | 0.0086707  | 0.010139   | 0.011169   |   0.6 |  0.28
Comm    | 1.4986     | 2.8398     | 3.3827     |  36.2 | 77.89
Output  | 0.00151    | 0.0029107  | 0.0043133  |   1.6 |  0.08
Modify  | 0.12008    | 0.38566    | 1.8217     |  81.3 | 10.58
Other   |            | 0.1123     |            |       |  3.08

Nlocal:        7.51562 ave          40 max           0 min
Histogram: 42 5 1 0 3 0 6 4 1 2
Nghost:        1823.61 ave        2419 max        1284 min
Histogram: 16 0 0 0 32 0 0 0 0 16
Neighs:              0 ave           0 max           0 min
Histogram: 64 0 0 0 0 0 0 0 0 0

Total # of neighbors = 0
Ave neighs/atom = 0
Ave special neighs/atom = 15.567568
Neighbor list builds = 21
Dangerous builds = 0
fix             myat1 all ave/time 1000 10 10000 v_zave v_zdes file simulation_data/abpot/${cpt}.dat
fix             myat1 all ave/time 1000 10 10000 v_zave v_zdes file simulation_data/abpot/5.dat
run             50000
Generated 0 of 1 mixed pair_coeff terms from geometric mixing rule
Per MPI rank memory allocation (min/avg/max) = 13.32 | 13.62 | 14.95 Mbytes
   Step          Temp          E_pair         E_mol          TotEng         Press     
    270000   289.35321      392.78262      18546.412      19353.198     -51.815668    
    280000   315.15216      391.96188      18511.979      19354.857      75.577205    
    290000   310.14967      388.45297      18512.633      19344.844     -201.57539    
    300000   306.08959      389.00257      18546.081      19373.033     -68.103444    
    310000   289.4583       394.72158      18553.094      19361.969     -8.5064127    
    320000   298.12166      382.76014      18544.441      19353.75      -230.59448    
Loop time of 18.1594 on 64 procs for 50000 steps with 481 atoms

Performance: 11.895 ns/day, 2.018 hours/ns, 2753.393 timesteps/s, 1.324 Matom-step/s
100.0% CPU use with 64 MPI tasks x 1 OpenMP threads

MPI task timing breakdown:
Section |  min time  |  avg time  |  max time  |%varavg| %total
---------------------------------------------------------------
Pair    | 0.015955   | 0.68879    | 5.5725     | 152.9 |  3.79
Bond    | 0.0054103  | 0.7827     | 4.2413     | 146.3 |  4.31
Neigh   | 0.051677   | 0.060661   | 0.066679   |   1.5 |  0.33
Comm    | 7.4553     | 14.09      | 16.78      |  79.4 | 77.59
Output  | 0.0074332  | 0.014866   | 0.022016   |   3.8 |  0.08
Modify  | 0.64233    | 1.9567     | 8.9037     | 176.6 | 10.78
Other   |            | 0.5653     |            |       |  3.11

Nlocal:        7.51562 ave          36 max           0 min
Histogram: 41 6 1 0 0 2 5 2 4 3
Nghost:        1820.89 ave        2413 max        1290 min
Histogram: 16 0 0 0 32 0 0 0 0 16
Neighs:              0 ave           0 max           0 min
Histogram: 64 0 0 0 0 0 0 0 0 0

Total # of neighbors = 0
Ave neighs/atom = 0
Ave special neighs/atom = 15.567568
Neighbor list builds = 127
Dangerous builds = 0
unfix           myat1
next            cpt
jump            SELF loop
variable        zdes equal  -15+0.60*(${cpt}-1)
variable        zdes equal  -15+0.60*(6-1)
variable        zave equal xcm(H2,z)
fix             mytth2 H2 spring tether ${k1} 2.5 2.5 ${zdes} 0
fix             mytth2 H2 spring tether 0.6 2.5 2.5 ${zdes} 0
fix             mytth2 H2 spring tether 0.6 2.5 2.5 -12 0
run             10000
Generated 0 of 1 mixed pair_coeff terms from geometric mixing rule
Per MPI rank memory allocation (min/avg/max) = 13.32 | 13.62 | 14.95 Mbytes
   Step          Temp          E_pair         E_mol          TotEng         Press     
    320000   298.12166      382.76014      18544.441      19353.75      -230.59448    
    330000   281.9615       380.55873      18513.212      19297.198     -208.20261    
Loop time of 3.61904 on 64 procs for 10000 steps with 481 atoms

Performance: 11.937 ns/day, 2.011 hours/ns, 2763.164 timesteps/s, 1.329 Matom-step/s
100.0% CPU use with 64 MPI tasks x 1 OpenMP threads

MPI task timing breakdown:
Section |  min time  |  avg time  |  max time  |%varavg| %total
---------------------------------------------------------------
Pair    | 0.0030492  | 0.13834    | 1.1003     |  68.9 |  3.82
Bond    | 0.001062   | 0.15659    | 0.91876    |  65.8 |  4.33
Neigh   | 0.0090355  | 0.010551   | 0.011495   |   0.6 |  0.29
Comm    | 1.4804     | 2.8176     | 3.3408     |  35.7 | 77.86
Output  | 0.0015106  | 0.0029133  | 0.004352   |   1.6 |  0.08
Modify  | 0.13355    | 0.38136    | 1.7873     |  79.4 | 10.54
Other   |            | 0.1117     |            |       |  3.09

Nlocal:        7.51562 ave          36 max           0 min
Histogram: 41 6 1 0 0 4 2 3 3 4
Nghost:        1818.55 ave        2412 max        1288 min
Histogram: 16 0 0 0 32 0 0 0 0 16
Neighs:              0 ave           0 max           0 min
Histogram: 64 0 0 0 0 0 0 0 0 0

Total # of neighbors = 0
Ave neighs/atom = 0
Ave special neighs/atom = 15.567568
Neighbor list builds = 22
Dangerous builds = 0
fix             myat1 all ave/time 1000 10 10000 v_zave v_zdes file simulation_data/abpot/${cpt}.dat
fix             myat1 all ave/time 1000 10 10000 v_zave v_zdes file simulation_data/abpot/6.dat
run             50000
Generated 0 of 1 mixed pair_coeff terms from geometric mixing rule
Per MPI rank memory allocation (min/avg/max) = 13.32 | 13.62 | 14.95 Mbytes
   Step          Temp          E_pair         E_mol          TotEng         Press     
    330000   281.9615       380.55873      18513.212      19297.198     -208.20261    
    340000   310.34505      392.22437      18517.513      19353.775      169.50884    
    350000   301.89814      389.75903      18537.978      19359.69      -161.86536    
    360000   317.73629      380.02565      18493.905      19328.545     -309.20184    
    370000   288.55647      380.83464      18505.504      19299.202     -232.09338    
    380000   284.20453      392.16679      18511.126      19309.929      31.835537    
Loop time of 18.0163 on 64 procs for 50000 steps with 481 atoms

Performance: 11.989 ns/day, 2.002 hours/ns, 2775.260 timesteps/s, 1.335 Matom-step/s
100.0% CPU use with 64 MPI tasks x 1 OpenMP threads

MPI task timing breakdown:
Section |  min time  |  avg time  |  max time  |%varavg| %total
---------------------------------------------------------------
Pair    | 0.015501   | 0.69003    | 5.4606     | 153.4 |  3.83
Bond    | 0.0053516  | 0.78307    | 4.4766     | 146.6 |  4.35
Neigh   | 0.035422   | 0.041642   | 0.045852   |   1.3 |  0.23
Comm    | 7.2002     | 13.999     | 16.618     |  78.8 | 77.70
Output  | 0.0074607  | 0.014566   | 0.021504   |   3.7 |  0.08
Modify  | 0.6821     | 1.9251     | 8.7027     | 172.8 | 10.69
Other   |            | 0.5626     |            |       |  3.12

Nlocal:        7.51562 ave          32 max           0 min
Histogram: 43 2 3 0 0 0 1 3 8 4
Nghost:         1813.2 ave        2394 max        1292 min
Histogram: 16 0 0 0 32 0 0 0 0 16
Neighs:              0 ave           0 max           0 min
Histogram: 64 0 0 0 0 0 0 0 0 0

Total # of neighbors = 0
Ave neighs/atom = 0
Ave special neighs/atom = 15.567568
Neighbor list builds = 87
Dangerous builds = 0
unfix           myat1
next            cpt
jump            SELF loop
variable        zdes equal  -15+0.60*(${cpt}-1)
variable        zdes equal  -15+0.60*(7-1)
variable        zave equal xcm(H2,z)
fix             mytth2 H2 spring tether ${k1} 2.5 2.5 ${zdes} 0
fix             mytth2 H2 spring tether 0.6 2.5 2.5 ${zdes} 0
fix             mytth2 H2 spring tether 0.6 2.5 2.5 -11.4 0
run             10000
Generated 0 of 1 mixed pair_coeff terms from geometric mixing rule
Per MPI rank memory allocation (min/avg/max) = 13.32 | 13.62 | 14.95 Mbytes
   Step          Temp          E_pair         E_mol          TotEng         Press     
    380000   284.20453      392.16679      18511.126      19309.929      31.835537    
    390000   303.77799      388.42955      18498.456      19321.528     -50.170309    
Loop time of 3.5918 on 64 procs for 10000 steps with 481 atoms

Performance: 12.027 ns/day, 1.995 hours/ns, 2784.122 timesteps/s, 1.339 Matom-step/s
100.0% CPU use with 64 MPI tasks x 1 OpenMP threads

MPI task timing breakdown:
Section |  min time  |  avg time  |  max time  |%varavg| %total
---------------------------------------------------------------
Pair    | 0.0030804  | 0.13764    | 1.0769     |  68.5 |  3.83
Bond    | 0.0010671  | 0.15659    | 0.9407     |  66.0 |  4.36
Neigh   | 0.007148   | 0.0084151  | 0.0092826  |   0.6 |  0.23
Comm    | 1.5052     | 2.7961     | 3.3234     |  35.5 | 77.85
Output  | 0.0014967  | 0.0029147  | 0.0043347  |   1.6 |  0.08
Modify  | 0.12529    | 0.37839    | 1.7713     |  78.2 | 10.53
Other   |            | 0.1118     |            |       |  3.11

Nlocal:        7.51562 ave          32 max           0 min
Histogram: 43 2 3 0 0 0 0 4 6 6
Nghost:         1819.3 ave        2407 max        1292 min
Histogram: 16 0 0 0 32 0 0 0 0 16
Neighs:              0 ave           0 max           0 min
Histogram: 64 0 0 0 0 0 0 0 0 0

Total # of neighbors = 0
Ave neighs/atom = 0
Ave special neighs/atom = 15.567568
Neighbor list builds = 18
Dangerous builds = 0
fix             myat1 all ave/time 1000 10 10000 v_zave v_zdes file simulation_data/abpot/${cpt}.dat
fix             myat1 all ave/time 1000 10 10000 v_zave v_zdes file simulation_data/abpot/7.dat
run             50000
Generated 0 of 1 mixed pair_coeff terms from geometric mixing rule
Per MPI rank memory allocation (min/avg/max) = 13.32 | 13.62 | 14.95 Mbytes
   Step          Temp          E_pair         E_mol          TotEng         Press     
    390000   303.77799      388.42955      18498.456      19321.528     -50.170309    
    400000   305.91636      384.95821      18547.989      19370.648     -150.7418     
    410000   326.24248      390.76481      18523.948      19381.497      24.640768    
    420000   281.53385      386.29264      18535.101      19324.209     -286.5139     
    430000   293.41406      391.36147      18544.819      19355.994     -180.81877    
    440000   303.30875      388.04498      18540.358      19362.374     -145.72343    
Loop time of 18.2459 on 64 procs for 50000 steps with 481 atoms

Performance: 11.838 ns/day, 2.027 hours/ns, 2740.336 timesteps/s, 1.318 Matom-step/s
100.0% CPU use with 64 MPI tasks x 1 OpenMP threads

MPI task timing breakdown:
Section |  min time  |  avg time  |  max time  |%varavg| %total
---------------------------------------------------------------
Pair    | 0.015923   | 0.68942    | 5.4503     | 153.2 |  3.78
Bond    | 0.0054249  | 0.78321    | 4.5481     | 147.0 |  4.29
Neigh   | 0.03297    | 0.038594   | 0.042303   |   1.2 |  0.21
Comm    | 7.4085     | 14.197     | 16.881     |  80.0 | 77.81
Output  | 0.0074978  | 0.014562   | 0.021448   |   3.7 |  0.08
Modify  | 0.65967    | 1.9608     | 9.1422     | 179.1 | 10.75
Other   |            | 0.5619     |            |       |  3.08

Nlocal:        7.51562 ave          38 max           0 min
Histogram: 42 6 0 0 1 1 4 6 3 1
Nghost:        1819.77 ave        2407 max        1287 min
Histogram: 16 0 0 0 32 0 0 0 0 16
Neighs:              0 ave           0 max           0 min
Histogram: 64 0 0 0 0 0 0 0 0 0

Total # of neighbors = 0
Ave neighs/atom = 0
Ave special neighs/atom = 15.567568
Neighbor list builds = 79
Dangerous builds = 0
unfix           myat1
next            cpt
jump            SELF loop
variable        zdes equal  -15+0.60*(${cpt}-1)
variable        zdes equal  -15+0.60*(8-1)
variable        zave equal xcm(H2,z)
fix             mytth2 H2 spring tether ${k1} 2.5 2.5 ${zdes} 0
fix             mytth2 H2 spring tether 0.6 2.5 2.5 ${zdes} 0
fix             mytth2 H2 spring tether 0.6 2.5 2.5 -10.8 0
run             10000
Generated 0 of 1 mixed pair_coeff terms from geometric mixing rule
Per MPI rank memory allocation (min/avg/max) = 13.32 | 13.62 | 14.95 Mbytes
   Step          Temp          E_pair         E_mol          TotEng         Press     
    440000   303.30875      388.04498      18540.358      19362.374     -145.72343    
    450000   309.59945      389.63216      18529.397      19362.001      24.742575    
Loop time of 3.56731 on 64 procs for 10000 steps with 481 atoms

Performance: 12.110 ns/day, 1.982 hours/ns, 2803.232 timesteps/s, 1.348 Matom-step/s
100.0% CPU use with 64 MPI tasks x 1 OpenMP threads

MPI task timing breakdown:
Section |  min time  |  avg time  |  max time  |%varavg| %total
---------------------------------------------------------------
Pair    | 0.0031121  | 0.13774    | 1.1097     |  68.4 |  3.86
Bond    | 0.0010699  | 0.1563     | 0.95501    |  66.1 |  4.38
Neigh   | 0.0056444  | 0.0066658  | 0.0073606  |   0.5 |  0.19
Comm    | 1.37       | 2.7786     | 3.2936     |  35.2 | 77.89
Output  | 0.0015036  | 0.0029345  | 0.0043906  |   1.7 |  0.08
Modify  | 0.12925    | 0.37275    | 1.7406     |  77.4 | 10.45
Other   |            | 0.1123     |            |       |  3.15

Nlocal:        7.51562 ave          38 max           0 min
Histogram: 42 4 2 0 0 3 5 4 2 2
Nghost:        1820.42 ave        2410 max        1286 min
Histogram: 16 0 0 0 32 0 0 0 0 16
Neighs:              0 ave           0 max           0 min
Histogram: 64 0 0 0 0 0 0 0 0 0

Total # of neighbors = 0
Ave neighs/atom = 0
Ave special neighs/atom = 15.567568
Neighbor list builds = 14
Dangerous builds = 0
fix             myat1 all ave/time 1000 10 10000 v_zave v_zdes file simulation_data/abpot/${cpt}.dat
fix             myat1 all ave/time 1000 10 10000 v_zave v_zdes file simulation_data/abpot/8.dat
run             50000
Generated 0 of 1 mixed pair_coeff terms from geometric mixing rule
Per MPI rank memory allocation (min/avg/max) = 13.32 | 13.62 | 14.95 Mbytes
   Step          Temp          E_pair         E_mol          TotEng         Press     
    450000   309.59945      389.63216      18529.397      19362.001      24.742575    
    460000   294.57499      385.43909      18530.679      19337.593     -176.91858    
    470000   302.20505      379.21371      18524.848      19336.454     -328.81709    
    480000   297.06144      390.95905      18547.204      19363.195      30.981689    
    490000   289.83116      379.14981      18546.234      19340.071     -356.74011    
    500000   300.52106      393.73957      18495.527      19319.249      179.11948    
Loop time of 17.9194 on 64 procs for 50000 steps with 481 atoms

Performance: 12.054 ns/day, 1.991 hours/ns, 2790.265 timesteps/s, 1.342 Matom-step/s
100.0% CPU use with 64 MPI tasks x 1 OpenMP threads

MPI task timing breakdown:
Section |  min time  |  avg time  |  max time  |%varavg| %total
---------------------------------------------------------------
Pair    | 0.015643   | 0.68875    | 5.522      | 152.6 |  3.84
Bond    | 0.005366   | 0.78179    | 4.4994     | 146.6 |  4.36
Neigh   | 0.027494   | 0.032337   | 0.035507   |   1.1 |  0.18
Comm    | 6.9704     | 13.931     | 16.516     |  78.8 | 77.74
Output  | 0.0074854  | 0.014511   | 0.021414   |   3.7 |  0.08
Modify  | 0.68129    | 1.9061     | 8.8032     | 173.4 | 10.64
Other   |            | 0.5648     |            |       |  3.15

Nlocal:        7.51562 ave          43 max           0 min
Histogram: 44 4 1 0 3 3 3 3 2 1
Nghost:        1822.39 ave        2412 max        1288 min
Histogram: 16 0 0 0 32 0 0 0 0 16
Neighs:              0 ave           0 max           0 min
Histogram: 64 0 0 0 0 0 0 0 0 0

Total # of neighbors = 0
Ave neighs/atom = 0
Ave special neighs/atom = 15.567568
Neighbor list builds = 67
Dangerous builds = 0
unfix           myat1
next            cpt
jump            SELF loop
variable        zdes equal  -15+0.60*(${cpt}-1)
variable        zdes equal  -15+0.60*(9-1)
variable        zave equal xcm(H2,z)
fix             mytth2 H2 spring tether ${k1} 2.5 2.5 ${zdes} 0
fix             mytth2 H2 spring tether 0.6 2.5 2.5 ${zdes} 0
fix             mytth2 H2 spring tether 0.6 2.5 2.5 -10.2 0
run             10000
Generated 0 of 1 mixed pair_coeff terms from geometric mixing rule
Per MPI rank memory allocation (min/avg/max) = 13.32 | 13.62 | 14.95 Mbytes
   Step          Temp          E_pair         E_mol          TotEng         Press     
    500000   300.52106      393.73957      18495.527      19319.249      179.11948    
    510000   329.13481      376.85429      18542.058      19389.835     -310.66283    
Loop time of 3.80814 on 64 procs for 10000 steps with 481 atoms

Performance: 11.344 ns/day, 2.116 hours/ns, 2625.954 timesteps/s, 1.263 Matom-step/s
100.0% CPU use with 64 MPI tasks x 1 OpenMP threads

MPI task timing breakdown:
Section |  min time  |  avg time  |  max time  |%varavg| %total
---------------------------------------------------------------
Pair    | 0.0031409  | 0.13825    | 1.1441     |  69.4 |  3.63
Bond    | 0.0010766  | 0.15664    | 0.91116    |  65.9 |  4.11
Neigh   | 0.0082542  | 0.0096298  | 0.010486   |   0.6 |  0.25
Comm    | 1.5408     | 2.9697     | 3.5337     |  36.7 | 77.98
Output  | 0.0014952  | 0.0028829  | 0.0042774  |   1.6 |  0.08
Modify  | 0.12954    | 0.41884    | 1.9187     |  84.4 | 11.00
Other   |            | 0.1122     |            |       |  2.95

Nlocal:        7.51562 ave          41 max           0 min
Histogram: 44 4 0 1 3 3 1 2 4 2
Nghost:        1819.67 ave        2410 max        1283 min
Histogram: 16 0 0 0 32 0 0 0 0 16
Neighs:              0 ave           0 max           0 min
Histogram: 64 0 0 0 0 0 0 0 0 0

Total # of neighbors = 0
Ave neighs/atom = 0
Ave special neighs/atom = 15.567568
Neighbor list builds = 19
Dangerous builds = 0
fix             myat1 all ave/time 1000 10 10000 v_zave v_zdes file simulation_data/abpot/${cpt}.dat
fix             myat1 all ave/time 1000 10 10000 v_zave v_zdes file simulation_data/abpot/9.dat
run             50000
Generated 0 of 1 mixed pair_coeff terms from geometric mixing rule
Per MPI rank memory allocation (min/avg/max) = 13.32 | 13.62 | 14.95 Mbytes
   Step          Temp          E_pair         E_mol          TotEng         Press     
    510000   329.13481      376.85429      18542.058      19389.835     -310.66283    
    520000   276.88022      381.54338      18567.621      19345.322     -182.05581    
    530000   294.01064      396.14582      18520.206      19337.019      119.42537    
    540000   282.67657      383.78151      18536.62       19324.852     -206.59374    
    550000   291.01427      387.07626      18507.191      19310.647     -33.956112    
    560000   317.38072      392.72582      18495.126      19341.956      68.127228    
Loop time of 18.1421 on 64 procs for 50000 steps with 481 atoms

Performance: 11.906 ns/day, 2.016 hours/ns, 2756.016 timesteps/s, 1.326 Matom-step/s
100.0% CPU use with 64 MPI tasks x 1 OpenMP threads

MPI task timing breakdown:
Section |  min time  |  avg time  |  max time  |%varavg| %total
---------------------------------------------------------------
Pair    | 0.015599   | 0.68762    | 5.3605     | 151.6 |  3.79
Bond    | 0.0053978  | 0.78204    | 4.4789     | 146.7 |  4.31
Neigh   | 0.04295    | 0.050336   | 0.055349   |   1.4 |  0.28
Comm    | 7.428      | 14.095     | 16.742     |  79.0 | 77.69
Output  | 0.0075191  | 0.01471    | 0.021677   |   3.7 |  0.08
Modify  | 0.67123    | 1.9523     | 8.9801     | 176.2 | 10.76
Other   |            | 0.5603     |            |       |  3.09

Nlocal:        7.51562 ave          34 max           0 min
Histogram: 40 8 0 0 0 0 2 6 7 1
Nghost:        1825.39 ave        2423 max        1290 min
Histogram: 16 0 0 0 32 0 0 0 0 16
Neighs:              0 ave           0 max           0 min
Histogram: 64 0 0 0 0 0 0 0 0 0

Total # of neighbors = 0
Ave neighs/atom = 0
Ave special neighs/atom = 15.567568
Neighbor list builds = 104
Dangerous builds = 0
unfix           myat1
next            cpt
jump            SELF loop
variable        zdes equal  -15+0.60*(${cpt}-1)
variable        zdes equal  -15+0.60*(10-1)
variable        zave equal xcm(H2,z)
fix             mytth2 H2 spring tether ${k1} 2.5 2.5 ${zdes} 0
fix             mytth2 H2 spring tether 0.6 2.5 2.5 ${zdes} 0
fix             mytth2 H2 spring tether 0.6 2.5 2.5 -9.6 0
run             10000
Generated 0 of 1 mixed pair_coeff terms from geometric mixing rule
Per MPI rank memory allocation (min/avg/max) = 13.32 | 13.62 | 14.95 Mbytes
   Step          Temp          E_pair         E_mol          TotEng         Press     
    560000   317.38072      392.72582      18495.126      19341.956      68.127228    
    570000   300.36879      377.37515      18551.029      19358.169     -374.74886    
Loop time of 3.53411 on 64 procs for 10000 steps with 481 atoms

Performance: 12.224 ns/day, 1.963 hours/ns, 2829.567 timesteps/s, 1.361 Matom-step/s
100.0% CPU use with 64 MPI tasks x 1 OpenMP threads

MPI task timing breakdown:
Section |  min time  |  avg time  |  max time  |%varavg| %total
---------------------------------------------------------------
Pair    | 0.0031467  | 0.13716    | 1.0125     |  67.7 |  3.88
Bond    | 0.0010775  | 0.15645    | 0.94859    |  66.0 |  4.43
Neigh   | 0.0073117  | 0.0086756  | 0.0096084  |   0.6 |  0.25
Comm    | 1.4395     | 2.7408     | 3.2463     |  34.8 | 77.55
Output  | 0.0014919  | 0.0028757  | 0.0042643  |   1.6 |  0.08
Modify  | 0.14106    | 0.37635    | 1.7089     |  74.2 | 10.65
Other   |            | 0.1118     |            |       |  3.16

Nlocal:        7.51562 ave          34 max           0 min
Histogram: 41 6 1 0 0 0 1 6 7 2
Nghost:        1820.05 ave        2406 max        1290 min
Histogram: 16 0 0 0 32 0 0 0 0 16
Neighs:              0 ave           0 max           0 min
Histogram: 64 0 0 0 0 0 0 0 0 0

Total # of neighbors = 0
Ave neighs/atom = 0
Ave special neighs/atom = 15.567568
Neighbor list builds = 19
Dangerous builds = 0
fix             myat1 all ave/time 1000 10 10000 v_zave v_zdes file simulation_data/abpot/${cpt}.dat
fix             myat1 all ave/time 1000 10 10000 v_zave v_zdes file simulation_data/abpot/10.dat
run             50000
Generated 0 of 1 mixed pair_coeff terms from geometric mixing rule
Per MPI rank memory allocation (min/avg/max) = 13.32 | 13.62 | 14.95 Mbytes
   Step          Temp          E_pair         E_mol          TotEng         Press     
    570000   300.36879      377.37515      18551.029      19358.169     -374.74886    
    580000   300.22252      386.26814      18522.817      19338.64      -20.153901    
    590000   295.60579      389.86321      18567.01       19379.823     -6.4196817    
    600000   289.04173      389.79164      18565.46       19368.809     -107.29614    
    610000   302.07303      387.21307      18565.908      19385.324     -165.50682    
    620000   298.1319       390.90964      18522.29       19339.763     -23.820131    
Loop time of 17.8544 on 64 procs for 50000 steps with 481 atoms

Performance: 12.098 ns/day, 1.984 hours/ns, 2800.424 timesteps/s, 1.347 Matom-step/s
100.0% CPU use with 64 MPI tasks x 1 OpenMP threads

MPI task timing breakdown:
Section |  min time  |  avg time  |  max time  |%varavg| %total
---------------------------------------------------------------
Pair    | 0.016031   | 0.68225    | 5.1428     | 152.0 |  3.82
Bond    | 0.0054248  | 0.77769    | 4.5401     | 146.6 |  4.36
Neigh   | 0.035585   | 0.042072   | 0.046693   |   1.4 |  0.24
Comm    | 7.5192     | 13.87      | 16.41      |  77.9 | 77.68
Output  | 0.0076919  | 0.014791   | 0.021706   |   3.7 |  0.08
Modify  | 0.68915    | 1.8992     | 8.664      | 170.0 | 10.64
Other   |            | 0.5685     |            |       |  3.18

Nlocal:        7.51562 ave          35 max           0 min
Histogram: 41 6 1 0 0 1 3 4 5 3
Nghost:        1820.42 ave        2416 max        1289 min
Histogram: 16 0 0 0 32 0 0 0 0 16
Neighs:              0 ave           0 max           0 min
Histogram: 64 0 0 0 0 0 0 0 0 0

Total # of neighbors = 0
Ave neighs/atom = 0
Ave special neighs/atom = 15.567568
Neighbor list builds = 91
Dangerous builds = 0
unfix           myat1
next            cpt
jump            SELF loop
variable        zdes equal  -15+0.60*(${cpt}-1)
variable        zdes equal  -15+0.60*(11-1)
variable        zave equal xcm(H2,z)
fix             mytth2 H2 spring tether ${k1} 2.5 2.5 ${zdes} 0
fix             mytth2 H2 spring tether 0.6 2.5 2.5 ${zdes} 0
fix             mytth2 H2 spring tether 0.6 2.5 2.5 -9 0
run             10000
Generated 0 of 1 mixed pair_coeff terms from geometric mixing rule
Per MPI rank memory allocation (min/avg/max) = 13.32 | 13.62 | 14.95 Mbytes
   Step          Temp          E_pair         E_mol          TotEng         Press     
    620000   298.1319       390.90964      18522.29       19339.763     -23.820131    
    630000   303.43029      391.04827      18518.595      19343.788      125.24013    
Loop time of 3.54741 on 64 procs for 10000 steps with 481 atoms

Performance: 12.178 ns/day, 1.971 hours/ns, 2818.956 timesteps/s, 1.356 Matom-step/s
100.0% CPU use with 64 MPI tasks x 1 OpenMP threads

MPI task timing breakdown:
Section |  min time  |  avg time  |  max time  |%varavg| %total
---------------------------------------------------------------
Pair    | 0.0031752  | 0.13567    | 1.1001     |  67.4 |  3.82
Bond    | 0.0010894  | 0.15526    | 0.89699    |  65.6 |  4.38
Neigh   | 0.0064822  | 0.0075956  | 0.0084099  |   0.6 |  0.21
Comm    | 1.3553     | 2.7621     | 3.267      |  34.4 | 77.86
Output  | 0.0015372  | 0.002962   | 0.0043901  |   1.6 |  0.08
Modify  | 0.13206    | 0.37039    | 1.7153     |  74.9 | 10.44
Other   |            | 0.1135     |            |       |  3.20

Nlocal:        7.51562 ave          33 max           0 min
Histogram: 41 6 1 0 0 0 2 5 3 6
Nghost:        1823.33 ave        2416 max        1291 min
Histogram: 16 0 0 0 32 0 0 0 0 16
Neighs:              0 ave           0 max           0 min
Histogram: 64 0 0 0 0 0 0 0 0 0

Total # of neighbors = 0
Ave neighs/atom = 0
Ave special neighs/atom = 15.567568
Neighbor list builds = 16
Dangerous builds = 0
fix             myat1 all ave/time 1000 10 10000 v_zave v_zdes file simulation_data/abpot/${cpt}.dat
fix             myat1 all ave/time 1000 10 10000 v_zave v_zdes file simulation_data/abpot/11.dat
run             50000
Generated 0 of 1 mixed pair_coeff terms from geometric mixing rule
Per MPI rank memory allocation (min/avg/max) = 13.32 | 13.62 | 14.95 Mbytes
   Step          Temp          E_pair         E_mol          TotEng         Press     
    630000   303.43029      391.04827      18518.595      19343.788      125.24013    
    640000   299.88579      376.75466      18543.877      19349.705     -379.11092    
    650000   321.15926      389.82396      18514.928      19364.263      102.63826    
    660000   318.43189      386.59189      18538.591      19380.792     -86.504543    
    670000   295.3998       386.88996      18580.363      19389.908     -213.99472    
    680000   294.24941      387.63624      18539.835      19348.48       6.7357785    
Loop time of 18.0265 on 64 procs for 50000 steps with 481 atoms

Performance: 11.982 ns/day, 2.003 hours/ns, 2773.696 timesteps/s, 1.334 Matom-step/s
100.0% CPU use with 64 MPI tasks x 1 OpenMP threads

MPI task timing breakdown:
Section |  min time  |  avg time  |  max time  |%varavg| %total
---------------------------------------------------------------
Pair    | 0.015572   | 0.68164    | 5.5062     | 153.1 |  3.78
Bond    | 0.0054027  | 0.77789    | 4.8769     | 148.2 |  4.32
Neigh   | 0.036627   | 0.04304    | 0.047587   |   1.3 |  0.24
Comm    | 7.0804     | 14.02      | 16.592     |  78.9 | 77.78
Output  | 0.0078662  | 0.014884   | 0.021788   |   3.6 |  0.08
Modify  | 0.67963    | 1.9223     | 8.9222     | 172.5 | 10.66
Other   |            | 0.5663     |            |       |  3.14

Nlocal:        7.51562 ave          40 max           0 min
Histogram: 42 6 0 0 1 3 4 5 2 1
Nghost:        1819.86 ave        2404 max        1284 min
Histogram: 16 0 0 0 32 0 0 0 0 16
Neighs:              0 ave           0 max           0 min
Histogram: 64 0 0 0 0 0 0 0 0 0

Total # of neighbors = 0
Ave neighs/atom = 0
Ave special neighs/atom = 15.567568
Neighbor list builds = 90
Dangerous builds = 0
unfix           myat1
next            cpt
jump            SELF loop
variable        zdes equal  -15+0.60*(${cpt}-1)
variable        zdes equal  -15+0.60*(12-1)
variable        zave equal xcm(H2,z)
fix             mytth2 H2 spring tether ${k1} 2.5 2.5 ${zdes} 0
fix             mytth2 H2 spring tether 0.6 2.5 2.5 ${zdes} 0
fix             mytth2 H2 spring tether 0.6 2.5 2.5 -8.4 0
run             10000
Generated 0 of 1 mixed pair_coeff terms from geometric mixing rule
Per MPI rank memory allocation (min/avg/max) = 13.32 | 13.62 | 14.95 Mbytes
   Step          Temp          E_pair         E_mol          TotEng         Press     
    680000   294.24941      387.63624      18539.835      19348.48       6.7357785    
    690000   291.2418       388.32203      18524.719      19329.747     -78.830221    
Loop time of 3.61575 on 64 procs for 10000 steps with 481 atoms

Performance: 11.948 ns/day, 2.009 hours/ns, 2765.675 timesteps/s, 1.330 Matom-step/s
100.0% CPU use with 64 MPI tasks x 1 OpenMP threads

MPI task timing breakdown:
Section |  min time  |  avg time  |  max time  |%varavg| %total
---------------------------------------------------------------
Pair    | 0.0031759  | 0.13695    | 1.0783     |  69.2 |  3.79
Bond    | 0.0010764  | 0.1562     | 0.93349    |  66.3 |  4.32
Neigh   | 0.0041398  | 0.00485    | 0.0053544  |   0.4 |  0.13
Comm    | 1.4574     | 2.8219     | 3.3369     |  35.8 | 78.05
Output  | 0.0015138  | 0.0029139  | 0.0043231  |   1.6 |  0.08
Modify  | 0.13423    | 0.37984    | 1.7958     |  79.3 | 10.51
Other   |            | 0.1131     |            |       |  3.13

Nlocal:        7.51562 ave          41 max           0 min
Histogram: 43 5 0 0 2 2 6 4 0 2
Nghost:        1822.02 ave        2414 max        1283 min
Histogram: 16 0 0 0 32 0 0 0 0 16
Neighs:              0 ave           0 max           0 min
Histogram: 64 0 0 0 0 0 0 0 0 0

Total # of neighbors = 0
Ave neighs/atom = 0
Ave special neighs/atom = 15.567568
Neighbor list builds = 10
Dangerous builds = 0
fix             myat1 all ave/time 1000 10 10000 v_zave v_zdes file simulation_data/abpot/${cpt}.dat
fix             myat1 all ave/time 1000 10 10000 v_zave v_zdes file simulation_data/abpot/12.dat
run             50000
Generated 0 of 1 mixed pair_coeff terms from geometric mixing rule
Per MPI rank memory allocation (min/avg/max) = 13.32 | 13.62 | 14.95 Mbytes
   Step          Temp          E_pair         E_mol          TotEng         Press     
    690000   291.2418       388.32203      18524.719      19329.747     -78.830221    
    700000   316.81932      384.71625      18509.806      19347.823     -105.08675    
    710000   306.57238      384.89005      18551.041      19374.571     -151.69043    
    720000   311.73948      387.3932       18542.389      19375.815     -30.318115    
    730000   314.05041      384.50754      18533.368      19367.216     -110.67139    
    740000   292.1938       390.62904      18506.341      19315.038      36.195511    
Loop time of 18.3347 on 64 procs for 50000 steps with 481 atoms

Performance: 11.781 ns/day, 2.037 hours/ns, 2727.073 timesteps/s, 1.312 Matom-step/s
100.0% CPU use with 64 MPI tasks x 1 OpenMP threads

MPI task timing breakdown:
Section |  min time  |  avg time  |  max time  |%varavg| %total
---------------------------------------------------------------
Pair    | 0.015526   | 0.68377    | 5.4076     | 154.0 |  3.73
Bond    | 0.0054117  | 0.7836     | 4.8663     | 149.4 |  4.27
Neigh   | 0.022958   | 0.026794   | 0.029539   |   1.0 |  0.15
Comm    | 7.5239     | 14.309     | 16.918     |  79.8 | 78.04
Output  | 0.007711   | 0.014738   | 0.021626   |   3.6 |  0.08
Modify  | 0.6901     | 1.9506     | 8.814      | 177.1 | 10.64
Other   |            | 0.5664     |            |       |  3.09

Nlocal:        7.51562 ave          34 max           0 min
Histogram: 40 8 0 0 0 0 1 8 5 2
Nghost:        1822.11 ave        2410 max        1294 min
Histogram: 16 0 0 0 32 0 0 0 0 16
Neighs:              0 ave           0 max           0 min
Histogram: 64 0 0 0 0 0 0 0 0 0

Total # of neighbors = 0
Ave neighs/atom = 0
Ave special neighs/atom = 15.567568
Neighbor list builds = 55
Dangerous builds = 0
unfix           myat1
next            cpt
jump            SELF loop
variable        zdes equal  -15+0.60*(${cpt}-1)
variable        zdes equal  -15+0.60*(13-1)
variable        zave equal xcm(H2,z)
fix             mytth2 H2 spring tether ${k1} 2.5 2.5 ${zdes} 0
fix             mytth2 H2 spring tether 0.6 2.5 2.5 ${zdes} 0
fix             mytth2 H2 spring tether 0.6 2.5 2.5 -7.8 0
run             10000
Generated 0 of 1 mixed pair_coeff terms from geometric mixing rule
Per MPI rank memory allocation (min/avg/max) = 13.32 | 13.62 | 14.95 Mbytes
   Step          Temp          E_pair         E_mol          TotEng         Press     
    740000   292.1938       390.62904      18506.341      19315.038      36.195511    
    750000   281.99145      381.91094      18530.977      19316.359     -252.63081    
Loop time of 3.57065 on 64 procs for 10000 steps with 481 atoms

Performance: 12.099 ns/day, 1.984 hours/ns, 2800.610 timesteps/s, 1.347 Matom-step/s
100.0% CPU use with 64 MPI tasks x 1 OpenMP threads

MPI task timing breakdown:
Section |  min time  |  avg time  |  max time  |%varavg| %total
---------------------------------------------------------------
Pair    | 0.0031613  | 0.13722    | 1.0684     |  69.1 |  3.84
Bond    | 0.0010845  | 0.15821    | 1.0058     |  67.6 |  4.43
Neigh   | 0.0040669  | 0.004744   | 0.0052409  |   0.4 |  0.13
Comm    | 1.4396     | 2.773      | 3.2882     |  35.6 | 77.66
Output  | 0.0015429  | 0.0029529  | 0.0043684  |   1.6 |  0.08
Modify  | 0.13567    | 0.38136    | 1.7498     |  75.7 | 10.68
Other   |            | 0.1131     |            |       |  3.17

Nlocal:        7.51562 ave          34 max           0 min
Histogram: 41 6 1 0 0 0 2 6 4 4
Nghost:        1818.36 ave        2403 max        1290 min
Histogram: 16 0 0 0 32 0 0 0 0 16
Neighs:              0 ave           0 max           0 min
Histogram: 64 0 0 0 0 0 0 0 0 0

Total # of neighbors = 0
Ave neighs/atom = 0
Ave special neighs/atom = 15.567568
Neighbor list builds = 10
Dangerous builds = 0
fix             myat1 all ave/time 1000 10 10000 v_zave v_zdes file simulation_data/abpot/${cpt}.dat
fix             myat1 all ave/time 1000 10 10000 v_zave v_zdes file simulation_data/abpot/13.dat
run             50000
Generated 0 of 1 mixed pair_coeff terms from geometric mixing rule
Per MPI rank memory allocation (min/avg/max) = 13.32 | 13.62 | 14.95 Mbytes
   Step          Temp          E_pair         E_mol          TotEng         Press     
    750000   281.99145      381.91094      18530.977      19316.359     -252.63081    
    760000   291.43638      392.8365       18536.765      19346.585      77.93618     
    770000   295.9744       386.54845      18552.927      19362.952     -97.85712     
    780000   316.08775      388.05062      18536.957      19377.262      21.654743    
    790000   306.87734      382.95571      18549.747      19371.78      -116.34981    
    800000   290.79561      388.40182      18531.544      19336.013      24.107022    
Loop time of 18.0816 on 64 procs for 50000 steps with 481 atoms

Performance: 11.946 ns/day, 2.009 hours/ns, 2765.245 timesteps/s, 1.330 Matom-step/s
100.0% CPU use with 64 MPI tasks x 1 OpenMP threads

MPI task timing breakdown:
Section |  min time  |  avg time  |  max time  |%varavg| %total
---------------------------------------------------------------
Pair    | 0.015719   | 0.68123    | 5.3627     | 153.0 |  3.77
Bond    | 0.0054082  | 0.77961    | 4.6439     | 148.1 |  4.31
Neigh   | 0.020516   | 0.024117   | 0.026701   |   1.0 |  0.13
Comm    | 7.3875     | 14.056     | 16.651     |  79.1 | 77.74
Output  | 0.0077901  | 0.014815   | 0.021687   |   3.6 |  0.08
Modify  | 0.69282    | 1.9588     | 8.9887     | 173.2 | 10.83
Other   |            | 0.5666     |            |       |  3.13

Nlocal:        7.51562 ave          38 max           0 min
Histogram: 41 6 1 0 1 3 2 4 4 2
Nghost:         1819.2 ave        2408 max        1287 min
Histogram: 16 0 0 0 32 0 0 0 0 16
Neighs:              0 ave           0 max           0 min
Histogram: 64 0 0 0 0 0 0 0 0 0

Total # of neighbors = 0
Ave neighs/atom = 0
Ave special neighs/atom = 15.567568
Neighbor list builds = 51
Dangerous builds = 0
unfix           myat1
next            cpt
jump            SELF loop
variable        zdes equal  -15+0.60*(${cpt}-1)
variable        zdes equal  -15+0.60*(14-1)
variable        zave equal xcm(H2,z)
fix             mytth2 H2 spring tether ${k1} 2.5 2.5 ${zdes} 0
fix             mytth2 H2 spring tether 0.6 2.5 2.5 ${zdes} 0
fix             mytth2 H2 spring tether 0.6 2.5 2.5 -7.2 0
run             10000
Generated 0 of 1 mixed pair_coeff terms from geometric mixing rule
Per MPI rank memory allocation (min/avg/max) = 13.32 | 13.62 | 14.95 Mbytes
   Step          Temp          E_pair         E_mol          TotEng         Press     
    800000   290.79561      388.40182      18531.544      19336.013      24.107022    
    810000   280.39625      393.7724       18544.327      19339.287     -144.16728    
Loop time of 3.65143 on 64 procs for 10000 steps with 481 atoms

Performance: 11.831 ns/day, 2.029 hours/ns, 2738.651 timesteps/s, 1.317 Matom-step/s
100.0% CPU use with 64 MPI tasks x 1 OpenMP threads

MPI task timing breakdown:
Section |  min time  |  avg time  |  max time  |%varavg| %total
---------------------------------------------------------------
Pair    | 0.0031685  | 0.13856    | 1.0853     |  69.5 |  3.79
Bond    | 0.0010607  | 0.15586    | 0.90571    |  65.8 |  4.27
Neigh   | 0.0066545  | 0.0078145  | 0.0085907  |   0.6 |  0.21
Comm    | 1.4575     | 2.844      | 3.3647     |  35.4 | 77.89
Output  | 0.0015418  | 0.002945   | 0.004347   |   1.6 |  0.08
Modify  | 0.13833    | 0.38901    | 1.7615     |  77.7 | 10.65
Other   |            | 0.1133     |            |       |  3.10

Nlocal:        7.51562 ave          37 max           0 min
Histogram: 41 6 1 0 2 3 2 2 4 3
Nghost:        1821.92 ave        2411 max        1289 min
Histogram: 16 0 0 0 32 0 0 0 0 16
Neighs:              0 ave           0 max           0 min
Histogram: 64 0 0 0 0 0 0 0 0 0

Total # of neighbors = 0
Ave neighs/atom = 0
Ave special neighs/atom = 15.567568
Neighbor list builds = 16
Dangerous builds = 0
fix             myat1 all ave/time 1000 10 10000 v_zave v_zdes file simulation_data/abpot/${cpt}.dat
fix             myat1 all ave/time 1000 10 10000 v_zave v_zdes file simulation_data/abpot/14.dat
run             50000
Generated 0 of 1 mixed pair_coeff terms from geometric mixing rule
Per MPI rank memory allocation (min/avg/max) = 13.32 | 13.62 | 14.95 Mbytes
   Step          Temp          E_pair         E_mol          TotEng         Press     
    810000   280.39625      393.7724       18544.327      19339.287     -144.16728    
    820000   306.85422      391.70112      18522.638      19353.382     -18.553897    
    830000   304.78761      383.17663      18563.941      19383.204     -225.58984    
    840000   332.0752       388.46366      18518.427      19382.02      -3.7692866    
    850000   291.42957      388.01629      18515.902      19320.893     -48.905553    
    860000   289.1531       392.14174      18510.496      19316.355      6.5190707    
Loop time of 17.9672 on 64 procs for 50000 steps with 481 atoms

Performance: 12.022 ns/day, 1.996 hours/ns, 2782.851 timesteps/s, 1.339 Matom-step/s
100.0% CPU use with 64 MPI tasks x 1 OpenMP threads

MPI task timing breakdown:
Section |  min time  |  avg time  |  max time  |%varavg| %total
---------------------------------------------------------------
Pair    | 0.015798   | 0.68232    | 5.3814     | 153.6 |  3.80
Bond    | 0.0053257  | 0.78029    | 4.8853     | 148.7 |  4.34
Neigh   | 0.022571   | 0.026516   | 0.029303   |   1.0 |  0.15
Comm    | 7.2228     | 13.992     | 16.553     |  79.2 | 77.88
Output  | 0.00777    | 0.014826   | 0.02174    |   3.6 |  0.08
Modify  | 0.6836     | 1.9033     | 8.8602     | 172.3 | 10.59
Other   |            | 0.5679     |            |       |  3.16

Nlocal:        7.51562 ave          42 max           0 min
Histogram: 41 7 0 0 1 7 4 0 3 1
Nghost:        1822.39 ave        2416 max        1282 min
Histogram: 16 0 0 0 32 0 0 0 0 16
Neighs:              0 ave           0 max           0 min
Histogram: 64 0 0 0 0 0 0 0 0 0

Total # of neighbors = 0
Ave neighs/atom = 0
Ave special neighs/atom = 15.567568
Neighbor list builds = 56
Dangerous builds = 0
unfix           myat1
next            cpt
jump            SELF loop
variable        zdes equal  -15+0.60*(${cpt}-1)
variable        zdes equal  -15+0.60*(15-1)
variable        zave equal xcm(H2,z)
fix             mytth2 H2 spring tether ${k1} 2.5 2.5 ${zdes} 0
fix             mytth2 H2 spring tether 0.6 2.5 2.5 ${zdes} 0
fix             mytth2 H2 spring tether 0.6 2.5 2.5 -6.6 0
run             10000
Generated 0 of 1 mixed pair_coeff terms from geometric mixing rule
Per MPI rank memory allocation (min/avg/max) = 13.32 | 13.62 | 14.95 Mbytes
   Step          Temp          E_pair         E_mol          TotEng         Press     
    860000   289.1531       392.14174      18510.496      19316.355      6.5190707    
    870000   301.46842      385.4754       18498.764      19315.577     -120.09352    
Loop time of 3.51402 on 64 procs for 10000 steps with 481 atoms

Performance: 12.294 ns/day, 1.952 hours/ns, 2845.742 timesteps/s, 1.369 Matom-step/s
100.0% CPU use with 64 MPI tasks x 1 OpenMP threads

MPI task timing breakdown:
Section |  min time  |  avg time  |  max time  |%varavg| %total
---------------------------------------------------------------
Pair    | 0.0030843  | 0.13578    | 1.001      |  67.9 |  3.86
Bond    | 0.0010782  | 0.15561    | 0.93974    |  66.3 |  4.43
Neigh   | 0.0039852  | 0.0047795  | 0.0053616  |   0.5 |  0.14
Comm    | 1.4301     | 2.7373     | 3.234      |  34.6 | 77.90
Output  | 0.0014649  | 0.0028761  | 0.0042712  |   1.6 |  0.08
Modify  | 0.13408    | 0.36447    | 1.6427     |  74.1 | 10.37
Other   |            | 0.1132     |            |       |  3.22

Nlocal:        7.51562 ave          41 max           0 min
Histogram: 40 8 0 1 1 1 7 4 1 1
Nghost:        1824.73 ave        2421 max        1283 min
Histogram: 16 0 0 0 32 0 0 0 0 16
Neighs:              0 ave           0 max           0 min
Histogram: 64 0 0 0 0 0 0 0 0 0

Total # of neighbors = 0
Ave neighs/atom = 0
Ave special neighs/atom = 15.567568
Neighbor list builds = 11
Dangerous builds = 0
fix             myat1 all ave/time 1000 10 10000 v_zave v_zdes file simulation_data/abpot/${cpt}.dat
fix             myat1 all ave/time 1000 10 10000 v_zave v_zdes file simulation_data/abpot/15.dat
run             50000
Generated 0 of 1 mixed pair_coeff terms from geometric mixing rule
Per MPI rank memory allocation (min/avg/max) = 13.32 | 13.62 | 14.95 Mbytes
   Step          Temp          E_pair         E_mol          TotEng         Press     
    870000   301.46842      385.4754       18498.764      19315.577     -120.09352    
    880000   302.70725      372.02566      18536.698      19341.834     -457.35948    
    890000   311.80346      398.50962      18504.665      19349.3        232.95363    
    900000   286.70579      393.48733      18549.813      19353.515     -4.0577359    
    910000   307.18515      386.00954      18525.61       19351.136     -212.72789    
    920000   293.18112      390.17489      18532.859      19342.515     -149.02217    
Loop time of 17.9325 on 64 procs for 50000 steps with 481 atoms

Performance: 12.045 ns/day, 1.993 hours/ns, 2788.232 timesteps/s, 1.341 Matom-step/s
100.0% CPU use with 64 MPI tasks x 1 OpenMP threads

MPI task timing breakdown:
Section |  min time  |  avg time  |  max time  |%varavg| %total
---------------------------------------------------------------
Pair    | 0.015939   | 0.68261    | 5.1879     | 152.4 |  3.81
Bond    | 0.0053309  | 0.77794    | 4.6374     | 147.3 |  4.34
Neigh   | 0.031252   | 0.036654   | 0.040557   |   1.2 |  0.20
Comm    | 7.3426     | 13.937     | 16.481     |  77.8 | 77.72
Output  | 0.0078214  | 0.015654   | 0.023342   |   4.1 |  0.09
Modify  | 0.68037    | 1.9122     | 8.6221     | 168.6 | 10.66
Other   |            | 0.5704     |            |       |  3.18

Nlocal:        7.51562 ave          38 max           0 min
Histogram: 43 4 1 0 2 3 2 4 3 2
Nghost:        1819.95 ave        2416 max        1286 min
Histogram: 16 0 0 0 32 0 0 0 0 16
Neighs:              0 ave           0 max           0 min
Histogram: 64 0 0 0 0 0 0 0 0 0

Total # of neighbors = 0
Ave neighs/atom = 0
Ave special neighs/atom = 15.567568
Neighbor list builds = 79
Dangerous builds = 0
unfix           myat1
next            cpt
jump            SELF loop
variable        zdes equal  -15+0.60*(${cpt}-1)
variable        zdes equal  -15+0.60*(16-1)
variable        zave equal xcm(H2,z)
fix             mytth2 H2 spring tether ${k1} 2.5 2.5 ${zdes} 0
fix             mytth2 H2 spring tether 0.6 2.5 2.5 ${zdes} 0
fix             mytth2 H2 spring tether 0.6 2.5 2.5 -6 0
run             10000
Generated 0 of 1 mixed pair_coeff terms from geometric mixing rule
Per MPI rank memory allocation (min/avg/max) = 13.32 | 13.62 | 14.95 Mbytes
   Step          Temp          E_pair         E_mol          TotEng         Press     
    920000   293.18112      390.17489      18532.859      19342.515     -149.02217    
    930000   299.32188      399.54835      18516.114      19343.929      184.38224    
Loop time of 3.58644 on 64 procs for 10000 steps with 481 atoms

Performance: 12.045 ns/day, 1.992 hours/ns, 2788.280 timesteps/s, 1.341 Matom-step/s
100.0% CPU use with 64 MPI tasks x 1 OpenMP threads

MPI task timing breakdown:
Section |  min time  |  avg time  |  max time  |%varavg| %total
---------------------------------------------------------------
Pair    | 0.0031179  | 0.13775    | 1.0411     |  68.7 |  3.84
Bond    | 0.0010743  | 0.15609    | 0.88956    |  65.7 |  4.35
Neigh   | 0.0056023  | 0.0065835  | 0.0072807  |   0.5 |  0.18
Comm    | 1.4923     | 2.7869     | 3.3076     |  35.4 | 77.71
Output  | 0.0015209  | 0.0029201  | 0.0043207  |   1.6 |  0.08
Modify  | 0.13234    | 0.37741    | 1.7486     |  78.1 | 10.52
Other   |            | 0.1188     |            |       |  3.31

Nlocal:        7.51562 ave          34 max           0 min
Histogram: 40 8 0 0 0 1 1 7 3 4
Nghost:        1821.83 ave        2413 max        1290 min
Histogram: 16 0 0 0 32 0 0 0 0 16
Neighs:              0 ave           0 max           0 min
Histogram: 64 0 0 0 0 0 0 0 0 0

Total # of neighbors = 0
Ave neighs/atom = 0
Ave special neighs/atom = 15.567568
Neighbor list builds = 14
Dangerous builds = 0
fix             myat1 all ave/time 1000 10 10000 v_zave v_zdes file simulation_data/abpot/${cpt}.dat
fix             myat1 all ave/time 1000 10 10000 v_zave v_zdes file simulation_data/abpot/16.dat
run             50000
Generated 0 of 1 mixed pair_coeff terms from geometric mixing rule
Per MPI rank memory allocation (min/avg/max) = 13.32 | 13.62 | 14.95 Mbytes
   Step          Temp          E_pair         E_mol          TotEng         Press     
    930000   299.32188      399.54835      18516.114      19343.929      184.38224    
    940000   297.73479      392.54705      18531.943      19350.486     -55.280844    
    950000   293.67657      391.77674      18493.959      19305.925      60.642429    
    960000   312.48741      391.23889      18531.341      19369.683     -57.166365    
    970000   320.22964      403.82664      18509.353      19371.36       288.99907    
    980000   299.83339      389.74512      18534.984      19353.727     -101.99457    
Loop time of 17.8045 on 64 procs for 50000 steps with 481 atoms

Performance: 12.132 ns/day, 1.978 hours/ns, 2808.284 timesteps/s, 1.351 Matom-step/s
100.0% CPU use with 64 MPI tasks x 1 OpenMP threads

MPI task timing breakdown:
Section |  min time  |  avg time  |  max time  |%varavg| %total
---------------------------------------------------------------
Pair    | 0.015895   | 0.69266    | 5.2157     | 154.1 |  3.89
Bond    | 0.0053656  | 0.77901    | 4.3908     | 146.5 |  4.38
Neigh   | 0.065975   | 0.077225   | 0.085155   |   1.7 |  0.43
Comm    | 6.9822     | 13.775     | 16.306     |  78.4 | 77.37
Output  | 0.007612   | 0.014936   | 0.022024   |   3.8 |  0.08
Modify  | 0.69702    | 1.8679     | 8.4429     | 168.4 | 10.49
Other   |            | 0.5975     |            |       |  3.36

Nlocal:        7.51562 ave          42 max           0 min
Histogram: 43 5 1 0 1 5 2 4 2 1
Nghost:        1816.11 ave        2397 max        1293 min
Histogram: 16 0 0 0 32 0 0 0 0 16
Neighs:              0 ave           0 max           0 min
Histogram: 64 0 0 0 0 0 0 0 0 0

Total # of neighbors = 0
Ave neighs/atom = 0
Ave special neighs/atom = 15.567568
Neighbor list builds = 167
Dangerous builds = 0
unfix           myat1
next            cpt
jump            SELF loop
variable        zdes equal  -15+0.60*(${cpt}-1)
variable        zdes equal  -15+0.60*(17-1)
variable        zave equal xcm(H2,z)
fix             mytth2 H2 spring tether ${k1} 2.5 2.5 ${zdes} 0
fix             mytth2 H2 spring tether 0.6 2.5 2.5 ${zdes} 0
fix             mytth2 H2 spring tether 0.6 2.5 2.5 -5.4 0
run             10000
Generated 0 of 1 mixed pair_coeff terms from geometric mixing rule
Per MPI rank memory allocation (min/avg/max) = 13.32 | 13.62 | 14.95 Mbytes
   Step          Temp          E_pair         E_mol          TotEng         Press     
    980000   299.83339      389.74512      18534.984      19353.727     -101.99457    
    990000   307.58215      390.31288      18507.625      19338.023     -130.51966    
Loop time of 3.6992 on 64 procs for 10000 steps with 481 atoms

Performance: 11.678 ns/day, 2.055 hours/ns, 2703.289 timesteps/s, 1.300 Matom-step/s
100.0% CPU use with 64 MPI tasks x 1 OpenMP threads

MPI task timing breakdown:
Section |  min time  |  avg time  |  max time  |%varavg| %total
---------------------------------------------------------------
Pair    | 0.0031844  | 0.13919    | 1.0218     |  68.9 |  3.76
Bond    | 0.001079   | 0.15637    | 0.91224    |  65.6 |  4.23
Neigh   | 0.015431   | 0.018061   | 0.019944   |   0.8 |  0.49
Comm    | 1.4876     | 2.8672     | 3.4027     |  36.0 | 77.51
[...]
Section |  min time  |  avg time  |  max time  |%varavg| %total
---------------------------------------------------------------
Pair    | 0.0031792  | 0.13398    | 1.1532     |  67.9 |  3.50
Bond    | 0.0010635  | 0.16043    | 0.96937    |  68.7 |  4.19
Neigh   | 0.0057145  | 0.0065451  | 0.0070991  |   0.5 |  0.17
Comm    | 1.632      | 2.9601     | 3.5524     |  38.1 | 77.27
Output  | 0.0016385  | 0.0030488  | 0.0044779  |   1.6 |  0.08
Modify  | 0.12886    | 0.44866    | 1.9904     |  88.4 | 11.71
Other   |            | 0.1181     |            |       |  3.08

Nlocal:        7.51562 ave          36 max           0 min
Histogram: 41 7 0 0 0 2 4 3 4 3
Nghost:        1818.55 ave        2402 max        1291 min
Histogram: 16 0 0 0 32 0 0 0 0 16
Neighs:              0 ave           0 max           0 min
Histogram: 64 0 0 0 0 0 0 0 0 0

Total # of neighbors = 0
Ave neighs/atom = 0
Ave special neighs/atom = 15.567568
Neighbor list builds = 13
Dangerous builds = 0
fix             myat1 all ave/time 1000 10 10000 v_zave v_zdes file simulation_data/abpot/${cpt}.dat
fix             myat1 all ave/time 1000 10 10000 v_zave v_zdes file simulation_data/abpot/47.dat
run             50000
Generated 0 of 1 mixed pair_coeff terms from geometric mixing rule
Per MPI rank memory allocation (min/avg/max) = 13.32 | 13.62 | 14.95 Mbytes
   Step          Temp          E_pair         E_mol          TotEng         Press     
   2790000   295.99835      381.50538      18500.541      19305.557     -58.31279     
   2800000   288.01178      376.32529      18526.059      19314.468     -265.18899    
   2810000   290.50937      387.23212      18520.49       19323.38      -84.280913    
   2820000   305.29039      381.16744      18541.29       19359.264     -184.74619    
   2830000   302.2747       377.95583      18525.881      19336.328     -211.23859    
   2840000   287.79894      383.18094      18521.923      19316.883     -162.37951    
Loop time of 18.1531 on 64 procs for 50000 steps with 481 atoms

Performance: 11.899 ns/day, 2.017 hours/ns, 2754.358 timesteps/s, 1.325 Matom-step/s
100.0% CPU use with 64 MPI tasks x 1 OpenMP threads

MPI task timing breakdown:
Section |  min time  |  avg time  |  max time  |%varavg| %total
---------------------------------------------------------------
Pair    | 0.016075   | 0.66718    | 5.3815     | 149.7 |  3.68
Bond    | 0.0054077  | 0.79625    | 4.5375     | 149.9 |  4.39
Neigh   | 0.031945   | 0.036977   | 0.04037    |   1.1 |  0.20
Comm    | 7.7288     | 13.985     | 16.735     |  79.9 | 77.04
Output  | 0.0080645  | 0.015322   | 0.022356   |   3.7 |  0.08
Modify  | 0.65708    | 2.0565     | 8.9092     | 179.4 | 11.33
Other   |            | 0.5955     |            |       |  3.28

Nlocal:        7.51562 ave          42 max           0 min
Histogram: 44 4 0 2 2 4 1 2 3 2
Nghost:        1819.95 ave        2403 max        1282 min
Histogram: 16 0 0 0 32 0 0 0 0 16
Neighs:              0 ave           0 max           0 min
Histogram: 64 0 0 0 0 0 0 0 0 0

Total # of neighbors = 0
Ave neighs/atom = 0
Ave special neighs/atom = 15.567568
Neighbor list builds = 76
Dangerous builds = 0
unfix           myat1
next            cpt
jump            SELF loop
variable        zdes equal  -15+0.60*(${cpt}-1)
variable        zdes equal  -15+0.60*(48-1)
variable        zave equal xcm(H2,z)
fix             mytth2 H2 spring tether ${k1} 2.5 2.5 ${zdes} 0
fix             mytth2 H2 spring tether 0.6 2.5 2.5 ${zdes} 0
fix             mytth2 H2 spring tether 0.6 2.5 2.5 13.2 0
run             10000
Generated 0 of 1 mixed pair_coeff terms from geometric mixing rule
Per MPI rank memory allocation (min/avg/max) = 13.32 | 13.62 | 14.95 Mbytes
   Step          Temp          E_pair         E_mol          TotEng         Press     
   2840000   287.79894      383.18094      18521.923      19316.883     -162.37951    
   2850000   270.33752      389.32067      18529.056      19305.172      41.205993    
Loop time of 3.61057 on 64 procs for 10000 steps with 481 atoms

Performance: 11.965 ns/day, 2.006 hours/ns, 2769.643 timesteps/s, 1.332 Matom-step/s
100.0% CPU use with 64 MPI tasks x 1 OpenMP threads

MPI task timing breakdown:
Section |  min time  |  avg time  |  max time  |%varavg| %total
---------------------------------------------------------------
Pair    | 0.0032244  | 0.13364    | 1.0357     |  66.9 |  3.70
Bond    | 0.001073   | 0.15911    | 0.88929    |  67.1 |  4.41
Neigh   | 0.0072872  | 0.0084775  | 0.0092626  |   0.6 |  0.23
Comm    | 1.5811     | 2.7854     | 3.3307     |  35.5 | 77.15
Output  | 0.0016003  | 0.0030343  | 0.0044602  |   1.6 |  0.08
Modify  | 0.13042    | 0.40262    | 1.7493     |  79.7 | 11.15
Other   |            | 0.1183     |            |       |  3.28

Nlocal:        7.51562 ave          43 max           0 min
Histogram: 44 3 1 3 1 4 2 2 2 2
Nghost:        1822.67 ave        2418 max        1281 min
Histogram: 16 0 0 0 32 0 0 0 0 16
Neighs:              0 ave           0 max           0 min
Histogram: 64 0 0 0 0 0 0 0 0 0

Total # of neighbors = 0
Ave neighs/atom = 0
Ave special neighs/atom = 15.567568
Neighbor list builds = 18
Dangerous builds = 0
fix             myat1 all ave/time 1000 10 10000 v_zave v_zdes file simulation_data/abpot/${cpt}.dat
fix             myat1 all ave/time 1000 10 10000 v_zave v_zdes file simulation_data/abpot/48.dat
run             50000
Generated 0 of 1 mixed pair_coeff terms from geometric mixing rule
Per MPI rank memory allocation (min/avg/max) = 13.32 | 13.62 | 14.95 Mbytes
   Step          Temp          E_pair         E_mol          TotEng         Press     
   2850000   270.33752      389.32067      18529.056      19305.172      41.205993    
   2860000   301.8213       381.02289      18530.171      19343.037     -177.55247    
   2870000   313.86791      378.62488      18534.04       19361.743     -269.82878    
   2880000   314.20512      385.32463      18559.324      19394.21      -109.38805    
   2890000   293.57656      385.22895      18546.095      19351.37      -127.43201    
   2900000   288.00543      384.3962       18539.064      19335.535     -83.583191    
Loop time of 18.1314 on 64 procs for 50000 steps with 481 atoms

Performance: 11.913 ns/day, 2.015 hours/ns, 2757.645 timesteps/s, 1.326 Matom-step/s
100.0% CPU use with 64 MPI tasks x 1 OpenMP threads

MPI task timing breakdown:
Section |  min time  |  avg time  |  max time  |%varavg| %total
---------------------------------------------------------------
Pair    | 0.016415   | 0.67122    | 5.4024     | 151.2 |  3.70
Bond    | 0.005387   | 0.80262    | 4.5632     | 152.0 |  4.43
Neigh   | 0.043187   | 0.050076   | 0.054739   |   1.3 |  0.28
Comm    | 7.5046     | 13.943     | 16.722     |  79.9 | 76.90
Output  | 0.0079839  | 0.015137   | 0.022126   |   3.6 |  0.08
Modify  | 0.63016    | 2.0539     | 8.8591     | 177.4 | 11.33
Other   |            | 0.5958     |            |       |  3.29

Nlocal:        7.51562 ave          38 max           0 min
Histogram: 43 3 2 0 1 3 4 2 4 2
Nghost:        1819.67 ave        2410 max        1287 min
Histogram: 16 0 0 0 32 0 0 0 0 16
Neighs:              0 ave           0 max           0 min
Histogram: 64 0 0 0 0 0 0 0 0 0

Total # of neighbors = 0
Ave neighs/atom = 0
Ave special neighs/atom = 15.567568
Neighbor list builds = 105
Dangerous builds = 0
unfix           myat1
next            cpt
jump            SELF loop
variable        zdes equal  -15+0.60*(${cpt}-1)
variable        zdes equal  -15+0.60*(49-1)
variable        zave equal xcm(H2,z)
fix             mytth2 H2 spring tether ${k1} 2.5 2.5 ${zdes} 0
fix             mytth2 H2 spring tether 0.6 2.5 2.5 ${zdes} 0
fix             mytth2 H2 spring tether 0.6 2.5 2.5 13.8 0
run             10000
Generated 0 of 1 mixed pair_coeff terms from geometric mixing rule
Per MPI rank memory allocation (min/avg/max) = 13.32 | 13.62 | 14.95 Mbytes
   Step          Temp          E_pair         E_mol          TotEng         Press     
   2900000   288.00543      384.3962       18539.064      19335.535     -83.583191    
   2910000   294.93689      387.37254      18514.053      19323.418      31.045103    
Loop time of 3.77787 on 64 procs for 10000 steps with 481 atoms

Performance: 11.435 ns/day, 2.099 hours/ns, 2646.997 timesteps/s, 1.273 Matom-step/s
99.9% CPU use with 64 MPI tasks x 1 OpenMP threads

MPI task timing breakdown:
Section |  min time  |  avg time  |  max time  |%varavg| %total
---------------------------------------------------------------
Pair    | 0.0032936  | 0.13438    | 1.1225     |  67.9 |  3.56
Bond    | 0.0011035  | 0.16081    | 0.9645     |  68.5 |  4.26
Neigh   | 0.011453   | 0.013137   | 0.014281   |   0.6 |  0.35
Comm    | 1.5398     | 2.9166     | 3.4862     |  37.1 | 77.20
Output  | 0.0016727  | 0.0031026  | 0.0045317  |   1.6 |  0.08
Modify  | 0.12895    | 0.43042    | 1.9216     |  84.9 | 11.39
Other   |            | 0.1194     |            |       |  3.16

Nlocal:        7.51562 ave          39 max           0 min
Histogram: 41 6 1 1 0 3 5 3 1 3
Nghost:        1826.88 ave        2424 max        1285 min
Histogram: 16 0 0 0 32 0 0 0 0 16
Neighs:              0 ave           0 max           0 min
Histogram: 64 0 0 0 0 0 0 0 0 0

Total # of neighbors = 0
Ave neighs/atom = 0
Ave special neighs/atom = 15.567568
Neighbor list builds = 26
Dangerous builds = 0
fix             myat1 all ave/time 1000 10 10000 v_zave v_zdes file simulation_data/abpot/${cpt}.dat
fix             myat1 all ave/time 1000 10 10000 v_zave v_zdes file simulation_data/abpot/49.dat
run             50000
Generated 0 of 1 mixed pair_coeff terms from geometric mixing rule
Per MPI rank memory allocation (min/avg/max) = 13.32 | 13.62 | 14.95 Mbytes
   Step          Temp          E_pair         E_mol          TotEng         Press     
   2910000   294.93689      387.37254      18514.053      19323.418      31.045103    
   2920000   301.37576      384.98914      18514.902      19331.097      39.364105    
   2930000   285.00312      389.24516      18556.983      19354.007      105.29714    
   2940000   286.58773      387.92301      18553.875      19351.845     -130.90545    
   2950000   295.09689      374.34942      18552.981      19349.552     -421.68071    
   2960000   303.50032      382.36406      18507.058      19323.667     -71.766552    
Loop time of 18.5938 on 64 procs for 50000 steps with 481 atoms

Performance: 11.617 ns/day, 2.066 hours/ns, 2689.063 timesteps/s, 1.293 Matom-step/s
100.0% CPU use with 64 MPI tasks x 1 OpenMP threads

MPI task timing breakdown:
Section |  min time  |  avg time  |  max time  |%varavg| %total
---------------------------------------------------------------
Pair    | 0.016558   | 0.67218    | 5.3441     | 151.7 |  3.62
Bond    | 0.0054354  | 0.80382    | 4.6079     | 152.7 |  4.32
Neigh   | 0.033956   | 0.039046   | 0.042567   |   1.1 |  0.21
Comm    | 7.9771     | 14.331     | 17.15      |  81.8 | 77.07
Output  | 0.0080585  | 0.015168   | 0.023645   |   3.6 |  0.08
Modify  | 0.67115    | 2.1377     | 9.2349     | 184.8 | 11.50
Other   |            | 0.595      |            |       |  3.20

Nlocal:        7.51562 ave          33 max           0 min
Histogram: 41 6 1 0 0 0 4 3 4 5
Nghost:        1822.48 ave        2415 max        1291 min
Histogram: 16 0 0 0 32 0 0 0 0 16
Neighs:              0 ave           0 max           0 min
Histogram: 64 0 0 0 0 0 0 0 0 0

Total # of neighbors = 0
Ave neighs/atom = 0
Ave special neighs/atom = 15.567568
Neighbor list builds = 78
Dangerous builds = 0
unfix           myat1
next            cpt
jump            SELF loop
variable        zdes equal  -15+0.60*(${cpt}-1)
variable        zdes equal  -15+0.60*(50-1)
variable        zave equal xcm(H2,z)
fix             mytth2 H2 spring tether ${k1} 2.5 2.5 ${zdes} 0
fix             mytth2 H2 spring tether 0.6 2.5 2.5 ${zdes} 0
fix             mytth2 H2 spring tether 0.6 2.5 2.5 14.4 0
run             10000
Generated 0 of 1 mixed pair_coeff terms from geometric mixing rule
Per MPI rank memory allocation (min/avg/max) = 13.32 | 13.62 | 14.95 Mbytes
   Step          Temp          E_pair         E_mol          TotEng         Press     
   2960000   303.50032      382.36406      18507.058      19323.667     -71.766552    
   2970000   290.81641      388.12605      18501.176      19305.399      58.029106    
Loop time of 3.77393 on 64 procs for 10000 steps with 481 atoms

Performance: 11.447 ns/day, 2.097 hours/ns, 2649.755 timesteps/s, 1.275 Matom-step/s
100.0% CPU use with 64 MPI tasks x 1 OpenMP threads

MPI task timing breakdown:
Section |  min time  |  avg time  |  max time  |%varavg| %total
---------------------------------------------------------------
Pair    | 0.0032838  | 0.134      | 1.0818     |  67.4 |  3.55
Bond    | 0.0010602  | 0.16048    | 0.97381    |  68.3 |  4.25
Neigh   | 0.0055641  | 0.0063156  | 0.006825   |   0.4 |  0.17
Comm    | 1.6158     | 2.9161     | 3.4871     |  37.2 | 77.27
Output  | 0.001642   | 0.0030387  | 0.0044455  |   1.6 |  0.08
Modify  | 0.13236    | 0.43522    | 1.9274     |  85.7 | 11.53
Other   |            | 0.1188     |            |       |  3.15

Nlocal:        7.51562 ave          35 max           0 min
Histogram: 41 6 1 0 0 1 4 4 4 3
Nghost:        1822.95 ave        2418 max        1290 min
Histogram: 16 0 0 0 32 0 0 0 0 16
Neighs:              0 ave           0 max           0 min
Histogram: 64 0 0 0 0 0 0 0 0 0

Total # of neighbors = 0
Ave neighs/atom = 0
Ave special neighs/atom = 15.567568
Neighbor list builds = 12
Dangerous builds = 0
fix             myat1 all ave/time 1000 10 10000 v_zave v_zdes file simulation_data/abpot/${cpt}.dat
fix             myat1 all ave/time 1000 10 10000 v_zave v_zdes file simulation_data/abpot/50.dat
run             50000
Generated 0 of 1 mixed pair_coeff terms from geometric mixing rule
Per MPI rank memory allocation (min/avg/max) = 13.32 | 13.62 | 14.95 Mbytes
   Step          Temp          E_pair         E_mol          TotEng         Press     
   2970000   290.81641      388.12605      18501.176      19305.399      58.029106    
   2980000   311.25699      383.3909       18505.401      19334.135     -65.233268    
   2990000   297.47599      376.19486      18539.664      19341.484     -287.88724    
   3000000   292.40719      383.91595      18515.097      19317.386     -74.186753    
   3010000   296.89906      381.80352      18499.984      19306.588     -227.02257    
   3020000   285.11499      377.97773      18522.587      19308.504     -276.5487     
Loop time of 18.4512 on 64 procs for 50000 steps with 481 atoms

Performance: 11.707 ns/day, 2.050 hours/ns, 2709.845 timesteps/s, 1.303 Matom-step/s
100.0% CPU use with 64 MPI tasks x 1 OpenMP threads

MPI task timing breakdown:
Section |  min time  |  avg time  |  max time  |%varavg| %total
---------------------------------------------------------------
Pair    | 0.016453   | 0.67151    | 5.5322     | 151.7 |  3.64
Bond    | 0.0053369  | 0.80271    | 4.712      | 152.4 |  4.35
Neigh   | 0.033075   | 0.038276   | 0.041777   |   1.1 |  0.21
Comm    | 7.477      | 14.229     | 17.027     |  82.0 | 77.11
Output  | 0.0079354  | 0.014997   | 0.021886   |   3.6 |  0.08
Modify  | 0.66397    | 2.1009     | 9.2092     | 185.6 | 11.39
Other   |            | 0.5944     |            |       |  3.22

Nlocal:        7.51562 ave          39 max           0 min
Histogram: 42 5 1 1 3 2 2 3 2 3
Nghost:        1816.48 ave        2415 max        1288 min
Histogram: 16 0 0 0 32 0 0 0 0 16
Neighs:              0 ave           0 max           0 min
Histogram: 64 0 0 0 0 0 0 0 0 0

Total # of neighbors = 0
Ave neighs/atom = 0
Ave special neighs/atom = 15.567568
Neighbor list builds = 79
Dangerous builds = 0
unfix           myat1
next            cpt
jump            SELF loop
variable        zdes equal  -15+0.60*(${cpt}-1)
variable        zdes equal  -15+0.60*(51-1)
variable        zave equal xcm(H2,z)
fix             mytth2 H2 spring tether ${k1} 2.5 2.5 ${zdes} 0
fix             mytth2 H2 spring tether 0.6 2.5 2.5 ${zdes} 0
fix             mytth2 H2 spring tether 0.6 2.5 2.5 15 0
run             10000
Generated 0 of 1 mixed pair_coeff terms from geometric mixing rule
Per MPI rank memory allocation (min/avg/max) = 13.32 | 13.62 | 14.95 Mbytes
   Step          Temp          E_pair         E_mol          TotEng         Press     
   3020000   285.11499      377.97773      18522.587      19308.504     -276.5487     
   3030000   286.23411      383.39067      18515.281      19308.212     -122.31744    
Loop time of 3.78072 on 64 procs for 10000 steps with 481 atoms

Performance: 11.426 ns/day, 2.100 hours/ns, 2645.000 timesteps/s, 1.272 Matom-step/s
100.0% CPU use with 64 MPI tasks x 1 OpenMP threads

MPI task timing breakdown:
Section |  min time  |  avg time  |  max time  |%varavg| %total
---------------------------------------------------------------
Pair    | 0.0033684  | 0.13458    | 1.1154     |  68.0 |  3.56
Bond    | 0.001062   | 0.16044    | 0.94055    |  68.0 |  4.24
Neigh   | 0.0083055  | 0.0094745  | 0.010285   |   0.5 |  0.25
Comm    | 1.5679     | 2.9142     | 3.4926     |  37.5 | 77.08
Output  | 0.0016009  | 0.0030305  | 0.0044658  |   1.6 |  0.08
Modify  | 0.13447    | 0.44059    | 1.9254     |  86.0 | 11.65
Other   |            | 0.1184     |            |       |  3.13

Nlocal:        7.51562 ave          39 max           0 min
Histogram: 42 4 2 0 1 6 1 1 6 1
Nghost:         1819.2 ave        2407 max        1285 min
Histogram: 16 0 0 0 32 0 0 0 0 16
Neighs:              0 ave           0 max           0 min
Histogram: 64 0 0 0 0 0 0 0 0 0

Total # of neighbors = 0
Ave neighs/atom = 0
Ave special neighs/atom = 15.567568
Neighbor list builds = 18
Dangerous builds = 0
fix             myat1 all ave/time 1000 10 10000 v_zave v_zdes file simulation_data/abpot/${cpt}.dat
fix             myat1 all ave/time 1000 10 10000 v_zave v_zdes file simulation_data/abpot/51.dat
run             50000
Generated 0 of 1 mixed pair_coeff terms from geometric mixing rule
Per MPI rank memory allocation (min/avg/max) = 13.32 | 13.62 | 14.95 Mbytes
   Step          Temp          E_pair         E_mol          TotEng         Press     
   3030000   286.23411      383.39067      18515.281      19308.212     -122.31744    
   3040000   323.77722      382.76377      18501.051      19347.071     -36.057255    
   3050000   297.96288      380.92583      18536.503      19343.75      -192.63208    
   3060000   310.11176      382.83843      18502.668      19329.211      26.230913    
   3070000   281.16553      390.2396       18495.395      19287.923      145.79861    
   3080000   282.38456      381.39381      18513.592      19299.019     -123.82563    
Loop time of 18.3451 on 64 procs for 50000 steps with 481 atoms

Performance: 11.774 ns/day, 2.038 hours/ns, 2725.526 timesteps/s, 1.311 Matom-step/s
100.0% CPU use with 64 MPI tasks x 1 OpenMP threads

MPI task timing breakdown:
Section |  min time  |  avg time  |  max time  |%varavg| %total
---------------------------------------------------------------
Pair    | 0.016382   | 0.67131    | 5.4191     | 151.5 |  3.66
Bond    | 0.0053398  | 0.80049    | 4.6879     | 151.3 |  4.36
Neigh   | 0.047056   | 0.054462   | 0.05952    |   1.4 |  0.30
Comm    | 7.6953     | 14.138     | 16.931     |  80.9 | 77.07
Output  | 0.0080314  | 0.015254   | 0.022279   |   3.7 |  0.08
Modify  | 0.63922    | 2.0708     | 8.9829     | 182.4 | 11.29
Other   |            | 0.5947     |            |       |  3.24

Nlocal:        7.51562 ave          44 max           0 min
Histogram: 43 5 1 0 2 4 5 2 1 1
Nghost:        1817.98 ave        2410 max        1280 min
Histogram: 16 0 0 0 32 0 0 0 0 16
Neighs:              0 ave           0 max           0 min
Histogram: 64 0 0 0 0 0 0 0 0 0

Total # of neighbors = 0
Ave neighs/atom = 0
Ave special neighs/atom = 15.567568
Neighbor list builds = 113
Dangerous builds = 0
unfix           myat1
next            cpt
jump            SELF loop

Total wall time: 0:18:24
