# --- log file ---

variable pre equal 112 # desired pressure (Atm)
variable tem equal 300 # desired temperature (K)

variable k1 equal 1.3 # spring constant
variable k2 equal 3.5 # spring constant

units real
atom_style molecular
boundary p p p
neighbor 1.0 bin
neigh_modify delay 3 one 6000
bond_style harmonic
angle_style harmonic
dihedral_style opls
improper_style harmonic
pair_style hybrid lj/cut 14 sg 15 cb 30 # Fluid-fluid interactions have a cutoff of 15 Å, fluid-solid interactions have a cutoff of 30 Å
# *--* C-C parameters *--*
bond_style harmonic
angle_style harmonic
dihedral_style opls
improper_style harmonic
# *--* C-C parameters *--*


# 2. Read the graphite platelet data file and define potentials parameters
read_data       ../geometry/carbonPlatelets/simulation_data/abpot_sys.data  extra/atom/types 1
Reading data file ...
  orthogonal box = (-30 -30 -30) to (30 30 30)
  4 by 4 by 4 MPI processor grid
  reading atoms ...
  480 atoms
  reading velocities ...
  480 velocities
  scanning bonds ...
  2 = max bonds/atom
  scanning angles ...
  3 = max angles/atom
  scanning dihedrals ...
  8 = max dihedrals/atom
  scanning impropers ...
  2 = max impropers/atom
  orthogonal box = (-30 -30 -30) to (30 30 30)
  4 by 4 by 4 MPI processor grid
  reading bonds ...
  676 bonds
  reading angles ...
  1268 angles
  reading dihedrals ...
  2394 dihedrals
  reading impropers ...
  396 impropers
Finding 1-2 1-3 1-4 neighbors ...
  special bond factors lj:    0        0        0       
  special bond factors coul:  0        0        0       
     3 = max # of 1-2 neighbors
     6 = max # of 1-3 neighbors
    18 = max # of 1-4 neighbors
    18 = max # of special neighbors
  special bonds CPU = 0.003 seconds
  read_data CPU = 0.051 seconds
include         PARM.lammps

#////////////////////////////////////////////////////////////////////////////////////////////////////////////////////////////////
#//     Filename: PARM.lammps
#//     File Type: LAMMPS input script
#//     Description: This script defines the parameters for the simulation of hydrogen absorption in graphite platelets.
#//     Author: Edoardo Cabiati
#//     Date: 2024-07-27
#////////////////////////////////////////////////////////////////////////////////////////////////////////////////////////////////

mass 2 2.016 # For now at least, in accordance with the paper by Wang and Johnson,
             # 1998, the hydrogen atoms are regarded as simple spherical atoms

# //////////////////////////////////////    C-C potentials    //////////////////////////////////////
pair_coeff 1 1 lj/cut 0.066 3.4
bond_coeff 1 469 1.4
angle_coeff 1 63 120
dihedral_coeff 1 0 7.25 0 0
improper_coeff 1 5 180
special_bonds lj 0.0 0.0 0.5
Finding 1-2 1-3 1-4 neighbors ...
  special bond factors lj:    0        0        0.5     
  special bond factors coul:  0        0        0       
     3 = max # of 1-2 neighbors
     6 = max # of 1-3 neighbors
    18 = max # of 1-4 neighbors
    18 = max # of special neighbors
  special bonds CPU = 0.001 seconds
# //////////////////////////////////////    C-C potentials    //////////////////////////////////////
# -------------------------------------------------------------------------------------------------
# //////////////////////////////////////    H-H potentials    //////////////////////////////////////
variable alpha equal 1.713          #|
variable sigma equal 1.567          #|
variable gamma equal 0.00993        #|
variable c6 equal 12.14             #|      The parameters are all in atomic units, the conversion to kcal/mol
variable c8 equal 215.2             #|      is performed in the pair_sg.cpp file
variable c9 equal 143.1             #|
variable c10 equal 4813.9           #|
variable rc equal 8.321             #|
pair_coeff 2 2 sg ${alpha} ${sigma} ${gamma} ${c6} ${c8} ${c9} ${c10} ${rc} # H-H potentials
pair_coeff 2 2 sg 1.713 ${sigma} ${gamma} ${c6} ${c8} ${c9} ${c10} ${rc} 
pair_coeff 2 2 sg 1.713 1.567 ${gamma} ${c6} ${c8} ${c9} ${c10} ${rc} 
pair_coeff 2 2 sg 1.713 1.567 0.00993 ${c6} ${c8} ${c9} ${c10} ${rc} 
pair_coeff 2 2 sg 1.713 1.567 0.00993 12.14 ${c8} ${c9} ${c10} ${rc} 
pair_coeff 2 2 sg 1.713 1.567 0.00993 12.14 215.2 ${c9} ${c10} ${rc} 
pair_coeff 2 2 sg 1.713 1.567 0.00993 12.14 215.2 143.1 ${c10} ${rc} 
pair_coeff 2 2 sg 1.713 1.567 0.00993 12.14 215.2 143.1 4813.9 ${rc} 
pair_coeff 2 2 sg 1.713 1.567 0.00993 12.14 215.2 143.1 4813.9 8.321 
#pair_coeff 2 2 sg 1.713 1.567 0.00993 12.14 215.2 143.1 4813.9 8.321 # H-H potentials
# //////////////////////////////////////    H-H potentials    //////////////////////////////////////
# -------------------------------------------------------------------------------------------------
# //////////////////////////////////////    C-H potentials    //////////////////////////////////////
# Parameters taken from the paper by Wang and Johnson, 1998
variable sigma_CC equal 3.43 # Å
variable sigma_HH equal 3.075 # Å
variable sigma_CH_geo equal sqrt(${sigma_CC}*${sigma_HH}) # Å
variable sigma_CH_geo equal sqrt(3.43*${sigma_HH}) 
variable sigma_CH_geo equal sqrt(3.43*3.075) 
variable sigma_CH_arit equal 0.5*(${sigma_CC}+${sigma_HH}) # Å
variable sigma_CH_arit equal 0.5*(3.43+${sigma_HH}) 
variable sigma_CH_arit equal 0.5*(3.43+3.075) 

variable P_par equal 0.57 # Å^3
variable P_perp equal 1.995 # Å^3
variable P_h equal 0.81 # Å^3
variable E_h equal 2.337e5*(1/503.23) # K * 1/503.23 kcal/mol/K = kcal/mol
variable E_c equal 1.39254e5*(1/503.23) # K * 1/503.23 kcal/mol/K = kcal/mol

variable epsilon equal 4*(5/11)*v_E_h*v_E_c*v_P_h*(v_P_par+v_P_perp/2)/(v_sigma_CH_geo^6*(v_E_h+v_E_c)) # kcal/mol
# The formula taken from paper by Wang and Johnson, 1998 to construct epsilon does not seem to be consistent with the
# results obtained from the LAMMPS simulation. We will be using the value of epsilon obtained from the simplified
# version of the CB potential as 12-6 lennard-jones potential, presented in the paper "Theoretical investigation of the
# effect of graphite interlayer spacing on hydrogen absorption" by Rachel S. Aga, C. L. Fu, Maja Krčmar, and James R. Morris.
variable epsilon_sub equal 4*0.085094 # kcal/mol
variable sigma equal 2.97 # Å

pair_coeff 1 2 cb ${epsilon_sub} ${sigma} ${P_par} ${P_perp} # C-H potential
pair_coeff 1 2 cb 0.340376 ${sigma} ${P_par} ${P_perp} 
pair_coeff 1 2 cb 0.340376 2.97 ${P_par} ${P_perp} 
pair_coeff 1 2 cb 0.340376 2.97 0.57 ${P_perp} 
pair_coeff 1 2 cb 0.340376 2.97 0.57 1.995 
#pair_coeff 1 2 lj/cut 0.3025 2.065
# //////////////////////////////////////    C-H potentials    //////////////////////////////////////

# 3. Add a single hydrogen molecule to the system, close to the center of the first platelet
create_atoms    2 single 0 0 -2
Created 1 atoms
  using lattice units in orthogonal box = (-30 -30 -30) to (30 30 30)
  create_atoms CPU = 0.000 seconds

group           C type 1
480 atoms in group C
group           H2 type 2
1 atoms in group H2

# 4. Equilibration
timestep        0.05
fix             mytth1 C spring/self ${k2} # Apply a spring force to the carbon atoms
fix             mytth1 C spring/self 3.5 
velocity        all create ${tem} 48 rot yes mom yes dist gaussian # Initialize velocities
velocity        all create 300 48 rot yes mom yes dist gaussian 
fix             mynpt all npt temp ${tem} ${tem} 100 x ${pre} ${pre} 1000 y ${pre} ${pre} 1000 # Apply NPT ensemble to the system
fix             mynpt all npt temp 300 ${tem} 100 x ${pre} ${pre} 1000 y ${pre} ${pre} 1000 
fix             mynpt all npt temp 300 300 100 x ${pre} ${pre} 1000 y ${pre} ${pre} 1000 
fix             mynpt all npt temp 300 300 100 x 112 ${pre} 1000 y ${pre} ${pre} 1000 
fix             mynpt all npt temp 300 300 100 x 112 112 1000 y ${pre} ${pre} 1000 
fix             mynpt all npt temp 300 300 100 x 112 112 1000 y 112 ${pre} 1000 
fix             mynpt all npt temp 300 300 100 x 112 112 1000 y 112 112 1000 

thermo          10000
dump            dump all atom 1000 simulation_data/absorption_pot.lammpstrj

run             20000

CITE-CITE-CITE-CITE-CITE-CITE-CITE-CITE-CITE-CITE-CITE-CITE-CITE

Your simulation uses code contributions which should be cited:

- Type Label Framework: https://doi.org/10.1021/acs.jpcb.3c08419

@Article{Gissinger24,
 author = {Jacob R. Gissinger, Ilia Nikiforov, Yaser Afshar, Brendon Waters, Moon-ki Choi, Daniel S. Karls, Alexander Stukowski, Wonpil Im, Hendrik Heinz, Axel Kohlmeyer, and Ellad B. Tadmor},
 title = {Type Label Framework for Bonded Force Fields in LAMMPS},
 journal = {J. Phys. Chem. B},
 year =    2024,
 volume =  128,
 number =  13,
 pages =   {3282–-3297}
}

CITE-CITE-CITE-CITE-CITE-CITE-CITE-CITE-CITE-CITE-CITE-CITE-CITE

Generated 0 of 1 mixed pair_coeff terms from geometric mixing rule
Neighbor list info ...
  update: every = 1 steps, delay = 3 steps, check = yes
  max neighbors/atom: 6000, page size: 100000
  master list distance cutoff = 31
  ghost atom cutoff = 31
  binsize = 15.5, bins = 4 4 4
  4 neighbor lists, perpetual/occasional/extra = 4 0 0
  (1) pair lj/cut, perpetual, skip trim from (4)
      attributes: half, newton on, cut 15
      pair build: skip/trim
      stencil: none
      bin: none
  (2) pair sg, perpetual, skip trim from (4)
      attributes: half, newton on, cut 16
      pair build: skip/trim
      stencil: none
      bin: none
  (3) pair cb, perpetual, skip from (4)
      attributes: half, newton on
      pair build: skip
      stencil: none
      bin: none
  (4) neighbor class addition, perpetual
      attributes: half, newton on
      pair build: half/bin/newton
      stencil: half/bin/3d
      bin: standard
Per MPI rank memory allocation (min/avg/max) = 13.29 | 13.4 | 13.93 Mbytes
   Step          Temp          E_pair         E_mol          TotEng         Press          Volume    
         0   300            308.5124       19603.922      20341.671     -432.43506      216000       
     10000   308.71881      373.71132      18568.425      19383.847     -313.89117      172136.83    
     20000   319.74694      375.11214      18539.114      19371.717     -417.40409      126541.73    
Loop time of 7.56145 on 64 procs for 20000 steps with 481 atoms

Performance: 11.426 ns/day, 2.100 hours/ns, 2644.994 timesteps/s, 1.272 Matom-step/s
99.8% CPU use with 64 MPI tasks x 1 OpenMP threads

MPI task timing breakdown:
Section |  min time  |  avg time  |  max time  |%varavg| %total
---------------------------------------------------------------
Pair    | 0.13438    | 0.43268    | 2.1303     |  67.9 |  5.72
Bond    | 0.0038199  | 0.34421    | 1.8879     | 100.7 |  4.55
Neigh   | 0.018929   | 0.021924   | 0.024416   |   1.0 |  0.29
Comm    | 2.8633     | 4.3831     | 5.3692     |  40.0 | 57.97
Output  | 0.0034352  | 0.010216   | 0.018014   |   4.6 |  0.14
Modify  | 0.72691    | 2.0483     | 4.0976     |  71.9 | 27.09
Other   |            | 0.321      |            |       |  4.25

Nlocal:        7.51562 ave          36 max           0 min
Histogram: 41 7 0 0 0 1 2 9 3 1
Nghost:        1804.95 ave        2371 max        1288 min
Histogram: 16 0 0 0 32 0 0 0 0 16
Neighs:              0 ave           0 max           0 min
Histogram: 64 0 0 0 0 0 0 0 0 0

Total # of neighbors = 0
Ave neighs/atom = 0
Ave special neighs/atom = 15.567568
Neighbor list builds = 52
Dangerous builds = 0
unfix           mynpt
unfix           mytth1

# 5. Umbrella sampling
fix             mynvt all nvt temp ${tem} ${tem} 100
fix             mynvt all nvt temp 300 ${tem} 100
fix             mynvt all nvt temp 300 300 100
fix             mytth1 C spring/self ${k2}
fix             mytth1 C spring/self 3.5

variable        cpt loop 51
label           loop
variable        zdes equal  -15+0.60*(${cpt}-1)
variable        zdes equal  -15+0.60*(1-1)
variable        zave equal xcm(H2,z)
fix             mytth2 H2 spring tether ${k1} 2.5 2.5 ${zdes} 0
fix             mytth2 H2 spring tether 1.3 2.5 2.5 ${zdes} 0
fix             mytth2 H2 spring tether 1.3 2.5 2.5 -15 0
run             10000
Generated 0 of 1 mixed pair_coeff terms from geometric mixing rule
Per MPI rank memory allocation (min/avg/max) = 13.32 | 13.62 | 14.95 Mbytes
   Step          Temp          E_pair         E_mol          TotEng         Press     
     20000   319.74694      375.11214      18539.114      19371.717     -417.40409    
     30000   292.60992      349.09143      18585.73       19353.484     -1146.5992    
Loop time of 3.68631 on 64 procs for 10000 steps with 481 atoms

Performance: 11.719 ns/day, 2.048 hours/ns, 2712.740 timesteps/s, 1.305 Matom-step/s
100.0% CPU use with 64 MPI tasks x 1 OpenMP threads

MPI task timing breakdown:
Section |  min time  |  avg time  |  max time  |%varavg| %total
---------------------------------------------------------------
Pair    | 0.0034898  | 0.13102    | 0.85429    |  61.7 |  3.55
Bond    | 0.0010557  | 0.15426    | 0.76418    |  64.0 |  4.18
Neigh   | 0.046313   | 0.051953   | 0.057843   |   1.2 |  1.41
Comm    | 1.5518     | 2.7663     | 3.3409     |  37.0 | 75.04
Output  | 0.0019487  | 0.0045919  | 0.007496   |   2.6 |  0.12
Modify  | 0.1392     | 0.45295    | 1.9474     |  84.5 | 12.29
Other   |            | 0.1252     |            |       |  3.40

Nlocal:        7.51562 ave          38 max           0 min
Histogram: 41 7 0 0 1 4 3 6 1 1
Nghost:        1804.95 ave        2374 max        1286 min
Histogram: 16 0 0 0 32 0 0 0 0 16
Neighs:              0 ave           0 max           0 min
Histogram: 64 0 0 0 0 0 0 0 0 0

Total # of neighbors = 0
Ave neighs/atom = 0
Ave special neighs/atom = 15.567568
Neighbor list builds = 130
Dangerous builds = 0
fix             myat1 all ave/time 1000 10 10000 v_zave v_zdes file simulation_data/abpot/${cpt}.dat
fix             myat1 all ave/time 1000 10 10000 v_zave v_zdes file simulation_data/abpot/1.dat
run             50000
Generated 0 of 1 mixed pair_coeff terms from geometric mixing rule
Per MPI rank memory allocation (min/avg/max) = 13.32 | 13.62 | 14.95 Mbytes
   Step          Temp          E_pair         E_mol          TotEng         Press     
     30000   292.60992      349.09143      18585.73       19353.484     -1146.5992    
     40000   303.91064      411.06862      18506.32       19352.22       615.72752    
     50000   288.69283      402.23884      18527.442      19342.739      241.5691     
     60000   326.31993      377.4929       18586.699      19431.087     -289.25477    
     70000   334.36473      387.4403       18515.508      19381.354     -94.518834    
     80000   303.63303      397.72955      18536.162      19368.326      230.54561    
Loop time of 18.3818 on 64 procs for 50000 steps with 481 atoms

Performance: 11.751 ns/day, 2.042 hours/ns, 2720.087 timesteps/s, 1.308 Matom-step/s
100.0% CPU use with 64 MPI tasks x 1 OpenMP threads

MPI task timing breakdown:
Section |  min time  |  avg time  |  max time  |%varavg| %total
---------------------------------------------------------------
Pair    | 0.01638    | 0.64904    | 4.1284     | 139.1 |  3.53
Bond    | 0.0052782  | 0.77062    | 3.8976     | 144.3 |  4.19
Neigh   | 0.17539    | 0.19559    | 0.2165     |   2.2 |  1.06
Comm    | 7.649      | 13.832     | 16.756     |  83.6 | 75.25
Output  | 0.0073306  | 0.01747    | 0.027873   |   5.0 |  0.10
Modify  | 0.68889    | 2.2971     | 9.8668     | 189.7 | 12.50
Other   |            | 0.6201     |            |       |  3.37

Nlocal:        7.51562 ave          33 max           0 min
Histogram: 41 6 1 0 0 0 1 5 8 2
Nghost:        1822.77 ave        2411 max        1292 min
Histogram: 16 0 0 0 32 0 0 0 0 16
Neighs:              0 ave           0 max           0 min
Histogram: 64 0 0 0 0 0 0 0 0 0

Total # of neighbors = 0
Ave neighs/atom = 0
Ave special neighs/atom = 15.567568
Neighbor list builds = 472
Dangerous builds = 0
unfix           myat1
next            cpt
jump            SELF loop
variable        zdes equal  -15+0.60*(${cpt}-1)
variable        zdes equal  -15+0.60*(2-1)
variable        zave equal xcm(H2,z)
fix             mytth2 H2 spring tether ${k1} 2.5 2.5 ${zdes} 0
fix             mytth2 H2 spring tether 1.3 2.5 2.5 ${zdes} 0
fix             mytth2 H2 spring tether 1.3 2.5 2.5 -14.4 0
run             10000
Generated 0 of 1 mixed pair_coeff terms from geometric mixing rule
Per MPI rank memory allocation (min/avg/max) = 13.32 | 13.62 | 14.95 Mbytes
   Step          Temp          E_pair         E_mol          TotEng         Press     
     80000   303.63303      397.72955      18536.162      19368.326      230.54561    
     90000   280.95857      385.09993      18557.64       19344.732     -210.71063    
Loop time of 3.51337 on 64 procs for 10000 steps with 481 atoms

Performance: 12.296 ns/day, 1.952 hours/ns, 2846.269 timesteps/s, 1.369 Matom-step/s
100.0% CPU use with 64 MPI tasks x 1 OpenMP threads

MPI task timing breakdown:
Section |  min time  |  avg time  |  max time  |%varavg| %total
---------------------------------------------------------------
Pair    | 0.0033098  | 0.12849    | 0.74605    |  60.7 |  3.66
Bond    | 0.0010563  | 0.15363    | 0.74232    |  64.1 |  4.37
Neigh   | 0.020626   | 0.023092   | 0.025681   |   0.8 |  0.66
Comm    | 1.5264     | 2.6437     | 3.2106     |  35.6 | 75.25
Output  | 0.0017397  | 0.0033897  | 0.0050654  |   1.8 |  0.10
Modify  | 0.1315     | 0.43747    | 1.8287     |  78.8 | 12.45
Other   |            | 0.1236     |            |       |  3.52

Nlocal:        7.51562 ave          30 max           0 min
Histogram: 42 2 3 1 0 0 0 1 6 9
Nghost:        1820.42 ave        2409 max        1295 min
Histogram: 16 0 0 0 32 0 0 0 0 16
Neighs:              0 ave           0 max           0 min
Histogram: 64 0 0 0 0 0 0 0 0 0

Total # of neighbors = 0
Ave neighs/atom = 0
Ave special neighs/atom = 15.567568
Neighbor list builds = 57
Dangerous builds = 0
fix             myat1 all ave/time 1000 10 10000 v_zave v_zdes file simulation_data/abpot/${cpt}.dat
fix             myat1 all ave/time 1000 10 10000 v_zave v_zdes file simulation_data/abpot/2.dat
run             50000
Generated 0 of 1 mixed pair_coeff terms from geometric mixing rule
Per MPI rank memory allocation (min/avg/max) = 13.32 | 13.62 | 14.95 Mbytes
   Step          Temp          E_pair         E_mol          TotEng         Press     
     90000   280.95857      385.09993      18557.64       19344.732     -210.71063    
    100000   303.27832      384.5561       18524.196      19342.679     -35.54081     
    110000   299.84918      391.46223      18528.17       19348.653      165.18137    
    120000   302.08973      386.34837      18563.266      19381.841     -151.59876    
    130000   296.26348      372.57744      18572.28       19368.748     -388.34065    
    140000   288.13496      385.02351      18555.117      19352.401     -93.640461    
Loop time of 16.6312 on 64 procs for 50000 steps with 481 atoms

Performance: 12.988 ns/day, 1.848 hours/ns, 3006.392 timesteps/s, 1.446 Matom-step/s
100.0% CPU use with 64 MPI tasks x 1 OpenMP threads

MPI task timing breakdown:
Section |  min time  |  avg time  |  max time  |%varavg| %total
---------------------------------------------------------------
Pair    | 0.016715   | 0.63754    | 3.4509     | 132.8 |  3.83
Bond    | 0.0052507  | 0.77156    | 3.9509     | 144.2 |  4.64
Neigh   | 0.063366   | 0.070727   | 0.07843    |   1.4 |  0.43
Comm    | 7.657      | 12.519     | 15.179     |  77.5 | 75.28
Output  | 0.0072431  | 0.014879   | 0.022404   |   4.0 |  0.09
Modify  | 0.65284    | 1.9946     | 8.2008     | 166.0 | 11.99
Other   |            | 0.6225     |            |       |  3.74

Nlocal:        7.51562 ave          35 max           0 min
Histogram: 41 6 1 0 0 2 4 2 3 5
Nghost:        1819.39 ave        2405 max        1289 min
Histogram: 16 0 0 0 32 0 0 0 0 16
Neighs:              0 ave           0 max           0 min
Histogram: 64 0 0 0 0 0 0 0 0 0

Total # of neighbors = 0
Ave neighs/atom = 0
Ave special neighs/atom = 15.567568
Neighbor list builds = 172
Dangerous builds = 0
unfix           myat1
next            cpt
jump            SELF loop
variable        zdes equal  -15+0.60*(${cpt}-1)
variable        zdes equal  -15+0.60*(3-1)
variable        zave equal xcm(H2,z)
fix             mytth2 H2 spring tether ${k1} 2.5 2.5 ${zdes} 0
fix             mytth2 H2 spring tether 1.3 2.5 2.5 ${zdes} 0
fix             mytth2 H2 spring tether 1.3 2.5 2.5 -13.8 0
run             10000
Generated 0 of 1 mixed pair_coeff terms from geometric mixing rule
Per MPI rank memory allocation (min/avg/max) = 13.32 | 13.62 | 14.95 Mbytes
   Step          Temp          E_pair         E_mol          TotEng         Press     
    140000   288.13496      385.02351      18555.117      19352.401     -93.640461    
    150000   286.34407      393.89606      18501.404      19304.998      234.52376    
Loop time of 3.31804 on 64 procs for 10000 steps with 481 atoms

Performance: 13.020 ns/day, 1.843 hours/ns, 3013.829 timesteps/s, 1.450 Matom-step/s
100.0% CPU use with 64 MPI tasks x 1 OpenMP threads

MPI task timing breakdown:
Section |  min time  |  avg time  |  max time  |%varavg| %total
---------------------------------------------------------------
Pair    | 0.0033148  | 0.1279     | 0.66518    |  59.1 |  3.85
Bond    | 0.0010482  | 0.15474    | 0.82414    |  64.6 |  4.66
Neigh   | 0.01324    | 0.014788   | 0.016387   |   0.6 |  0.45
Comm    | 1.5199     | 2.4978     | 3.0265     |  34.6 | 75.28
Output  | 0.0014501  | 0.0029073  | 0.0043635  |   1.7 |  0.09
Modify  | 0.13       | 0.39583    | 1.6476     |  73.9 | 11.93
Other   |            | 0.124      |            |       |  3.74

Nlocal:        7.51562 ave          37 max           0 min
Histogram: 41 6 1 0 1 1 6 1 5 2
Nghost:         1822.2 ave        2412 max        1288 min
Histogram: 16 0 0 0 32 0 0 0 0 16
Neighs:              0 ave           0 max           0 min
Histogram: 64 0 0 0 0 0 0 0 0 0

Total # of neighbors = 0
Ave neighs/atom = 0
Ave special neighs/atom = 15.567568
Neighbor list builds = 35
Dangerous builds = 0
fix             myat1 all ave/time 1000 10 10000 v_zave v_zdes file simulation_data/abpot/${cpt}.dat
fix             myat1 all ave/time 1000 10 10000 v_zave v_zdes file simulation_data/abpot/3.dat
run             50000
Generated 0 of 1 mixed pair_coeff terms from geometric mixing rule
Per MPI rank memory allocation (min/avg/max) = 13.32 | 13.62 | 14.95 Mbytes
   Step          Temp          E_pair         E_mol          TotEng         Press     
    150000   286.34407      393.89606      18501.404      19304.998      234.52376    
    160000   312.50918      390.00916      18533.554      19370.698      152.97056    
    170000   317.85157      387.31544      18540.664      19382.758      45.410413    
    180000   322.70623      387.78812      18546.739      19396.252      34.245667    
    190000   317.5816       382.58289      18567.173      19404.148     -227.7861     
    200000   279.15371      379.35983      18577.901      19356.671     -270.08303    
Loop time of 16.4997 on 64 procs for 50000 steps with 481 atoms

Performance: 13.091 ns/day, 1.833 hours/ns, 3030.359 timesteps/s, 1.458 Matom-step/s
100.0% CPU use with 64 MPI tasks x 1 OpenMP threads

MPI task timing breakdown:
Section |  min time  |  avg time  |  max time  |%varavg| %total
---------------------------------------------------------------
Pair    | 0.016937   | 0.63553    | 3.5168     | 132.8 |  3.85
Bond    | 0.0052592  | 0.7721     | 4.1429     | 144.7 |  4.68
Neigh   | 0.038198   | 0.042736   | 0.047368   |   1.0 |  0.26
Comm    | 7.6147     | 12.435     | 15.06      |  77.7 | 75.37
Output  | 0.0071754  | 0.014294   | 0.02123    |   3.8 |  0.09
Modify  | 0.66649    | 1.9781     | 8.1596     | 165.3 | 11.99
Other   |            | 0.6218     |            |       |  3.77

Nlocal:        7.51562 ave          32 max           0 min
Histogram: 41 6 1 0 0 0 1 4 6 5
Nghost:        1820.61 ave        2412 max        1292 min
Histogram: 16 0 0 0 32 0 0 0 0 16
Neighs:              0 ave           0 max           0 min
Histogram: 64 0 0 0 0 0 0 0 0 0

Total # of neighbors = 0
Ave neighs/atom = 0
Ave special neighs/atom = 15.567568
Neighbor list builds = 103
Dangerous builds = 0
unfix           myat1
next            cpt
jump            SELF loop
variable        zdes equal  -15+0.60*(${cpt}-1)
variable        zdes equal  -15+0.60*(4-1)
variable        zave equal xcm(H2,z)
fix             mytth2 H2 spring tether ${k1} 2.5 2.5 ${zdes} 0
fix             mytth2 H2 spring tether 1.3 2.5 2.5 ${zdes} 0
fix             mytth2 H2 spring tether 1.3 2.5 2.5 -13.2 0
run             10000
Generated 0 of 1 mixed pair_coeff terms from geometric mixing rule
Per MPI rank memory allocation (min/avg/max) = 13.32 | 13.62 | 14.95 Mbytes
   Step          Temp          E_pair         E_mol          TotEng         Press     
    200000   279.15371      379.35983      18577.901      19356.671     -270.08303    
    210000   297.2412       391.67426      18530.926      19347.89       156.19224    
Loop time of 3.37727 on 64 procs for 10000 steps with 481 atoms

Performance: 12.791 ns/day, 1.876 hours/ns, 2960.975 timesteps/s, 1.424 Matom-step/s
100.0% CPU use with 64 MPI tasks x 1 OpenMP threads

MPI task timing breakdown:
Section |  min time  |  avg time  |  max time  |%varavg| %total
---------------------------------------------------------------
Pair    | 0.0033478  | 0.12695    | 0.69883    |  59.5 |  3.76
Bond    | 0.0010535  | 0.15433    | 0.86491    |  64.9 |  4.57
Neigh   | 0.0096357  | 0.010783   | 0.011928   |   0.5 |  0.32
Comm    | 1.5191     | 2.551      | 3.0936     |  35.5 | 75.53
Output  | 0.0014793  | 0.0028813  | 0.0042762  |   1.7 |  0.09
Modify  | 0.12857    | 0.40786    | 1.7121     |  77.6 | 12.08
Other   |            | 0.1235     |            |       |  3.66

Nlocal:        7.51562 ave          38 max           0 min
Histogram: 41 6 1 0 0 1 5 8 1 1
Nghost:        1821.64 ave        2415 max        1286 min
Histogram: 16 0 0 0 32 0 0 0 0 16
Neighs:              0 ave           0 max           0 min
Histogram: 64 0 0 0 0 0 0 0 0 0

Total # of neighbors = 0
Ave neighs/atom = 0
Ave special neighs/atom = 15.567568
Neighbor list builds = 25
Dangerous builds = 0
fix             myat1 all ave/time 1000 10 10000 v_zave v_zdes file simulation_data/abpot/${cpt}.dat
fix             myat1 all ave/time 1000 10 10000 v_zave v_zdes file simulation_data/abpot/4.dat
run             50000
Generated 0 of 1 mixed pair_coeff terms from geometric mixing rule
Per MPI rank memory allocation (min/avg/max) = 13.32 | 13.62 | 14.95 Mbytes
   Step          Temp          E_pair         E_mol          TotEng         Press     
    210000   297.2412       391.67426      18530.926      19347.89       156.19224    
    220000   291.44714      385.211        18549.034      19351.245      6.3825431    
    230000   295.81933      381.12865      18560.869      19365.253     -82.710703    
    240000   301.15906      385.17973      18565.44       19381.515      40.458347    
    250000   314.55309      398.80472      18551.263      19400.127      252.03755    
    260000   311.8661       383.41707      18542.989      19372.621     -34.363646    
Loop time of 16.4613 on 64 procs for 50000 steps with 481 atoms

Performance: 13.122 ns/day, 1.829 hours/ns, 3037.429 timesteps/s, 1.461 Matom-step/s
100.0% CPU use with 64 MPI tasks x 1 OpenMP threads

MPI task timing breakdown:
Section |  min time  |  avg time  |  max time  |%varavg| %total
---------------------------------------------------------------
Pair    | 0.016737   | 0.63545    | 3.4583     | 132.7 |  3.86
Bond    | 0.005277   | 0.7728     | 4.2384     | 145.3 |  4.69
Neigh   | 0.043471   | 0.048904   | 0.05448    |   1.2 |  0.30
Comm    | 7.5854     | 12.404     | 15.026     |  77.6 | 75.35
Output  | 0.0072153  | 0.014176   | 0.020933   |   3.7 |  0.09
Modify  | 0.65747    | 1.9651     | 8.1464     | 164.7 | 11.94
Other   |            | 0.6213     |            |       |  3.77

Nlocal:        7.51562 ave          36 max           0 min
Histogram: 42 5 1 0 0 1 3 7 3 2
Nghost:        1818.55 ave        2408 max        1288 min
Histogram: 16 0 0 0 32 0 0 0 0 16
Neighs:              0 ave           0 max           0 min
Histogram: 64 0 0 0 0 0 0 0 0 0

Total # of neighbors = 0
Ave neighs/atom = 0
Ave special neighs/atom = 15.567568
Neighbor list builds = 119
Dangerous builds = 0
unfix           myat1
next            cpt
jump            SELF loop
variable        zdes equal  -15+0.60*(${cpt}-1)
variable        zdes equal  -15+0.60*(5-1)
variable        zave equal xcm(H2,z)
fix             mytth2 H2 spring tether ${k1} 2.5 2.5 ${zdes} 0
fix             mytth2 H2 spring tether 1.3 2.5 2.5 ${zdes} 0
fix             mytth2 H2 spring tether 1.3 2.5 2.5 -12.6 0
run             10000
Generated 0 of 1 mixed pair_coeff terms from geometric mixing rule
Per MPI rank memory allocation (min/avg/max) = 13.32 | 13.62 | 14.95 Mbytes
   Step          Temp          E_pair         E_mol          TotEng         Press     
    260000   311.8661       383.41707      18542.989      19372.621     -34.363646    
    270000   287.09435      380.52148      18554.802      19346.095     -178.15741    
Loop time of 3.33262 on 64 procs for 10000 steps with 481 atoms

Performance: 12.963 ns/day, 1.851 hours/ns, 3000.640 timesteps/s, 1.443 Matom-step/s
100.0% CPU use with 64 MPI tasks x 1 OpenMP threads

MPI task timing breakdown:
Section |  min time  |  avg time  |  max time  |%varavg| %total
---------------------------------------------------------------
Pair    | 0.0033806  | 0.12731    | 0.74302    |  59.7 |  3.82
Bond    | 0.0010558  | 0.15449    | 0.87954    |  65.0 |  4.64
Neigh   | 0.0068502  | 0.0076211  | 0.0084763  |   0.4 |  0.23
Comm    | 1.5137     | 2.523      | 3.0549     |  35.3 | 75.70
Output  | 0.0013839  | 0.00277    | 0.0041561  |   1.7 |  0.08
Modify  | 0.12577    | 0.39451    | 1.6761     |  76.5 | 11.84
Other   |            | 0.123      |            |       |  3.69

Nlocal:        7.51562 ave          36 max           0 min
Histogram: 41 7 0 0 1 0 6 2 5 2
Nghost:        1814.98 ave        2399 max        1290 min
Histogram: 16 0 0 0 32 0 0 0 0 16
Neighs:              0 ave           0 max           0 min
Histogram: 64 0 0 0 0 0 0 0 0 0

Total # of neighbors = 0
Ave neighs/atom = 0
Ave special neighs/atom = 15.567568
Neighbor list builds = 18
Dangerous builds = 0
fix             myat1 all ave/time 1000 10 10000 v_zave v_zdes file simulation_data/abpot/${cpt}.dat
fix             myat1 all ave/time 1000 10 10000 v_zave v_zdes file simulation_data/abpot/5.dat
run             50000
Generated 0 of 1 mixed pair_coeff terms from geometric mixing rule
Per MPI rank memory allocation (min/avg/max) = 13.32 | 13.62 | 14.95 Mbytes
   Step          Temp          E_pair         E_mol          TotEng         Press     
    270000   287.09435      380.52148      18554.802      19346.095     -178.15741    
    280000   297.86415      381.82304      18552.772      19360.776     -274.80306    
    290000   340.06546      394.00062      18519.924      19400.487      231.68375    
    300000   288.59182      384.50472      18548.636      19346.055     -126.48287    
    310000   292.87851      383.17078      18547.319      19349.537     -147.94267    
    320000   292.44495      389.7159       18529.54       19337.683      92.028925    
Loop time of 16.5926 on 64 procs for 50000 steps with 481 atoms

Performance: 13.018 ns/day, 1.844 hours/ns, 3013.391 timesteps/s, 1.449 Matom-step/s
100.0% CPU use with 64 MPI tasks x 1 OpenMP threads

MPI task timing breakdown:
Section |  min time  |  avg time  |  max time  |%varavg| %total
---------------------------------------------------------------
Pair    | 0.016441   | 0.63698    | 3.6269     | 133.4 |  3.84
Bond    | 0.0052676  | 0.77321    | 4.0951     | 145.2 |  4.66
Neigh   | 0.036826   | 0.041178   | 0.045703   |   1.0 |  0.25
Comm    | 7.6462     | 12.528     | 15.174     |  78.0 | 75.51
Output  | 0.007144   | 0.014128   | 0.020904   |   3.7 |  0.09
Modify  | 0.64127    | 1.9789     | 8.2248     | 166.9 | 11.93
Other   |            | 0.6197     |            |       |  3.73

Nlocal:        7.51562 ave          34 max           0 min
Histogram: 41 6 1 0 0 0 2 7 4 3
Nghost:        1821.17 ave        2415 max        1290 min
Histogram: 16 0 0 0 32 0 0 0 0 16
Neighs:              0 ave           0 max           0 min
Histogram: 64 0 0 0 0 0 0 0 0 0

Total # of neighbors = 0
Ave neighs/atom = 0
Ave special neighs/atom = 15.567568
Neighbor list builds = 98
Dangerous builds = 0
unfix           myat1
next            cpt
jump            SELF loop
variable        zdes equal  -15+0.60*(${cpt}-1)
variable        zdes equal  -15+0.60*(6-1)
variable        zave equal xcm(H2,z)
fix             mytth2 H2 spring tether ${k1} 2.5 2.5 ${zdes} 0
fix             mytth2 H2 spring tether 1.3 2.5 2.5 ${zdes} 0
fix             mytth2 H2 spring tether 1.3 2.5 2.5 -12 0
run             10000
Generated 0 of 1 mixed pair_coeff terms from geometric mixing rule
Per MPI rank memory allocation (min/avg/max) = 13.32 | 13.62 | 14.95 Mbytes
   Step          Temp          E_pair         E_mol          TotEng         Press     
    320000   292.44495      389.7159       18529.54       19337.683      92.028925    
    330000   287.09308      386.86202      18563.697      19361.328     -74.911461    
Loop time of 3.31769 on 64 procs for 10000 steps with 481 atoms

Performance: 13.021 ns/day, 1.843 hours/ns, 3014.149 timesteps/s, 1.450 Matom-step/s
100.0% CPU use with 64 MPI tasks x 1 OpenMP threads

MPI task timing breakdown:
Section |  min time  |  avg time  |  max time  |%varavg| %total
---------------------------------------------------------------
Pair    | 0.0032142  | 0.128      | 0.73187    |  59.9 |  3.86
Bond    | 0.0010527  | 0.15461    | 0.81179    |  64.8 |  4.66
Neigh   | 0.0047007  | 0.0052138  | 0.0057435  |   0.3 |  0.16
Comm    | 1.5156     | 2.5096     | 3.0368     |  35.2 | 75.64
Output  | 0.0014205  | 0.0027832  | 0.0041588  |   1.6 |  0.08
Modify  | 0.12926    | 0.39373    | 1.6606     |  75.5 | 11.87
Other   |            | 0.1238     |            |       |  3.73

Nlocal:        7.51562 ave          32 max           0 min
Histogram: 42 4 2 0 0 0 0 2 9 5
Nghost:        1822.86 ave        2414 max        1293 min
Histogram: 16 0 0 0 32 0 0 0 0 16
Neighs:              0 ave           0 max           0 min
Histogram: 64 0 0 0 0 0 0 0 0 0

Total # of neighbors = 0
Ave neighs/atom = 0
Ave special neighs/atom = 15.567568
Neighbor list builds = 12
Dangerous builds = 0
fix             myat1 all ave/time 1000 10 10000 v_zave v_zdes file simulation_data/abpot/${cpt}.dat
fix             myat1 all ave/time 1000 10 10000 v_zave v_zdes file simulation_data/abpot/6.dat
run             50000
Generated 0 of 1 mixed pair_coeff terms from geometric mixing rule
Per MPI rank memory allocation (min/avg/max) = 13.32 | 13.62 | 14.95 Mbytes
   Step          Temp          E_pair         E_mol          TotEng         Press     
    330000   287.09308      386.86202      18563.697      19361.328     -74.911461    
    340000   313.04727      387.89126      18542.6        19378.396     -71.977192    
    350000   306.11565      392.27342      18522.2        19352.46       150.91412    
    360000   278.28308      380.30658      18542.264      19320.735     -251.82398    
    370000   290.72962      379.31189      18532.368      19327.653     -252.23899    
    380000   298.73971      394.85063      18554.796      19377.08       262.976      
Loop time of 16.5193 on 64 procs for 50000 steps with 481 atoms

Performance: 13.076 ns/day, 1.835 hours/ns, 3026.769 timesteps/s, 1.456 Matom-step/s
100.0% CPU use with 64 MPI tasks x 1 OpenMP threads

MPI task timing breakdown:
Section |  min time  |  avg time  |  max time  |%varavg| %total
---------------------------------------------------------------
Pair    | 0.016106   | 0.63566    | 3.5842     | 133.0 |  3.85
Bond    | 0.0052566  | 0.77124    | 3.977      | 144.6 |  4.67
Neigh   | 0.027592   | 0.030781   | 0.034141   |   0.9 |  0.19
Comm    | 7.5825     | 12.499     | 15.112     |  78.0 | 75.66
Output  | 0.0070829  | 0.013975   | 0.020729   |   3.7 |  0.08
Modify  | 0.64234    | 1.9493     | 8.2224     | 167.7 | 11.80
Other   |            | 0.6196     |            |       |  3.75

Nlocal:        7.51562 ave          37 max           0 min
Histogram: 40 8 0 0 0 4 4 1 5 2
Nghost:        1823.52 ave        2427 max        1288 min
Histogram: 16 0 0 0 32 0 0 0 0 16
Neighs:              0 ave           0 max           0 min
Histogram: 64 0 0 0 0 0 0 0 0 0

Total # of neighbors = 0
Ave neighs/atom = 0
Ave special neighs/atom = 15.567568
Neighbor list builds = 73
Dangerous builds = 0
unfix           myat1
next            cpt
jump            SELF loop
variable        zdes equal  -15+0.60*(${cpt}-1)
variable        zdes equal  -15+0.60*(7-1)
variable        zave equal xcm(H2,z)
fix             mytth2 H2 spring tether ${k1} 2.5 2.5 ${zdes} 0
fix             mytth2 H2 spring tether 1.3 2.5 2.5 ${zdes} 0
fix             mytth2 H2 spring tether 1.3 2.5 2.5 -11.4 0
run             10000
Generated 0 of 1 mixed pair_coeff terms from geometric mixing rule
Per MPI rank memory allocation (min/avg/max) = 13.32 | 13.62 | 14.95 Mbytes
   Step          Temp          E_pair         E_mol          TotEng         Press     
    380000   298.73971      394.85063      18554.796      19377.08       262.976      
    390000   307.92046      387.44333      18537.083      19365.096      21.454224    
Loop time of 3.26133 on 64 procs for 10000 steps with 481 atoms

Performance: 13.246 ns/day, 1.812 hours/ns, 3066.234 timesteps/s, 1.475 Matom-step/s
100.0% CPU use with 64 MPI tasks x 1 OpenMP threads

MPI task timing breakdown:
Section |  min time  |  avg time  |  max time  |%varavg| %total
---------------------------------------------------------------
Pair    | 0.0032075  | 0.12784    | 0.7049     |  59.6 |  3.92
Bond    | 0.0010533  | 0.15504    | 0.76296    |  64.7 |  4.75
Neigh   | 0.0067331  | 0.0075929  | 0.0083964  |   0.5 |  0.23
Comm    | 1.5258     | 2.4495     | 2.9721     |  34.5 | 75.11
Output  | 0.0014258  | 0.0028131  | 0.004213   |   1.7 |  0.09
Modify  | 0.13161    | 0.3942     | 1.5915     |  71.6 | 12.09
Other   |            | 0.1243     |            |       |  3.81

Nlocal:        7.51562 ave          36 max           0 min
Histogram: 42 6 0 0 0 2 4 3 6 1
Nghost:        1825.95 ave        2420 max        1288 min
Histogram: 16 0 0 0 32 0 0 0 0 16
Neighs:              0 ave           0 max           0 min
Histogram: 64 0 0 0 0 0 0 0 0 0

Total # of neighbors = 0
Ave neighs/atom = 0
Ave special neighs/atom = 15.567568
Neighbor list builds = 19
Dangerous builds = 0
fix             myat1 all ave/time 1000 10 10000 v_zave v_zdes file simulation_data/abpot/${cpt}.dat
fix             myat1 all ave/time 1000 10 10000 v_zave v_zdes file simulation_data/abpot/7.dat
run             50000
Generated 0 of 1 mixed pair_coeff terms from geometric mixing rule
Per MPI rank memory allocation (min/avg/max) = 13.32 | 13.62 | 14.95 Mbytes
   Step          Temp          E_pair         E_mol          TotEng         Press     
    390000   307.92046      387.44333      18537.083      19365.096      21.454224    
    400000   290.10817      376.51916      18563.295      19354.898     -482.66313    
    410000   290.59024      383.30801      18553.414      19352.495     -83.958385    
    420000   314.13151      392.58258      18570.114      19412.153      91.001317    
    430000   306.14244      378.01493      18586.346      19402.386     -331.15281    
    440000   296.13937      378.40626      18561.565      19363.684     -289.27917    
Loop time of 16.3363 on 64 procs for 50000 steps with 481 atoms

Performance: 13.222 ns/day, 1.815 hours/ns, 3060.667 timesteps/s, 1.472 Matom-step/s
100.0% CPU use with 64 MPI tasks x 1 OpenMP threads

MPI task timing breakdown:
Section |  min time  |  avg time  |  max time  |%varavg| %total
---------------------------------------------------------------
Pair    | 0.015899   | 0.63689    | 3.4609     | 132.4 |  3.90
Bond    | 0.0052757  | 0.77245    | 3.8827     | 144.8 |  4.73
Neigh   | 0.039244   | 0.044011   | 0.048918   |   1.1 |  0.27
Comm    | 7.5701     | 12.309     | 14.907     |  77.3 | 75.35
Output  | 0.0071544  | 0.014095   | 0.020893   |   3.7 |  0.09
Modify  | 0.64481    | 1.9406     | 8.0424     | 163.1 | 11.88
Other   |            | 0.6188     |            |       |  3.79

Nlocal:        7.51562 ave          37 max           0 min
Histogram: 42 6 0 0 1 3 2 5 1 4
Nghost:        1819.95 ave        2412 max        1287 min
Histogram: 16 0 0 0 32 0 0 0 0 16
Neighs:              0 ave           0 max           0 min
Histogram: 64 0 0 0 0 0 0 0 0 0

Total # of neighbors = 0
Ave neighs/atom = 0
Ave special neighs/atom = 15.567568
Neighbor list builds = 107
Dangerous builds = 0
unfix           myat1
next            cpt
jump            SELF loop
variable        zdes equal  -15+0.60*(${cpt}-1)
variable        zdes equal  -15+0.60*(8-1)
variable        zave equal xcm(H2,z)
fix             mytth2 H2 spring tether ${k1} 2.5 2.5 ${zdes} 0
fix             mytth2 H2 spring tether 1.3 2.5 2.5 ${zdes} 0
fix             mytth2 H2 spring tether 1.3 2.5 2.5 -10.8 0
run             10000
Generated 0 of 1 mixed pair_coeff terms from geometric mixing rule
Per MPI rank memory allocation (min/avg/max) = 13.32 | 13.62 | 14.95 Mbytes
   Step          Temp          E_pair         E_mol          TotEng         Press     
    440000   296.13937      378.40626      18561.565      19363.684     -289.27917    
    450000   288.46142      383.13952      18552.784      19348.651     -275.5725     
Loop time of 3.26061 on 64 procs for 10000 steps with 481 atoms

Performance: 13.249 ns/day, 1.811 hours/ns, 3066.907 timesteps/s, 1.475 Matom-step/s
100.0% CPU use with 64 MPI tasks x 1 OpenMP threads

MPI task timing breakdown:
Section |  min time  |  avg time  |  max time  |%varavg| %total
---------------------------------------------------------------
Pair    | 0.0032717  | 0.12669    | 0.64662    |  58.8 |  3.89
Bond    | 0.0010479  | 0.15376    | 0.89179    |  64.7 |  4.72
Neigh   | 0.0066469  | 0.0074725  | 0.0083443  |   0.5 |  0.23
Comm    | 1.5191     | 2.454      | 2.9783     |  34.2 | 75.26
Output  | 0.0014939  | 0.0028907  | 0.0042908  |   1.6 |  0.09
Modify  | 0.12579    | 0.39094    | 1.597      |  71.7 | 11.99
Other   |            | 0.1248     |            |       |  3.83

Nlocal:        7.51562 ave          36 max           0 min
Histogram: 42 6 0 0 0 2 4 3 6 1
Nghost:         1822.3 ave        2414 max        1288 min
Histogram: 16 0 0 0 32 0 0 0 0 16
Neighs:              0 ave           0 max           0 min
Histogram: 64 0 0 0 0 0 0 0 0 0

Total # of neighbors = 0
Ave neighs/atom = 0
Ave special neighs/atom = 15.567568
Neighbor list builds = 19
Dangerous builds = 0
fix             myat1 all ave/time 1000 10 10000 v_zave v_zdes file simulation_data/abpot/${cpt}.dat
fix             myat1 all ave/time 1000 10 10000 v_zave v_zdes file simulation_data/abpot/8.dat
run             50000
Generated 0 of 1 mixed pair_coeff terms from geometric mixing rule
Per MPI rank memory allocation (min/avg/max) = 13.32 | 13.62 | 14.95 Mbytes
   Step          Temp          E_pair         E_mol          TotEng         Press     
    450000   288.46142      383.13952      18552.784      19348.651     -275.5725     
    460000   285.13913      392.45455      18552.69       19353.119      104.64908    
    470000   305.92966      384.74932      18553.592      19376.062     -63.15228     
    480000   296.97327      378.91237      18573.266      19377.084     -369.86973    
    490000   302.05171      386.19715      18516.699      19335.068     -39.467249    
    500000   313.34072      387.96402      18520.506      19356.795     -20.449693    
Loop time of 16.3256 on 64 procs for 50000 steps with 481 atoms

Performance: 13.231 ns/day, 1.814 hours/ns, 3062.665 timesteps/s, 1.473 Matom-step/s
100.0% CPU use with 64 MPI tasks x 1 OpenMP threads

MPI task timing breakdown:
Section |  min time  |  avg time  |  max time  |%varavg| %total
---------------------------------------------------------------
Pair    | 0.016111   | 0.63448    | 3.3276     | 132.0 |  3.89
Bond    | 0.00528    | 0.76994    | 3.9591     | 144.2 |  4.72
Neigh   | 0.028421   | 0.031972   | 0.035476   |   0.9 |  0.20
Comm    | 7.5578     | 12.3       | 14.918     |  77.0 | 75.34
Output  | 0.0071075  | 0.014034   | 0.020789   |   3.7 |  0.09
Modify  | 0.63927    | 1.9526     | 8.0483     | 163.1 | 11.96
Other   |            | 0.6226     |            |       |  3.81

Nlocal:        7.51562 ave          37 max           0 min
Histogram: 43 4 1 0 1 3 1 5 3 3
Nghost:        1823.42 ave        2420 max        1287 min
Histogram: 16 0 0 0 32 0 0 0 0 16
Neighs:              0 ave           0 max           0 min
Histogram: 64 0 0 0 0 0 0 0 0 0

Total # of neighbors = 0
Ave neighs/atom = 0
Ave special neighs/atom = 15.567568
Neighbor list builds = 79
Dangerous builds = 0
unfix           myat1
next            cpt
jump            SELF loop
variable        zdes equal  -15+0.60*(${cpt}-1)
variable        zdes equal  -15+0.60*(9-1)
variable        zave equal xcm(H2,z)
fix             mytth2 H2 spring tether ${k1} 2.5 2.5 ${zdes} 0
fix             mytth2 H2 spring tether 1.3 2.5 2.5 ${zdes} 0
fix             mytth2 H2 spring tether 1.3 2.5 2.5 -10.2 0
run             10000
Generated 0 of 1 mixed pair_coeff terms from geometric mixing rule
Per MPI rank memory allocation (min/avg/max) = 13.32 | 13.62 | 14.95 Mbytes
   Step          Temp          E_pair         E_mol          TotEng         Press     
    500000   313.34072      387.96402      18520.506      19356.795     -20.449693    
    510000   300.68621      384.68201      18550.321      19365.222     -215.92247    
Loop time of 3.2211 on 64 procs for 10000 steps with 481 atoms

Performance: 13.412 ns/day, 1.790 hours/ns, 3104.527 timesteps/s, 1.493 Matom-step/s
100.0% CPU use with 64 MPI tasks x 1 OpenMP threads

MPI task timing breakdown:
Section |  min time  |  avg time  |  max time  |%varavg| %total
---------------------------------------------------------------
Pair    | 0.0032304  | 0.12681    | 0.668      |  59.2 |  3.94
Bond    | 0.0010542  | 0.15358    | 0.78255    |  64.4 |  4.77
Neigh   | 0.006386   | 0.007177   | 0.0080025  |   0.4 |  0.22
Comm    | 1.5167     | 2.4269     | 2.9453     |  34.3 | 75.34
Output  | 0.0014089  | 0.0027783  | 0.004154   |   1.6 |  0.09
Modify  | 0.12534    | 0.3795     | 1.5608     |  72.0 | 11.78
Other   |            | 0.1244     |            |       |  3.86

Nlocal:        7.51562 ave          39 max           0 min
Histogram: 43 2 3 2 0 4 1 4 3 2
Nghost:        1825.95 ave        2422 max        1290 min
Histogram: 16 0 0 0 32 0 0 0 0 16
Neighs:              0 ave           0 max           0 min
Histogram: 64 0 0 0 0 0 0 0 0 0

Total # of neighbors = 0
Ave neighs/atom = 0
Ave special neighs/atom = 15.567568
Neighbor list builds = 18
Dangerous builds = 0
fix             myat1 all ave/time 1000 10 10000 v_zave v_zdes file simulation_data/abpot/${cpt}.dat
fix             myat1 all ave/time 1000 10 10000 v_zave v_zdes file simulation_data/abpot/9.dat
run             50000
Generated 0 of 1 mixed pair_coeff terms from geometric mixing rule
Per MPI rank memory allocation (min/avg/max) = 13.32 | 13.62 | 14.95 Mbytes
   Step          Temp          E_pair         E_mol          TotEng         Press     
    510000   300.68621      384.68201      18550.321      19365.222     -215.92247    
    520000   289.90768      382.66127      18523.046      19320.504     -56.503721    
    530000   284.23627      384.66024      18534.706      19326.049     -65.433409    
    540000   297.53964      385.98514      18540.789      19352.49      -53.132936    
    550000   300.71274      391.76978      18554.852      19376.878      1.2289208    
    560000   305.27045      392.24976      18560.935      19389.962      151.75458    
Loop time of 16.2639 on 64 procs for 50000 steps with 481 atoms

Performance: 13.281 ns/day, 1.807 hours/ns, 3074.293 timesteps/s, 1.479 Matom-step/s
100.0% CPU use with 64 MPI tasks x 1 OpenMP threads

MPI task timing breakdown:
Section |  min time  |  avg time  |  max time  |%varavg| %total
---------------------------------------------------------------
Pair    | 0.016222   | 0.63621    | 3.2909     | 132.2 |  3.91
Bond    | 0.0052791  | 0.77129    | 4.0423     | 144.7 |  4.74
Neigh   | 0.032287   | 0.036291   | 0.040405   |   1.0 |  0.22
Comm    | 7.546      | 12.258     | 14.853     |  77.1 | 75.37
Output  | 0.0070774  | 0.014008   | 0.020769   |   3.7 |  0.09
Modify  | 0.63397    | 1.9261     | 7.9985     | 162.7 | 11.84
Other   |            | 0.6219     |            |       |  3.82

Nlocal:        7.51562 ave          33 max           0 min
Histogram: 43 2 3 0 0 0 2 4 7 3
Nghost:        1823.05 ave        2416 max        1291 min
Histogram: 16 0 0 0 32 0 0 0 0 16
Neighs:              0 ave           0 max           0 min
Histogram: 64 0 0 0 0 0 0 0 0 0

Total # of neighbors = 0
Ave neighs/atom = 0
Ave special neighs/atom = 15.567568
Neighbor list builds = 90
Dangerous builds = 0
unfix           myat1
next            cpt
jump            SELF loop
variable        zdes equal  -15+0.60*(${cpt}-1)
variable        zdes equal  -15+0.60*(10-1)
variable        zave equal xcm(H2,z)
fix             mytth2 H2 spring tether ${k1} 2.5 2.5 ${zdes} 0
fix             mytth2 H2 spring tether 1.3 2.5 2.5 ${zdes} 0
fix             mytth2 H2 spring tether 1.3 2.5 2.5 -9.6 0
run             10000
Generated 0 of 1 mixed pair_coeff terms from geometric mixing rule
Per MPI rank memory allocation (min/avg/max) = 13.32 | 13.62 | 14.95 Mbytes
   Step          Temp          E_pair         E_mol          TotEng         Press     
    560000   305.27045      392.24976      18560.935      19389.962      151.75458    
    570000   303.57791      372.93664      18590.861      19398.153     -292.63733    
Loop time of 3.26822 on 64 procs for 10000 steps with 481 atoms

Performance: 13.218 ns/day, 1.816 hours/ns, 3059.767 timesteps/s, 1.472 Matom-step/s
100.0% CPU use with 64 MPI tasks x 1 OpenMP threads

MPI task timing breakdown:
Section |  min time  |  avg time  |  max time  |%varavg| %total
---------------------------------------------------------------
Pair    | 0.003317   | 0.12663    | 0.66621    |  59.2 |  3.87
Bond    | 0.0010581  | 0.154      | 0.79775    |  64.6 |  4.71
Neigh   | 0.0043443  | 0.0048144  | 0.0054133  |   0.4 |  0.15
Comm    | 1.5069     | 2.4716     | 2.9921     |  34.6 | 75.63
Output  | 0.0014388  | 0.0028229  | 0.0042063  |   1.6 |  0.09
Modify  | 0.12314    | 0.38374    | 1.6194     |  74.0 | 11.74
Other   |            | 0.1246     |            |       |  3.81

Nlocal:        7.51562 ave          33 max           0 min
Histogram: 41 7 0 0 0 0 2 6 4 4
Nghost:        1818.27 ave        2408 max        1291 min
Histogram: 16 0 0 0 32 0 0 0 0 16
Neighs:              0 ave           0 max           0 min
Histogram: 64 0 0 0 0 0 0 0 0 0

Total # of neighbors = 0
Ave neighs/atom = 0
Ave special neighs/atom = 15.567568
Neighbor list builds = 12
Dangerous builds = 0
fix             myat1 all ave/time 1000 10 10000 v_zave v_zdes file simulation_data/abpot/${cpt}.dat
fix             myat1 all ave/time 1000 10 10000 v_zave v_zdes file simulation_data/abpot/10.dat
run             50000
Generated 0 of 1 mixed pair_coeff terms from geometric mixing rule
Per MPI rank memory allocation (min/avg/max) = 13.32 | 13.62 | 14.95 Mbytes
   Step          Temp          E_pair         E_mol          TotEng         Press     
    570000   303.57791      372.93664      18590.861      19398.153     -292.63733    
    580000   305.42459      383.54645      18539.77       19360.315     -216.63162    
    590000   301.25489      391.86687      18533.756      19356.655      86.454537    
    600000   297.9364       392.74787      18547.276      19366.307      206.63377    
    610000   333.89524      382.60636      18535.475      19395.815     -73.60766     
    620000   305.78569      392.35032      18557.46       19387.325     -45.305708    
Loop time of 16.386 on 64 procs for 50000 steps with 481 atoms

Performance: 13.182 ns/day, 1.821 hours/ns, 3051.391 timesteps/s, 1.468 Matom-step/s
100.0% CPU use with 64 MPI tasks x 1 OpenMP threads

MPI task timing breakdown:
Section |  min time  |  avg time  |  max time  |%varavg| %total
---------------------------------------------------------------
Pair    | 0.016107   | 0.6385     | 3.1723     | 132.4 |  3.90
Bond    | 0.005286   | 0.77237    | 4.2172     | 144.6 |  4.71
Neigh   | 0.025702   | 0.028901   | 0.032218   |   0.9 |  0.18
Comm    | 7.5588     | 12.348     | 14.969     |  77.4 | 75.36
Output  | 0.0071362  | 0.014058   | 0.020831   |   3.7 |  0.09
Modify  | 0.64343    | 1.9603     | 8.1119     | 164.1 | 11.96
Other   |            | 0.6239     |            |       |  3.81

Nlocal:        7.51562 ave          38 max           0 min
Histogram: 41 7 0 1 0 2 4 5 2 2
Nghost:        1818.08 ave        2403 max        1286 min
Histogram: 16 0 0 0 32 0 0 0 0 16
Neighs:              0 ave           0 max           0 min
Histogram: 64 0 0 0 0 0 0 0 0 0

Total # of neighbors = 0
Ave neighs/atom = 0
Ave special neighs/atom = 15.567568
Neighbor list builds = 72
Dangerous builds = 0
unfix           myat1
next            cpt
jump            SELF loop
variable        zdes equal  -15+0.60*(${cpt}-1)
variable        zdes equal  -15+0.60*(11-1)
variable        zave equal xcm(H2,z)
fix             mytth2 H2 spring tether ${k1} 2.5 2.5 ${zdes} 0
fix             mytth2 H2 spring tether 1.3 2.5 2.5 ${zdes} 0
fix             mytth2 H2 spring tether 1.3 2.5 2.5 -9 0
run             10000
Generated 0 of 1 mixed pair_coeff terms from geometric mixing rule
Per MPI rank memory allocation (min/avg/max) = 13.32 | 13.62 | 14.95 Mbytes
   Step          Temp          E_pair         E_mol          TotEng         Press     
    620000   305.78569      392.35032      18557.46       19387.325     -45.305708    
    630000   299.44209      399.2118       18536.578      19364.228      295.07356    
Loop time of 3.33606 on 64 procs for 10000 steps with 481 atoms

Performance: 12.949 ns/day, 1.853 hours/ns, 2997.546 timesteps/s, 1.442 Matom-step/s
100.0% CPU use with 64 MPI tasks x 1 OpenMP threads

MPI task timing breakdown:
Section |  min time  |  avg time  |  max time  |%varavg| %total
---------------------------------------------------------------
Pair    | 0.003267   | 0.12788    | 0.67231    |  59.9 |  3.83
Bond    | 0.0010685  | 0.15357    | 0.79241    |  64.6 |  4.60
Neigh   | 0.006749   | 0.0075762  | 0.0084479  |   0.5 |  0.23
Comm    | 1.5094     | 2.5193     | 3.059      |  35.3 | 75.52
Output  | 0.0014591  | 0.0028374  | 0.0042327  |   1.6 |  0.09
Modify  | 0.12504    | 0.40041    | 1.6825     |  76.5 | 12.00
Other   |            | 0.1244     |            |       |  3.73

Nlocal:        7.51562 ave          38 max           0 min
Histogram: 41 7 0 1 1 1 3 6 2 2
Nghost:        1823.61 ave        2418 max        1286 min
Histogram: 16 0 0 0 32 0 0 0 0 16
Neighs:              0 ave           0 max           0 min
Histogram: 64 0 0 0 0 0 0 0 0 0

Total # of neighbors = 0
Ave neighs/atom = 0
Ave special neighs/atom = 15.567568
Neighbor list builds = 18
Dangerous builds = 0
fix             myat1 all ave/time 1000 10 10000 v_zave v_zdes file simulation_data/abpot/${cpt}.dat
fix             myat1 all ave/time 1000 10 10000 v_zave v_zdes file simulation_data/abpot/11.dat
run             50000
Generated 0 of 1 mixed pair_coeff terms from geometric mixing rule
Per MPI rank memory allocation (min/avg/max) = 13.32 | 13.62 | 14.95 Mbytes
   Step          Temp          E_pair         E_mol          TotEng         Press     
    630000   299.44209      399.2118       18536.578      19364.228      295.07356    
    640000   300.59265      385.43269      18537.062      19352.579     -135.87191    
    650000   305.86594      389.50224      18546.448      19373.58      -84.037595    
    660000   317.63075      398.50722      18522.647      19375.617      94.775253    
    670000   295.41812      380.72548      18534.664      19338.07      -165.94493    
    680000   299.75247      381.49665      18535.289      19345.668     -324.2656     
Loop time of 16.5782 on 64 procs for 50000 steps with 481 atoms

Performance: 13.029 ns/day, 1.842 hours/ns, 3016.005 timesteps/s, 1.451 Matom-step/s
100.0% CPU use with 64 MPI tasks x 1 OpenMP threads

MPI task timing breakdown:
Section |  min time  |  avg time  |  max time  |%varavg| %total
---------------------------------------------------------------
Pair    | 0.015991   | 0.64244    | 3.2763     | 133.5 |  3.88
Bond    | 0.0052632  | 0.77037    | 4.2078     | 145.4 |  4.65
Neigh   | 0.023443   | 0.026357   | 0.029479   |   0.9 |  0.16
Comm    | 7.5747     | 12.494     | 15.186     |  78.4 | 75.36
Output  | 0.0073489  | 0.014289   | 0.021067   |   3.7 |  0.09
Modify  | 0.63767    | 2.0074     | 8.2913     | 167.4 | 12.11
Other   |            | 0.6238     |            |       |  3.76

Nlocal:        7.51562 ave          36 max           0 min
Histogram: 40 8 0 0 1 1 5 3 2 4
Nghost:         1819.2 ave        2407 max        1288 min
Histogram: 16 0 0 0 32 0 0 0 0 16
Neighs:              0 ave           0 max           0 min
Histogram: 64 0 0 0 0 0 0 0 0 0

Total # of neighbors = 0
Ave neighs/atom = 0
Ave special neighs/atom = 15.567568
Neighbor list builds = 64
Dangerous builds = 0
unfix           myat1
next            cpt
jump            SELF loop
variable        zdes equal  -15+0.60*(${cpt}-1)
variable        zdes equal  -15+0.60*(12-1)
variable        zave equal xcm(H2,z)
fix             mytth2 H2 spring tether ${k1} 2.5 2.5 ${zdes} 0
fix             mytth2 H2 spring tether 1.3 2.5 2.5 ${zdes} 0
fix             mytth2 H2 spring tether 1.3 2.5 2.5 -8.4 0
run             10000
Generated 0 of 1 mixed pair_coeff terms from geometric mixing rule
Per MPI rank memory allocation (min/avg/max) = 13.32 | 13.62 | 14.95 Mbytes
   Step          Temp          E_pair         E_mol          TotEng         Press     
    680000   299.75247      381.49665      18535.289      19345.668     -324.2656     
    690000   308.67052      394.97846      18515.414      19352.035      61.259687    
Loop time of 3.37082 on 64 procs for 10000 steps with 481 atoms

Performance: 12.816 ns/day, 1.873 hours/ns, 2966.637 timesteps/s, 1.427 Matom-step/s
100.0% CPU use with 64 MPI tasks x 1 OpenMP threads

MPI task timing breakdown:
Section |  min time  |  avg time  |  max time  |%varavg| %total
---------------------------------------------------------------
Pair    | 0.0031923  | 0.12865    | 0.66741    |  59.9 |  3.82
Bond    | 0.0010511  | 0.15384    | 0.78751    |  64.6 |  4.56
Neigh   | 0.003922   | 0.0043391  | 0.0048308  |   0.3 |  0.13
Comm    | 1.5139     | 2.5513     | 3.0948     |  34.8 | 75.69
Output  | 0.0014639  | 0.0028529  | 0.0042514  |   1.6 |  0.08
Modify  | 0.12317    | 0.40524    | 1.7149     |  75.4 | 12.02
Other   |            | 0.1246     |            |       |  3.70

Nlocal:        7.51562 ave          39 max           0 min
Histogram: 41 7 0 0 1 3 5 3 2 2
Nghost:        1824.64 ave        2417 max        1285 min
Histogram: 16 0 0 0 32 0 0 0 0 16
Neighs:              0 ave           0 max           0 min
Histogram: 64 0 0 0 0 0 0 0 0 0

Total # of neighbors = 0
Ave neighs/atom = 0
Ave special neighs/atom = 15.567568
Neighbor list builds = 10
Dangerous builds = 0
fix             myat1 all ave/time 1000 10 10000 v_zave v_zdes file simulation_data/abpot/${cpt}.dat
fix             myat1 all ave/time 1000 10 10000 v_zave v_zdes file simulation_data/abpot/12.dat
run             50000
Generated 0 of 1 mixed pair_coeff terms from geometric mixing rule
Per MPI rank memory allocation (min/avg/max) = 13.32 | 13.62 | 14.95 Mbytes
   Step          Temp          E_pair         E_mol          TotEng         Press     
    690000   308.67052      394.97846      18515.414      19352.035      61.259687    
    700000   310.23476      388.78999      18538.165      19370.836     -157.16746    
    710000   307.06951      386.70911      18573.06       19399.121     -226.31494    
    720000   309.30793      392.09379      18560.108      19394.756      6.751291     
    730000   311.22417      391.75547      18516.383      19353.435      14.089181    
    740000   307.95258      389.73048      18513.101      19343.447     -95.458399    
Loop time of 16.7117 on 64 procs for 50000 steps with 481 atoms

Performance: 12.925 ns/day, 1.857 hours/ns, 2991.914 timesteps/s, 1.439 Matom-step/s
100.0% CPU use with 64 MPI tasks x 1 OpenMP threads

MPI task timing breakdown:
Section |  min time  |  avg time  |  max time  |%varavg| %total
---------------------------------------------------------------
Pair    | 0.016253   | 0.64516    | 3.5395     | 134.1 |  3.86
Bond    | 0.0052485  | 0.77291    | 4.415      | 145.4 |  4.62
Neigh   | 0.017884   | 0.020028   | 0.02224    |   0.7 |  0.12
Comm    | 7.5538     | 12.628     | 15.291     |  78.9 | 75.56
Output  | 0.0073151  | 0.014277   | 0.021075   |   3.7 |  0.09
Modify  | 0.65544    | 2.0063     | 8.4501     | 169.8 | 12.01
Other   |            | 0.6251     |            |       |  3.74

Nlocal:        7.51562 ave          31 max           0 min
Histogram: 41 6 1 0 0 0 0 3 3 10
Nghost:         1822.2 ave        2417 max        1294 min
Histogram: 16 0 0 0 32 0 0 0 0 16
Neighs:              0 ave           0 max           0 min
Histogram: 64 0 0 0 0 0 0 0 0 0

Total # of neighbors = 0
Ave neighs/atom = 0
Ave special neighs/atom = 15.567568
Neighbor list builds = 48
Dangerous builds = 0
unfix           myat1
next            cpt
jump            SELF loop
variable        zdes equal  -15+0.60*(${cpt}-1)
variable        zdes equal  -15+0.60*(13-1)
variable        zave equal xcm(H2,z)
fix             mytth2 H2 spring tether ${k1} 2.5 2.5 ${zdes} 0
fix             mytth2 H2 spring tether 1.3 2.5 2.5 ${zdes} 0
fix             mytth2 H2 spring tether 1.3 2.5 2.5 -7.8 0
run             10000
Generated 0 of 1 mixed pair_coeff terms from geometric mixing rule
Per MPI rank memory allocation (min/avg/max) = 13.32 | 13.62 | 14.95 Mbytes
   Step          Temp          E_pair         E_mol          TotEng         Press     
    740000   307.95258      389.73048      18513.101      19343.447     -95.458399    
    750000   290.27885      390.46853      18534.632      19340.428      24.95379     
Loop time of 3.30436 on 64 procs for 10000 steps with 481 atoms

Performance: 13.074 ns/day, 1.836 hours/ns, 3026.308 timesteps/s, 1.456 Matom-step/s
100.0% CPU use with 64 MPI tasks x 1 OpenMP threads

MPI task timing breakdown:
Section |  min time  |  avg time  |  max time  |%varavg| %total
---------------------------------------------------------------
Pair    | 0.0033392  | 0.12871    | 0.65404    |  59.9 |  3.90
Bond    | 0.0010467  | 0.1544     | 0.89644    |  64.8 |  4.67
Neigh   | 0.0047653  | 0.0053595  | 0.0059602  |   0.4 |  0.16
Comm    | 1.5074     | 2.4936     | 3.0202     |  35.0 | 75.47
Output  | 0.0014826  | 0.0028538  | 0.004235   |   1.6 |  0.09
Modify  | 0.1309     | 0.39416    | 1.6539     |  74.8 | 11.93
Other   |            | 0.1252     |            |       |  3.79

Nlocal:        7.51562 ave          34 max           0 min
Histogram: 42 4 2 0 0 0 3 4 6 3
Nghost:        1820.89 ave        2408 max        1291 min
Histogram: 16 0 0 0 32 0 0 0 0 16
Neighs:              0 ave           0 max           0 min
Histogram: 64 0 0 0 0 0 0 0 0 0

Total # of neighbors = 0
Ave neighs/atom = 0
Ave special neighs/atom = 15.567568
Neighbor list builds = 13
Dangerous builds = 0
fix             myat1 all ave/time 1000 10 10000 v_zave v_zdes file simulation_data/abpot/${cpt}.dat
fix             myat1 all ave/time 1000 10 10000 v_zave v_zdes file simulation_data/abpot/13.dat
run             50000
Generated 0 of 1 mixed pair_coeff terms from geometric mixing rule
Per MPI rank memory allocation (min/avg/max) = 13.32 | 13.62 | 14.95 Mbytes
   Step          Temp          E_pair         E_mol          TotEng         Press     
    750000   290.27885      390.46853      18534.632      19340.428      24.95379     
    760000   296.34954      384.18857      18565.704      19373.906     -245.73211    
    770000   300.16177      394.6021       18544.398      19368.468      65.895499    
    780000   298.60352      390.58077      18535.763      19353.583     -28.9568      
    790000   282.81552      388.09553      18558.438      19351.183     -185.86855    
    800000   298.7445       390.83705      18541.859      19360.136     -86.857857    
Loop time of 16.429 on 64 procs for 50000 steps with 481 atoms

Performance: 13.147 ns/day, 1.825 hours/ns, 3043.391 timesteps/s, 1.464 Matom-step/s
100.0% CPU use with 64 MPI tasks x 1 OpenMP threads

MPI task timing breakdown:
Section |  min time  |  avg time  |  max time  |%varavg| %total
---------------------------------------------------------------
Pair    | 0.016312   | 0.64429    | 3.4179     | 134.6 |  3.92
Bond    | 0.0052589  | 0.77136    | 4.0662     | 144.5 |  4.70
Neigh   | 0.02509    | 0.028079   | 0.031193   |   0.9 |  0.17
Comm    | 7.5642     | 12.397     | 15.008     |  77.9 | 75.46
Output  | 0.0072581  | 0.014183   | 0.020942   |   3.7 |  0.09
Modify  | 0.6533     | 1.9504     | 8.1482     | 165.3 | 11.87
Other   |            | 0.6236     |            |       |  3.80

Nlocal:        7.51562 ave          34 max           0 min
Histogram: 42 5 1 0 0 1 1 8 3 3
Nghost:        1821.17 ave        2415 max        1291 min
Histogram: 16 0 0 0 32 0 0 0 0 16
Neighs:              0 ave           0 max           0 min
Histogram: 64 0 0 0 0 0 0 0 0 0

Total # of neighbors = 0
Ave neighs/atom = 0
Ave special neighs/atom = 15.567568
Neighbor list builds = 68
Dangerous builds = 0
unfix           myat1
next            cpt
jump            SELF loop
variable        zdes equal  -15+0.60*(${cpt}-1)
variable        zdes equal  -15+0.60*(14-1)
variable        zave equal xcm(H2,z)
fix             mytth2 H2 spring tether ${k1} 2.5 2.5 ${zdes} 0
fix             mytth2 H2 spring tether 1.3 2.5 2.5 ${zdes} 0
fix             mytth2 H2 spring tether 1.3 2.5 2.5 -7.2 0
run             10000
Generated 0 of 1 mixed pair_coeff terms from geometric mixing rule
Per MPI rank memory allocation (min/avg/max) = 13.32 | 13.62 | 14.95 Mbytes
   Step          Temp          E_pair         E_mol          TotEng         Press     
    800000   298.7445       390.83705      18541.859      19360.136     -86.857857    
    810000   293.52181      386.5181       18549.816      19356.302     -183.92448    
Loop time of 3.27942 on 64 procs for 10000 steps with 481 atoms

Performance: 13.173 ns/day, 1.822 hours/ns, 3049.323 timesteps/s, 1.467 Matom-step/s
100.0% CPU use with 64 MPI tasks x 1 OpenMP threads

MPI task timing breakdown:
Section |  min time  |  avg time  |  max time  |%varavg| %total
---------------------------------------------------------------
Pair    | 0.0033295  | 0.12863    | 0.70629    |  60.6 |  3.92
Bond    | 0.0010504  | 0.15421    | 0.77049    |  64.9 |  4.70
Neigh   | 0.0046785  | 0.0052676  | 0.0058549  |   0.4 |  0.16
Comm    | 1.5099     | 2.4737     | 3.003      |  35.1 | 75.43
Output  | 0.0013672  | 0.0027254  | 0.0041121  |   1.7 |  0.08
Modify  | 0.12483    | 0.39086    | 1.6244     |  74.0 | 11.92
Other   |            | 0.124      |            |       |  3.78

Nlocal:        7.51562 ave          32 max           0 min
Histogram: 42 4 2 0 0 0 0 5 6 5
Nghost:        1818.08 ave        2407 max        1293 min
Histogram: 16 0 0 0 32 0 0 0 0 16
Neighs:              0 ave           0 max           0 min
Histogram: 64 0 0 0 0 0 0 0 0 0

Total # of neighbors = 0
Ave neighs/atom = 0
Ave special neighs/atom = 15.567568
Neighbor list builds = 13
Dangerous builds = 0
fix             myat1 all ave/time 1000 10 10000 v_zave v_zdes file simulation_data/abpot/${cpt}.dat
fix             myat1 all ave/time 1000 10 10000 v_zave v_zdes file simulation_data/abpot/14.dat
run             50000
Generated 0 of 1 mixed pair_coeff terms from geometric mixing rule
Per MPI rank memory allocation (min/avg/max) = 13.32 | 13.62 | 14.95 Mbytes
   Step          Temp          E_pair         E_mol          TotEng         Press     
    810000   293.52181      386.5181       18549.816      19356.302     -183.92448    
    820000   297.31824      396.86176      18551.792      19374.054      167.87965    
    830000   305.99132      384.6226       18544.818      19367.25      -205.93181    
    840000   295.22272      395.86381      18518.852      19337.117      74.762578    
    850000   296.74294      391.33403      18526.148      19342.058     -77.409466    
    860000   310.30415      397.17678      18533.619      19374.775     -23.271653    
Loop time of 16.3194 on 64 procs for 50000 steps with 481 atoms

Performance: 13.236 ns/day, 1.813 hours/ns, 3063.829 timesteps/s, 1.474 Matom-step/s
100.0% CPU use with 64 MPI tasks x 1 OpenMP threads

MPI task timing breakdown:
Section |  min time  |  avg time  |  max time  |%varavg| %total
---------------------------------------------------------------
Pair    | 0.01601    | 0.64334    | 3.3716     | 134.4 |  3.94
Bond    | 0.005257   | 0.76939    | 4.1096     | 144.1 |  4.71
Neigh   | 0.024301   | 0.027303   | 0.030402   |   0.9 |  0.17
Comm    | 7.5709     | 12.294     | 14.928     |  77.6 | 75.33
Output  | 0.0072195  | 0.014044   | 0.020769   |   3.6 |  0.09
Modify  | 0.62971    | 1.9458     | 8.0343     | 163.5 | 11.92
Other   |            | 0.6259     |            |       |  3.84

Nlocal:        7.51562 ave          38 max           0 min
Histogram: 42 5 1 1 1 0 5 4 4 1
Nghost:         1822.2 ave        2414 max        1290 min
Histogram: 16 0 0 0 32 0 0 0 0 16
Neighs:              0 ave           0 max           0 min
Histogram: 64 0 0 0 0 0 0 0 0 0

Total # of neighbors = 0
Ave neighs/atom = 0
Ave special neighs/atom = 15.567568
Neighbor list builds = 67
Dangerous builds = 0
unfix           myat1
next            cpt
jump            SELF loop
variable        zdes equal  -15+0.60*(${cpt}-1)
variable        zdes equal  -15+0.60*(15-1)
variable        zave equal xcm(H2,z)
fix             mytth2 H2 spring tether ${k1} 2.5 2.5 ${zdes} 0
fix             mytth2 H2 spring tether 1.3 2.5 2.5 ${zdes} 0
fix             mytth2 H2 spring tether 1.3 2.5 2.5 -6.6 0
run             10000
Generated 0 of 1 mixed pair_coeff terms from geometric mixing rule
Per MPI rank memory allocation (min/avg/max) = 13.32 | 13.62 | 14.95 Mbytes
   Step          Temp          E_pair         E_mol          TotEng         Press     
    860000   310.30415      397.17678      18533.619      19374.775     -23.271653    
    870000   306.50474      384.96749      18530.245      19353.756     -160.90293    
Loop time of 3.29294 on 64 procs for 10000 steps with 481 atoms

Performance: 13.119 ns/day, 1.829 hours/ns, 3036.802 timesteps/s, 1.461 Matom-step/s
100.0% CPU use with 64 MPI tasks x 1 OpenMP threads

MPI task timing breakdown:
Section |  min time  |  avg time  |  max time  |%varavg| %total
---------------------------------------------------------------
Pair    | 0.0032028  | 0.12904    | 0.71075    |  60.0 |  3.92
Bond    | 0.0010496  | 0.15412    | 0.82631    |  64.5 |  4.68
Neigh   | 0.0051646  | 0.0057935  | 0.0064635  |   0.4 |  0.18
Comm    | 1.512      | 2.4873     | 3.0045     |  34.8 | 75.54
Output  | 0.0014661  | 0.0028252  | 0.004207   |   1.6 |  0.09
Modify  | 0.13251    | 0.38956    | 1.6385     |  74.6 | 11.83
Other   |            | 0.1243     |            |       |  3.77

Nlocal:        7.51562 ave          38 max           0 min
Histogram: 42 6 0 0 1 3 1 7 3 1
Nghost:        1820.33 ave        2415 max        1286 min
Histogram: 16 0 0 0 32 0 0 0 0 16
Neighs:              0 ave           0 max           0 min
Histogram: 64 0 0 0 0 0 0 0 0 0

Total # of neighbors = 0
Ave neighs/atom = 0
Ave special neighs/atom = 15.567568
Neighbor list builds = 14
Dangerous builds = 0
fix             myat1 all ave/time 1000 10 10000 v_zave v_zdes file simulation_data/abpot/${cpt}.dat
fix             myat1 all ave/time 1000 10 10000 v_zave v_zdes file simulation_data/abpot/15.dat
run             50000
Generated 0 of 1 mixed pair_coeff terms from geometric mixing rule
Per MPI rank memory allocation (min/avg/max) = 13.32 | 13.62 | 14.95 Mbytes
   Step          Temp          E_pair         E_mol          TotEng         Press     
    870000   306.50474      384.96749      18530.245      19353.756     -160.90293    
    880000   282.82201      401.20679      18519.178      19325.044      182.64796    
    890000   301.30392      393.73048      18506.446      19331.278     -12.198849    
    900000   312.93376      390.13748      18533.744      19371.624     -2.6407415    
    910000   298.97836      397.66312      18543.886      19369.324      33.678165    
    920000   287.28156      382.22032      18554.88       19348.139     -266.54312    
Loop time of 16.4411 on 64 procs for 50000 steps with 481 atoms

Performance: 13.138 ns/day, 1.827 hours/ns, 3041.163 timesteps/s, 1.463 Matom-step/s
100.0% CPU use with 64 MPI tasks x 1 OpenMP threads

MPI task timing breakdown:
Section |  min time  |  avg time  |  max time  |%varavg| %total
---------------------------------------------------------------
Pair    | 0.016218   | 0.64462    | 3.2767     | 133.8 |  3.92
Bond    | 0.0052584  | 0.77063    | 4.1804     | 144.1 |  4.69
Neigh   | 0.029165   | 0.032639   | 0.03619    |   0.9 |  0.20
Comm    | 7.581      | 12.399     | 15.031     |  77.8 | 75.42
Output  | 0.0073102  | 0.01421    | 0.020932   |   3.6 |  0.09
Modify  | 0.64382    | 1.9556     | 8.141      | 165.7 | 11.89
Other   |            | 0.6241     |            |       |  3.80

Nlocal:        7.51562 ave          35 max           0 min
Histogram: 40 8 0 0 0 2 3 4 2 5
Nghost:        1816.77 ave        2404 max        1289 min
Histogram: 16 0 0 0 32 0 0 0 0 16
Neighs:              0 ave           0 max           0 min
Histogram: 64 0 0 0 0 0 0 0 0 0

Total # of neighbors = 0
Ave neighs/atom = 0
Ave special neighs/atom = 15.567568
Neighbor list builds = 78
Dangerous builds = 0
unfix           myat1
next            cpt
jump            SELF loop
variable        zdes equal  -15+0.60*(${cpt}-1)
variable        zdes equal  -15+0.60*(16-1)
variable        zave equal xcm(H2,z)
fix             mytth2 H2 spring tether ${k1} 2.5 2.5 ${zdes} 0
fix             mytth2 H2 spring tether 1.3 2.5 2.5 ${zdes} 0
fix             mytth2 H2 spring tether 1.3 2.5 2.5 -6 0
run             10000
Generated 0 of 1 mixed pair_coeff terms from geometric mixing rule
Per MPI rank memory allocation (min/avg/max) = 13.32 | 13.62 | 14.95 Mbytes
   Step          Temp          E_pair         E_mol          TotEng         Press     
    920000   287.28156      382.22032      18554.88       19348.139     -266.54312    
    930000   279.63822      393.74519      18543.968      19337.816      71.700181    
Loop time of 3.23147 on 64 procs for 10000 steps with 481 atoms

Performance: 13.369 ns/day, 1.795 hours/ns, 3094.563 timesteps/s, 1.488 Matom-step/s
100.0% CPU use with 64 MPI tasks x 1 OpenMP threads

MPI task timing breakdown:
Section |  min time  |  avg time  |  max time  |%varavg| %total
---------------------------------------------------------------
Pair    | 0.0033206  | 0.12935    | 0.65286    |  59.8 |  4.00
Bond    | 0.0010517  | 0.15459    | 0.85734    |  64.6 |  4.78
Neigh   | 0.0039824  | 0.0044857  | 0.0049997  |   0.3 |  0.14
Comm    | 1.5127     | 2.4355     | 2.9515     |  34.5 | 75.37
Output  | 0.0014128  | 0.0027911  | 0.0041843  |   1.7 |  0.09
Modify  | 0.12694    | 0.38012    | 1.5769     |  72.2 | 11.76
Other   |            | 0.1246     |            |       |  3.86

Nlocal:        7.51562 ave          36 max           0 min
Histogram: 41 7 0 0 0 4 1 4 4 3
Nghost:        1821.08 ave        2408 max        1288 min
Histogram: 16 0 0 0 32 0 0 0 0 16
Neighs:              0 ave           0 max           0 min
Histogram: 64 0 0 0 0 0 0 0 0 0

Total # of neighbors = 0
Ave neighs/atom = 0
Ave special neighs/atom = 15.567568
Neighbor list builds = 11
Dangerous builds = 0
fix             myat1 all ave/time 1000 10 10000 v_zave v_zdes file simulation_data/abpot/${cpt}.dat
fix             myat1 all ave/time 1000 10 10000 v_zave v_zdes file simulation_data/abpot/16.dat
run             50000
Generated 0 of 1 mixed pair_coeff terms from geometric mixing rule
Per MPI rank memory allocation (min/avg/max) = 13.32 | 13.62 | 14.95 Mbytes
   Step          Temp          E_pair         E_mol          TotEng         Press     
    930000   279.63822      393.74519      18543.968      19337.816      71.700181    
    940000   288.92848      391.31123      18512.078      19316.785     -1.772565     
    950000   293.41786      383.13693      18538.973      19341.929     -268.61993    
    960000   304.25512      399.14634      18520.529      19355          258.16839    
    970000   295.743        390.03305      18527.853      19341.032      1.8269495    
    980000   286.31114      391.96941      18514.668      19316.289     -69.378477    
Loop time of 16.4215 on 64 procs for 50000 steps with 481 atoms

Performance: 13.154 ns/day, 1.825 hours/ns, 3044.795 timesteps/s, 1.465 Matom-step/s
100.0% CPU use with 64 MPI tasks x 1 OpenMP threads

MPI task timing breakdown:
Section |  min time  |  avg time  |  max time  |%varavg| %total
---------------------------------------------------------------
Pair    | 0.016727   | 0.64319    | 3.382      | 133.9 |  3.92
Bond    | 0.0052622  | 0.76841    | 4.1366     | 144.1 |  4.68
Neigh   | 0.020785   | 0.023299   | 0.025882   |   0.8 |  0.14
Comm    | 7.6339     | 12.398     | 15.039     |  77.6 | 75.50
Output  | 0.007266   | 0.014155   | 0.020908   |   3.6 |  0.09
Modify  | 0.62964    | 1.9513     | 8.064      | 165.4 | 11.88
Other   |            | 0.623      |            |       |  3.79

Nlocal:        7.51562 ave          36 max           0 min
Histogram: 42 5 1 0 0 2 0 11 2 1
Nghost:         1816.3 ave        2400 max        1288 min
Histogram: 16 0 0 0 32 0 0 0 0 16
Neighs:              0 ave           0 max           0 min
Histogram: 64 0 0 0 0 0 0 0 0 0

Total # of neighbors = 0
Ave neighs/atom = 0
Ave special neighs/atom = 15.567568
Neighbor list builds = 56
Dangerous builds = 0
unfix           myat1
next            cpt
jump            SELF loop
variable        zdes equal  -15+0.60*(${cpt}-1)
variable        zdes equal  -15+0.60*(17-1)
variable        zave equal xcm(H2,z)
fix             mytth2 H2 spring tether ${k1} 2.5 2.5 ${zdes} 0
fix             mytth2 H2 spring tether 1.3 2.5 2.5 ${zdes} 0
fix             mytth2 H2 spring tether 1.3 2.5 2.5 -5.4 0
run             10000
Generated 0 of 1 mixed pair_coeff terms from geometric mixing rule
Per MPI rank memory allocation (min/avg/max) = 13.32 | 13.62 | 14.95 Mbytes
   Step          Temp          E_pair         E_mol          TotEng         Press     
    980000   286.31114      391.96941      18514.668      19316.289     -69.378477    
    990000   301.90612      390.73474      18518.453      19341.152      22.946568    
Loop time of 3.3017 on 64 procs for 10000 steps with 481 atoms

Performance: 13.084 ns/day, 1.834 hours/ns, 3028.746 timesteps/s, 1.457 Matom-step/s
100.0% CPU use with 64 MPI tasks x 1 OpenMP threads

MPI task timing breakdown:
Section |  min time  |  avg time  |  max time  |%varavg| %total
---------------------------------------------------------------
Pair    | 0.0033494  | 0.12871    | 0.6866     |  60.0 |  3.90
Bond    | 0.0010506  | 0.15371    | 0.81401    |  64.6 |  4.66
Neigh   | 0.0040593  | 0.0045736  | 0.0050797  |   0.3 |  0.14
Comm    | 1.5166     | 2.4936     | 3.0231     |  34.9 | 75.52
[...]
Section |  min time  |  avg time  |  max time  |%varavg| %total
---------------------------------------------------------------
Pair    | 0.0031363  | 0.14052    | 1.0635     |  67.1 |  3.75
Bond    | 0.0010501  | 0.16225    | 0.9584     |  67.9 |  4.33
Neigh   | 0.0045861  | 0.0050099  | 0.0054812  |   0.3 |  0.13
Comm    | 1.4386     | 2.8475     | 3.4639     |  40.2 | 75.97
Output  | 0.0014633  | 0.0028349  | 0.0042101  |   1.6 |  0.08
Modify  | 0.12349    | 0.46252    | 2.0918     |  88.6 | 12.34
Other   |            | 0.1277     |            |       |  3.41

Nlocal:        7.51562 ave          35 max           0 min
Histogram: 42 4 2 0 0 1 4 3 5 3
Nghost:        1825.77 ave        2423 max        1289 min
Histogram: 16 0 0 0 32 0 0 0 0 16
Neighs:              0 ave           0 max           0 min
Histogram: 64 0 0 0 0 0 0 0 0 0

Total # of neighbors = 0
Ave neighs/atom = 0
Ave special neighs/atom = 15.567568
Neighbor list builds = 10
Dangerous builds = 0
fix             myat1 all ave/time 1000 10 10000 v_zave v_zdes file simulation_data/abpot/${cpt}.dat
fix             myat1 all ave/time 1000 10 10000 v_zave v_zdes file simulation_data/abpot/47.dat
run             50000
Generated 0 of 1 mixed pair_coeff terms from geometric mixing rule
Per MPI rank memory allocation (min/avg/max) = 13.32 | 13.62 | 14.95 Mbytes
   Step          Temp          E_pair         E_mol          TotEng         Press     
   2790000   315.55153      387.56613      18497.279      19336.333      93.823863    
   2800000   303.97226      377.57353      18523.397      19335.891     -137.92696    
   2810000   305.76892      382.81107      18485.731      19306.033      21.251659    
   2820000   296.14406      384.19114      18514.714      19322.625     -33.297561    
   2830000   304.97221      388.16629      18504.369      19328.886      75.85511     
   2840000   310.8547       380.00624      18558.06       19382.834     -123.4381     
Loop time of 18.8227 on 64 procs for 50000 steps with 481 atoms

Performance: 11.476 ns/day, 2.091 hours/ns, 2656.373 timesteps/s, 1.278 Matom-step/s
100.0% CPU use with 64 MPI tasks x 1 OpenMP threads

MPI task timing breakdown:
Section |  min time  |  avg time  |  max time  |%varavg| %total
---------------------------------------------------------------
Pair    | 0.016581   | 0.70078    | 5.2147     | 149.2 |  3.72
Bond    | 0.0053974  | 0.80978    | 4.6069     | 151.4 |  4.30
Neigh   | 0.029222   | 0.031632   | 0.034305   |   0.7 |  0.17
Comm    | 7.5009     | 14.364     | 17.345     |  89.9 | 76.31
Output  | 0.0074991  | 0.014411   | 0.021163   |   3.6 |  0.08
Modify  | 0.65798    | 2.2617     | 10.587     | 202.7 | 12.02
Other   |            | 0.6401     |            |       |  3.40

Nlocal:        7.51562 ave          36 max           0 min
Histogram: 43 3 2 0 0 2 3 5 4 2
Nghost:        1814.05 ave        2395 max        1289 min
Histogram: 16 0 0 0 32 0 0 0 0 16
Neighs:              0 ave           0 max           0 min
Histogram: 64 0 0 0 0 0 0 0 0 0

Total # of neighbors = 0
Ave neighs/atom = 0
Ave special neighs/atom = 15.567568
Neighbor list builds = 62
Dangerous builds = 0
unfix           myat1
next            cpt
jump            SELF loop
variable        zdes equal  -15+0.60*(${cpt}-1)
variable        zdes equal  -15+0.60*(48-1)
variable        zave equal xcm(H2,z)
fix             mytth2 H2 spring tether ${k1} 2.5 2.5 ${zdes} 0
fix             mytth2 H2 spring tether 1.3 2.5 2.5 ${zdes} 0
fix             mytth2 H2 spring tether 1.3 2.5 2.5 13.2 0
run             10000
Generated 0 of 1 mixed pair_coeff terms from geometric mixing rule
Per MPI rank memory allocation (min/avg/max) = 13.32 | 13.62 | 14.95 Mbytes
   Step          Temp          E_pair         E_mol          TotEng         Press     
   2840000   310.8547       380.00624      18558.06       19382.834     -123.4381     
   2850000   276.95249      386.29064      18532.111      19314.662     -6.8477083    
Loop time of 3.86622 on 64 procs for 10000 steps with 481 atoms

Performance: 11.174 ns/day, 2.148 hours/ns, 2586.506 timesteps/s, 1.244 Matom-step/s
100.0% CPU use with 64 MPI tasks x 1 OpenMP threads

MPI task timing breakdown:
Section |  min time  |  avg time  |  max time  |%varavg| %total
---------------------------------------------------------------
Pair    | 0.0034368  | 0.14063    | 1.0651     |  67.0 |  3.64
Bond    | 0.0010545  | 0.16337    | 0.95869    |  68.2 |  4.23
Neigh   | 0.0037588  | 0.0040824  | 0.004426   |   0.2 |  0.11
Comm    | 1.5053     | 2.9468     | 3.5766     |  41.2 | 76.22
Output  | 0.0015196  | 0.003003   | 0.0044502  |   1.7 |  0.08
Modify  | 0.12861    | 0.48028    | 2.216      |  92.7 | 12.42
Other   |            | 0.1281     |            |       |  3.31

Nlocal:        7.51562 ave          36 max           0 min
Histogram: 42 4 2 0 0 3 2 4 6 1
Nghost:        1817.98 ave        2407 max        1289 min
Histogram: 16 0 0 0 32 0 0 0 0 16
Neighs:              0 ave           0 max           0 min
Histogram: 64 0 0 0 0 0 0 0 0 0

Total # of neighbors = 0
Ave neighs/atom = 0
Ave special neighs/atom = 15.567568
Neighbor list builds = 8
Dangerous builds = 0
fix             myat1 all ave/time 1000 10 10000 v_zave v_zdes file simulation_data/abpot/${cpt}.dat
fix             myat1 all ave/time 1000 10 10000 v_zave v_zdes file simulation_data/abpot/48.dat
run             50000
Generated 0 of 1 mixed pair_coeff terms from geometric mixing rule
Per MPI rank memory allocation (min/avg/max) = 13.32 | 13.62 | 14.95 Mbytes
   Step          Temp          E_pair         E_mol          TotEng         Press     
   2850000   276.95249      386.29064      18532.111      19314.662     -6.8477083    
   2860000   290.58114      380.56197      18514.363      19310.685     -155.64065    
   2870000   295.1407       380.72422      18507.685      19310.693     -109.03839    
   2880000   315.90611      385.1297       18504.573      19341.697      67.388269    
   2890000   302.81144      376.52529      18521.243      19331.027     -245.3724     
   2900000   300.51588      388.97834      18487.418      19306.371      152.17773    
Loop time of 18.7787 on 64 procs for 50000 steps with 481 atoms

Performance: 11.502 ns/day, 2.087 hours/ns, 2662.596 timesteps/s, 1.281 Matom-step/s
100.0% CPU use with 64 MPI tasks x 1 OpenMP threads

MPI task timing breakdown:
Section |  min time  |  avg time  |  max time  |%varavg| %total
---------------------------------------------------------------
Pair    | 0.01672    | 0.70214    | 5.1998     | 149.2 |  3.74
Bond    | 0.0053654  | 0.81292    | 4.5926     | 151.8 |  4.33
Neigh   | 0.033241   | 0.036065   | 0.039392   |   0.7 |  0.19
Comm    | 7.4981     | 14.25      | 17.327     |  91.0 | 75.88
Output  | 0.0072965  | 0.014275   | 0.021085   |   3.7 |  0.08
Modify  | 0.64027    | 2.3228     | 10.542     | 202.7 | 12.37
Other   |            | 0.6404     |            |       |  3.41

Nlocal:        7.51562 ave          38 max           0 min
Histogram: 42 6 0 0 1 2 4 3 5 1
Nghost:        1817.98 ave        2411 max        1286 min
Histogram: 16 0 0 0 32 0 0 0 0 16
Neighs:              0 ave           0 max           0 min
Histogram: 64 0 0 0 0 0 0 0 0 0

Total # of neighbors = 0
Ave neighs/atom = 0
Ave special neighs/atom = 15.567568
Neighbor list builds = 71
Dangerous builds = 0
unfix           myat1
next            cpt
jump            SELF loop
variable        zdes equal  -15+0.60*(${cpt}-1)
variable        zdes equal  -15+0.60*(49-1)
variable        zave equal xcm(H2,z)
fix             mytth2 H2 spring tether ${k1} 2.5 2.5 ${zdes} 0
fix             mytth2 H2 spring tether 1.3 2.5 2.5 ${zdes} 0
fix             mytth2 H2 spring tether 1.3 2.5 2.5 13.8 0
run             10000
Generated 0 of 1 mixed pair_coeff terms from geometric mixing rule
Per MPI rank memory allocation (min/avg/max) = 13.32 | 13.62 | 14.95 Mbytes
   Step          Temp          E_pair         E_mol          TotEng         Press     
   2900000   300.51588      388.97834      18487.418      19306.371      152.17773    
   2910000   300.4656       381.7891       18524.557      19336.249     -60.00154     
Loop time of 3.68211 on 64 procs for 10000 steps with 481 atoms

Performance: 11.732 ns/day, 2.046 hours/ns, 2715.835 timesteps/s, 1.306 Matom-step/s
100.0% CPU use with 64 MPI tasks x 1 OpenMP threads

MPI task timing breakdown:
Section |  min time  |  avg time  |  max time  |%varavg| %total
---------------------------------------------------------------
Pair    | 0.0033229  | 0.13974    | 0.98254    |  65.5 |  3.80
Bond    | 0.0010559  | 0.162      | 0.87016    |  67.0 |  4.40
Neigh   | 0.0082283  | 0.0089751  | 0.0098705  |   0.4 |  0.24
Comm    | 1.5062     | 2.7868     | 3.3903     |  39.6 | 75.69
Output  | 0.0014318  | 0.0027968  | 0.0041717  |   1.6 |  0.08
Modify  | 0.12925    | 0.45348    | 2.0266     |  87.5 | 12.32
Other   |            | 0.1283     |            |       |  3.48

Nlocal:        7.51562 ave          37 max           0 min
Histogram: 41 7 0 0 1 3 2 3 5 2
Nghost:        1817.23 ave        2400 max        1287 min
Histogram: 16 0 0 0 32 0 0 0 0 16
Neighs:              0 ave           0 max           0 min
Histogram: 64 0 0 0 0 0 0 0 0 0

Total # of neighbors = 0
Ave neighs/atom = 0
Ave special neighs/atom = 15.567568
Neighbor list builds = 19
Dangerous builds = 0
fix             myat1 all ave/time 1000 10 10000 v_zave v_zdes file simulation_data/abpot/${cpt}.dat
fix             myat1 all ave/time 1000 10 10000 v_zave v_zdes file simulation_data/abpot/49.dat
run             50000
Generated 0 of 1 mixed pair_coeff terms from geometric mixing rule
Per MPI rank memory allocation (min/avg/max) = 13.32 | 13.62 | 14.95 Mbytes
   Step          Temp          E_pair         E_mol          TotEng         Press     
   2910000   300.4656       381.7891       18524.557      19336.249     -60.00154     
   2920000   310.86316      368.34861      18523.708      19336.836     -329.86608    
   2930000   322.30306      386.09553      18513.522      19360.765      98.161825    
   2940000   300.04157      386.65985      18532.07       19348.026     -51.835082    
   2950000   300.80632      375.79811      18518.091      19324.279     -337.71287    
   2960000   296.10082      378.19225      18502.471      19304.321     -10.516426    
Loop time of 18.2417 on 64 procs for 50000 steps with 481 atoms

Performance: 11.841 ns/day, 2.027 hours/ns, 2740.977 timesteps/s, 1.318 Matom-step/s
100.0% CPU use with 64 MPI tasks x 1 OpenMP threads

MPI task timing breakdown:
Section |  min time  |  avg time  |  max time  |%varavg| %total
---------------------------------------------------------------
Pair    | 0.01691    | 0.67805    | 5.1223     | 143.9 |  3.72
Bond    | 0.0053965  | 0.79648    | 4.6018     | 149.7 |  4.37
Neigh   | 0.039935   | 0.043281   | 0.047204   |   0.8 |  0.24
Comm    | 7.1773     | 13.854     | 16.817     |  87.4 | 75.95
Output  | 0.007248   | 0.014211   | 0.021016   |   3.7 |  0.08
Modify  | 0.66394    | 2.2598     | 10.072     | 195.0 | 12.39
Other   |            | 0.596      |            |       |  3.27

Nlocal:        7.51562 ave          37 max           0 min
Histogram: 41 6 1 0 0 5 2 2 4 3
Nghost:        1821.64 ave        2408 max        1287 min
Histogram: 16 0 0 0 32 0 0 0 0 16
Neighs:              0 ave           0 max           0 min
Histogram: 64 0 0 0 0 0 0 0 0 0

Total # of neighbors = 0
Ave neighs/atom = 0
Ave special neighs/atom = 15.567568
Neighbor list builds = 88
Dangerous builds = 0
unfix           myat1
next            cpt
jump            SELF loop
variable        zdes equal  -15+0.60*(${cpt}-1)
variable        zdes equal  -15+0.60*(50-1)
variable        zave equal xcm(H2,z)
fix             mytth2 H2 spring tether ${k1} 2.5 2.5 ${zdes} 0
fix             mytth2 H2 spring tether 1.3 2.5 2.5 ${zdes} 0
fix             mytth2 H2 spring tether 1.3 2.5 2.5 14.4 0
run             10000
Generated 0 of 1 mixed pair_coeff terms from geometric mixing rule
Per MPI rank memory allocation (min/avg/max) = 13.32 | 13.62 | 14.95 Mbytes
   Step          Temp          E_pair         E_mol          TotEng         Press     
   2960000   296.10082      378.19225      18502.471      19304.321     -10.516426    
   2970000   296.91377      383.18719      18517.084      19325.092      7.2509106    
Loop time of 3.71488 on 64 procs for 10000 steps with 481 atoms

Performance: 11.629 ns/day, 2.064 hours/ns, 2691.874 timesteps/s, 1.295 Matom-step/s
100.0% CPU use with 64 MPI tasks x 1 OpenMP threads

MPI task timing breakdown:
Section |  min time  |  avg time  |  max time  |%varavg| %total
---------------------------------------------------------------
Pair    | 0.0034285  | 0.13529    | 1.0794     |  64.9 |  3.64
Bond    | 0.0010655  | 0.15891    | 0.96848    |  67.4 |  4.28
Neigh   | 0.0056472  | 0.0060749  | 0.0066442  |   0.3 |  0.16
Comm    | 1.3966     | 2.812      | 3.4344     |  40.3 | 75.70
Output  | 0.0014184  | 0.002799   | 0.0041835  |   1.6 |  0.08
Modify  | 0.13253    | 0.48051    | 2.0852     |  89.3 | 12.93
Other   |            | 0.1193     |            |       |  3.21

Nlocal:        7.51562 ave          37 max           0 min
Histogram: 43 5 0 0 1 3 2 4 4 2
Nghost:        1823.98 ave        2426 max        1290 min
Histogram: 16 0 0 0 32 0 0 0 0 16
Neighs:              0 ave           0 max           0 min
Histogram: 64 0 0 0 0 0 0 0 0 0

Total # of neighbors = 0
Ave neighs/atom = 0
Ave special neighs/atom = 15.567568
Neighbor list builds = 12
Dangerous builds = 0
fix             myat1 all ave/time 1000 10 10000 v_zave v_zdes file simulation_data/abpot/${cpt}.dat
fix             myat1 all ave/time 1000 10 10000 v_zave v_zdes file simulation_data/abpot/50.dat
run             50000
Generated 0 of 1 mixed pair_coeff terms from geometric mixing rule
Per MPI rank memory allocation (min/avg/max) = 13.32 | 13.62 | 14.95 Mbytes
   Step          Temp          E_pair         E_mol          TotEng         Press     
   2970000   296.91377      383.18719      18517.084      19325.092      7.2509106    
   2980000   281.26473      369.78057      18568.998      19341.209     -438.56155    
   2990000   300.33791      392.34174      18501.167      19323.229      440.64946    
   3000000   292.84347      386.78815      18516.526      19322.312      35.035122    
   3010000   290.66222      378.64507      18539.971      19334.493     -190.26237    
   3020000   310.22874      390.98031      18513.393      19348.245      257.45119    
Loop time of 18.706 on 64 procs for 50000 steps with 481 atoms

Performance: 11.547 ns/day, 2.078 hours/ns, 2672.938 timesteps/s, 1.286 Matom-step/s
100.0% CPU use with 64 MPI tasks x 1 OpenMP threads

MPI task timing breakdown:
Section |  min time  |  avg time  |  max time  |%varavg| %total
---------------------------------------------------------------
Pair    | 0.016504   | 0.71907    | 4.9509     | 148.5 |  3.84
Bond    | 0.0053942  | 0.82991    | 4.5197     | 152.1 |  4.44
Neigh   | 0.032999   | 0.035956   | 0.039239   |   0.7 |  0.19
Comm    | 7.4633     | 14.197     | 17.277     |  91.3 | 75.89
Output  | 0.0074031  | 0.014325   | 0.021122   |   3.6 |  0.08
Modify  | 0.67902    | 2.311      | 10.543     | 202.7 | 12.35
Other   |            | 0.5992     |            |       |  3.20

Nlocal:        7.51562 ave          35 max           0 min
Histogram: 44 0 4 0 0 1 4 2 8 1
Nghost:        1816.77 ave        2406 max        1294 min
Histogram: 16 0 0 0 32 0 0 0 0 16
Neighs:              0 ave           0 max           0 min
Histogram: 64 0 0 0 0 0 0 0 0 0

Total # of neighbors = 0
Ave neighs/atom = 0
Ave special neighs/atom = 15.567568
Neighbor list builds = 72
Dangerous builds = 0
unfix           myat1
next            cpt
jump            SELF loop
variable        zdes equal  -15+0.60*(${cpt}-1)
variable        zdes equal  -15+0.60*(51-1)
variable        zave equal xcm(H2,z)
fix             mytth2 H2 spring tether ${k1} 2.5 2.5 ${zdes} 0
fix             mytth2 H2 spring tether 1.3 2.5 2.5 ${zdes} 0
fix             mytth2 H2 spring tether 1.3 2.5 2.5 15 0
run             10000
Generated 0 of 1 mixed pair_coeff terms from geometric mixing rule
Per MPI rank memory allocation (min/avg/max) = 13.32 | 13.62 | 14.95 Mbytes
   Step          Temp          E_pair         E_mol          TotEng         Press     
   3020000   310.22874      390.98031      18513.393      19348.245      257.45119    
   3030000   305.47849      389.95067      18532.601      19359.627      166.797      
Loop time of 3.6922 on 64 procs for 10000 steps with 481 atoms

Performance: 11.700 ns/day, 2.051 hours/ns, 2708.412 timesteps/s, 1.303 Matom-step/s
100.0% CPU use with 64 MPI tasks x 1 OpenMP threads

MPI task timing breakdown:
Section |  min time  |  avg time  |  max time  |%varavg| %total
---------------------------------------------------------------
Pair    | 0.0033235  | 0.14395    | 1.0248     |  66.6 |  3.90
Bond    | 0.0010638  | 0.16572    | 0.9201     |  68.1 |  4.49
Neigh   | 0.0074448  | 0.0081018  | 0.0088379  |   0.3 |  0.22
Comm    | 1.4792     | 2.806      | 3.416      |  40.2 | 76.00
Output  | 0.0014254  | 0.0027986  | 0.0041764  |   1.6 |  0.08
Modify  | 0.12622    | 0.44595    | 2.046      |  88.8 | 12.08
Other   |            | 0.1196     |            |       |  3.24

Nlocal:        7.51562 ave          43 max           0 min
Histogram: 44 3 1 1 0 4 9 1 0 1
Nghost:        1820.23 ave        2411 max        1282 min
Histogram: 16 0 0 0 32 0 0 0 0 16
Neighs:              0 ave           0 max           0 min
Histogram: 64 0 0 0 0 0 0 0 0 0

Total # of neighbors = 0
Ave neighs/atom = 0
Ave special neighs/atom = 15.567568
Neighbor list builds = 16
Dangerous builds = 0
fix             myat1 all ave/time 1000 10 10000 v_zave v_zdes file simulation_data/abpot/${cpt}.dat
fix             myat1 all ave/time 1000 10 10000 v_zave v_zdes file simulation_data/abpot/51.dat
run             50000
Generated 0 of 1 mixed pair_coeff terms from geometric mixing rule
Per MPI rank memory allocation (min/avg/max) = 13.32 | 13.62 | 14.95 Mbytes
   Step          Temp          E_pair         E_mol          TotEng         Press     
   3030000   305.47849      389.95067      18532.601      19359.627      166.797      
   3040000   307.00982      368.55465      18526.502      19334.323     -361.08615    
   3050000   299.96879      383.34723      18501.884      19314.423     -81.095888    
   3060000   315.68941      381.78802      18528.077      19361.549     -62.535897    
   3070000   304.53007      382.69428      18515.788      19334.2       -113.52688    
   3080000   297.99491      380.29135      18521.877      19328.536     -132.0511     
Loop time of 18.7793 on 64 procs for 50000 steps with 481 atoms

Performance: 11.502 ns/day, 2.087 hours/ns, 2662.499 timesteps/s, 1.281 Matom-step/s
100.0% CPU use with 64 MPI tasks x 1 OpenMP threads

MPI task timing breakdown:
Section |  min time  |  avg time  |  max time  |%varavg| %total
---------------------------------------------------------------
Pair    | 0.017248   | 0.7208     | 5.0313     | 149.3 |  3.84
Bond    | 0.0053659  | 0.82925    | 4.5        | 152.0 |  4.42
Neigh   | 0.036034   | 0.039088   | 0.042592   |   0.8 |  0.21
Comm    | 7.5412     | 14.297     | 17.353     |  91.2 | 76.13
Output  | 0.0073895  | 0.014334   | 0.021156   |   3.7 |  0.08
Modify  | 0.65829    | 2.2849     | 10.54      | 204.2 | 12.17
Other   |            | 0.5945     |            |       |  3.17

Nlocal:        7.51562 ave          34 max           0 min
Histogram: 40 8 0 0 1 0 0 7 3 5
Nghost:        1815.73 ave        2398 max        1292 min
Histogram: 16 0 0 0 32 0 0 0 0 16
Neighs:              0 ave           0 max           0 min
Histogram: 64 0 0 0 0 0 0 0 0 0

Total # of neighbors = 0
Ave neighs/atom = 0
Ave special neighs/atom = 15.567568
Neighbor list builds = 76
Dangerous builds = 0
unfix           myat1
next            cpt
jump            SELF loop

Total wall time: 0:18:19
