# --- log file ---

variable pre equal 112 # desired pressure (Atm)
variable tem equal 300 # desired temperature (K)

variable k1 equal 1.4 # spring constant
variable k2 equal 3.5 # spring constant

units real
atom_style molecular
boundary p p p
neighbor 1.0 bin
neigh_modify delay 3 one 6000
bond_style harmonic
angle_style harmonic
dihedral_style opls
improper_style harmonic
pair_style hybrid lj/cut 14 sg 15 cb 30 # Fluid-fluid interactions have a cutoff of 15 Å, fluid-solid interactions have a cutoff of 30 Å
# *--* C-C parameters *--*
bond_style harmonic
angle_style harmonic
dihedral_style opls
improper_style harmonic
# *--* C-C parameters *--*


# 2. Read the graphite platelet data file and define potentials parameters
read_data       ../geometry/carbonPlatelets/simulation_data/abpot_sys.data  extra/atom/types 1
Reading data file ...
  orthogonal box = (-30 -30 -30) to (30 30 30)
  4 by 4 by 4 MPI processor grid
  reading atoms ...
  480 atoms
  reading velocities ...
  480 velocities
  scanning bonds ...
  2 = max bonds/atom
  scanning angles ...
  3 = max angles/atom
  scanning dihedrals ...
  8 = max dihedrals/atom
  scanning impropers ...
  2 = max impropers/atom
  orthogonal box = (-30 -30 -30) to (30 30 30)
  4 by 4 by 4 MPI processor grid
  reading bonds ...
  676 bonds
  reading angles ...
  1268 angles
  reading dihedrals ...
  2394 dihedrals
  reading impropers ...
  396 impropers
Finding 1-2 1-3 1-4 neighbors ...
  special bond factors lj:    0        0        0       
  special bond factors coul:  0        0        0       
     3 = max # of 1-2 neighbors
     6 = max # of 1-3 neighbors
    18 = max # of 1-4 neighbors
    18 = max # of special neighbors
  special bonds CPU = 0.002 seconds
  read_data CPU = 0.062 seconds
include         PARM.lammps

#////////////////////////////////////////////////////////////////////////////////////////////////////////////////////////////////
#//     Filename: PARM.lammps
#//     File Type: LAMMPS input script
#//     Description: This script defines the parameters for the simulation of hydrogen absorption in graphite platelets.
#//     Author: Edoardo Cabiati
#//     Date: 2024-07-27
#////////////////////////////////////////////////////////////////////////////////////////////////////////////////////////////////

mass 2 2.016 # For now at least, in accordance with the paper by Wang and Johnson,
             # 1998, the hydrogen atoms are regarded as simple spherical atoms

# //////////////////////////////////////    C-C potentials    //////////////////////////////////////
pair_coeff 1 1 lj/cut 0.066 3.4
bond_coeff 1 469 1.4
angle_coeff 1 63 120
dihedral_coeff 1 0 7.25 0 0
improper_coeff 1 5 180
special_bonds lj 0.0 0.0 0.5
Finding 1-2 1-3 1-4 neighbors ...
  special bond factors lj:    0        0        0.5     
  special bond factors coul:  0        0        0       
     3 = max # of 1-2 neighbors
     6 = max # of 1-3 neighbors
    18 = max # of 1-4 neighbors
    18 = max # of special neighbors
  special bonds CPU = 0.001 seconds
# //////////////////////////////////////    C-C potentials    //////////////////////////////////////
# -------------------------------------------------------------------------------------------------
# //////////////////////////////////////    H-H potentials    //////////////////////////////////////
variable alpha equal 1.713          #|
variable sigma equal 1.567          #|
variable gamma equal 0.00993        #|
variable c6 equal 12.14             #|      The parameters are all in atomic units, the conversion to kcal/mol
variable c8 equal 215.2             #|      is performed in the pair_sg.cpp file
variable c9 equal 143.1             #|
variable c10 equal 4813.9           #|
variable rc equal 8.321             #|
pair_coeff 2 2 sg ${alpha} ${sigma} ${gamma} ${c6} ${c8} ${c9} ${c10} ${rc} # H-H potentials
pair_coeff 2 2 sg 1.713 ${sigma} ${gamma} ${c6} ${c8} ${c9} ${c10} ${rc} 
pair_coeff 2 2 sg 1.713 1.567 ${gamma} ${c6} ${c8} ${c9} ${c10} ${rc} 
pair_coeff 2 2 sg 1.713 1.567 0.00993 ${c6} ${c8} ${c9} ${c10} ${rc} 
pair_coeff 2 2 sg 1.713 1.567 0.00993 12.14 ${c8} ${c9} ${c10} ${rc} 
pair_coeff 2 2 sg 1.713 1.567 0.00993 12.14 215.2 ${c9} ${c10} ${rc} 
pair_coeff 2 2 sg 1.713 1.567 0.00993 12.14 215.2 143.1 ${c10} ${rc} 
pair_coeff 2 2 sg 1.713 1.567 0.00993 12.14 215.2 143.1 4813.9 ${rc} 
pair_coeff 2 2 sg 1.713 1.567 0.00993 12.14 215.2 143.1 4813.9 8.321 
#pair_coeff 2 2 sg 1.713 1.567 0.00993 12.14 215.2 143.1 4813.9 8.321 # H-H potentials
# //////////////////////////////////////    H-H potentials    //////////////////////////////////////
# -------------------------------------------------------------------------------------------------
# //////////////////////////////////////    C-H potentials    //////////////////////////////////////
# Parameters taken from the paper by Wang and Johnson, 1998
variable sigma_CC equal 3.43 # Å
variable sigma_HH equal 3.075 # Å
variable sigma_CH_geo equal sqrt(${sigma_CC}*${sigma_HH}) # Å
variable sigma_CH_geo equal sqrt(3.43*${sigma_HH}) 
variable sigma_CH_geo equal sqrt(3.43*3.075) 
variable sigma_CH_arit equal 0.5*(${sigma_CC}+${sigma_HH}) # Å
variable sigma_CH_arit equal 0.5*(3.43+${sigma_HH}) 
variable sigma_CH_arit equal 0.5*(3.43+3.075) 

variable P_par equal 0.57 # Å^3
variable P_perp equal 1.995 # Å^3
variable P_h equal 0.81 # Å^3
variable E_h equal 2.337e5*(1/503.23) # K * 1/503.23 kcal/mol/K = kcal/mol
variable E_c equal 1.39254e5*(1/503.23) # K * 1/503.23 kcal/mol/K = kcal/mol

variable epsilon equal 4*(5/11)*v_E_h*v_E_c*v_P_h*(v_P_par+v_P_perp/2)/(v_sigma_CH_geo^6*(v_E_h+v_E_c)) # kcal/mol
# The formula taken from paper by Wang and Johnson, 1998 to construct epsilon does not seem to be consistent with the
# results obtained from the LAMMPS simulation. We will be using the value of epsilon obtained from the simplified
# version of the CB potential as 12-6 lennard-jones potential, presented in the paper "Theoretical investigation of the
# effect of graphite interlayer spacing on hydrogen absorption" by Rachel S. Aga, C. L. Fu, Maja Krčmar, and James R. Morris.
variable epsilon_sub equal 4*0.085094 # kcal/mol
variable sigma equal 2.97 # Å

pair_coeff 1 2 cb ${epsilon_sub} ${sigma} ${P_par} ${P_perp} # C-H potential
pair_coeff 1 2 cb 0.340376 ${sigma} ${P_par} ${P_perp} 
pair_coeff 1 2 cb 0.340376 2.97 ${P_par} ${P_perp} 
pair_coeff 1 2 cb 0.340376 2.97 0.57 ${P_perp} 
pair_coeff 1 2 cb 0.340376 2.97 0.57 1.995 
#pair_coeff 1 2 lj/cut 0.3025 2.065
# //////////////////////////////////////    C-H potentials    //////////////////////////////////////

# 3. Add a single hydrogen molecule to the system, close to the center of the first platelet
create_atoms    2 single 0 0 -2
Created 1 atoms
  using lattice units in orthogonal box = (-30 -30 -30) to (30 30 30)
  create_atoms CPU = 0.000 seconds

group           C type 1
480 atoms in group C
group           H2 type 2
1 atoms in group H2

# 4. Equilibration
timestep        0.05
fix             mytth1 C spring/self ${k2} # Apply a spring force to the carbon atoms
fix             mytth1 C spring/self 3.5 
velocity        all create ${tem} 48 rot yes mom yes dist gaussian # Initialize velocities
velocity        all create 300 48 rot yes mom yes dist gaussian 
fix             mynpt all npt temp ${tem} ${tem} 100 x ${pre} ${pre} 1000 y ${pre} ${pre} 1000 # Apply NPT ensemble to the system
fix             mynpt all npt temp 300 ${tem} 100 x ${pre} ${pre} 1000 y ${pre} ${pre} 1000 
fix             mynpt all npt temp 300 300 100 x ${pre} ${pre} 1000 y ${pre} ${pre} 1000 
fix             mynpt all npt temp 300 300 100 x 112 ${pre} 1000 y ${pre} ${pre} 1000 
fix             mynpt all npt temp 300 300 100 x 112 112 1000 y ${pre} ${pre} 1000 
fix             mynpt all npt temp 300 300 100 x 112 112 1000 y 112 ${pre} 1000 
fix             mynpt all npt temp 300 300 100 x 112 112 1000 y 112 112 1000 

thermo          10000
dump            dump all atom 1000 simulation_data/absorption_pot.lammpstrj

run             20000

CITE-CITE-CITE-CITE-CITE-CITE-CITE-CITE-CITE-CITE-CITE-CITE-CITE

Your simulation uses code contributions which should be cited:

- Type Label Framework: https://doi.org/10.1021/acs.jpcb.3c08419

@Article{Gissinger24,
 author = {Jacob R. Gissinger, Ilia Nikiforov, Yaser Afshar, Brendon Waters, Moon-ki Choi, Daniel S. Karls, Alexander Stukowski, Wonpil Im, Hendrik Heinz, Axel Kohlmeyer, and Ellad B. Tadmor},
 title = {Type Label Framework for Bonded Force Fields in LAMMPS},
 journal = {J. Phys. Chem. B},
 year =    2024,
 volume =  128,
 number =  13,
 pages =   {3282–-3297}
}

CITE-CITE-CITE-CITE-CITE-CITE-CITE-CITE-CITE-CITE-CITE-CITE-CITE

Generated 0 of 1 mixed pair_coeff terms from geometric mixing rule
Neighbor list info ...
  update: every = 1 steps, delay = 3 steps, check = yes
  max neighbors/atom: 6000, page size: 100000
  master list distance cutoff = 31
  ghost atom cutoff = 31
  binsize = 15.5, bins = 4 4 4
  4 neighbor lists, perpetual/occasional/extra = 4 0 0
  (1) pair lj/cut, perpetual, skip trim from (4)
      attributes: half, newton on, cut 15
      pair build: skip/trim
      stencil: none
      bin: none
  (2) pair sg, perpetual, skip trim from (4)
      attributes: half, newton on, cut 16
      pair build: skip/trim
      stencil: none
      bin: none
  (3) pair cb, perpetual, skip from (4)
      attributes: half, newton on
      pair build: skip
      stencil: none
      bin: none
  (4) neighbor class addition, perpetual
      attributes: half, newton on
      pair build: half/bin/newton
      stencil: half/bin/3d
      bin: standard
Per MPI rank memory allocation (min/avg/max) = 13.29 | 13.4 | 13.93 Mbytes
   Step          Temp          E_pair         E_mol          TotEng         Press          Volume    
         0   300            308.5124       19603.922      20341.671     -432.43506      216000       
     10000   308.71881      373.71132      18568.425      19383.847     -313.89117      172136.83    
     20000   319.74694      375.11214      18539.114      19371.717     -417.40409      126541.73    
Loop time of 8.2151 on 64 procs for 20000 steps with 481 atoms

Performance: 10.517 ns/day, 2.282 hours/ns, 2434.543 timesteps/s, 1.171 Matom-step/s
99.8% CPU use with 64 MPI tasks x 1 OpenMP threads

MPI task timing breakdown:
Section |  min time  |  avg time  |  max time  |%varavg| %total
---------------------------------------------------------------
Pair    | 0.13732    | 0.44671    | 2.7972     |  76.4 |  5.44
Bond    | 0.0037983  | 0.35332    | 2.0428     | 103.0 |  4.30
Neigh   | 0.019312   | 0.021734   | 0.023995   |   0.9 |  0.26
Comm    | 2.6449     | 4.8239     | 6.0202     |  49.7 | 58.72
Output  | 0.0035879  | 0.011269   | 0.020045   |   5.1 |  0.14
Modify  | 0.71235    | 2.2347     | 4.9318     |  87.0 | 27.20
Other   |            | 0.3235     |            |       |  3.94

Nlocal:        7.51562 ave          36 max           0 min
Histogram: 41 7 0 0 0 1 2 9 3 1
Nghost:        1804.95 ave        2371 max        1288 min
Histogram: 16 0 0 0 32 0 0 0 0 16
Neighs:              0 ave           0 max           0 min
Histogram: 64 0 0 0 0 0 0 0 0 0

Total # of neighbors = 0
Ave neighs/atom = 0
Ave special neighs/atom = 15.567568
Neighbor list builds = 52
Dangerous builds = 0
unfix           mynpt
unfix           mytth1

# 5. Umbrella sampling
fix             mynvt all nvt temp ${tem} ${tem} 100
fix             mynvt all nvt temp 300 ${tem} 100
fix             mynvt all nvt temp 300 300 100
fix             mytth1 C spring/self ${k2}
fix             mytth1 C spring/self 3.5

variable        cpt loop 51
label           loop
variable        zdes equal  -15+0.60*(${cpt}-1)
variable        zdes equal  -15+0.60*(1-1)
variable        zave equal xcm(H2,z)
fix             mytth2 H2 spring tether ${k1} 2.5 2.5 ${zdes} 0
fix             mytth2 H2 spring tether 1.4 2.5 2.5 ${zdes} 0
fix             mytth2 H2 spring tether 1.4 2.5 2.5 -15 0
run             10000
Generated 0 of 1 mixed pair_coeff terms from geometric mixing rule
Per MPI rank memory allocation (min/avg/max) = 13.32 | 13.62 | 14.95 Mbytes
   Step          Temp          E_pair         E_mol          TotEng         Press     
     20000   319.74694      375.11214      18539.114      19371.717     -417.40409    
     30000   281.18413      348.56085      18593.95       19344.826     -1152.7189    
Loop time of 3.65986 on 64 procs for 10000 steps with 481 atoms

Performance: 11.804 ns/day, 2.033 hours/ns, 2732.342 timesteps/s, 1.314 Matom-step/s
100.0% CPU use with 64 MPI tasks x 1 OpenMP threads

MPI task timing breakdown:
Section |  min time  |  avg time  |  max time  |%varavg| %total
---------------------------------------------------------------
Pair    | 0.0032952  | 0.13792    | 1.0486     |  67.0 |  3.77
Bond    | 0.0010665  | 0.15763    | 0.77424    |  64.6 |  4.31
Neigh   | 0.051149   | 0.056539   | 0.061291   |   1.1 |  1.54
Comm    | 1.5475     | 2.7467     | 3.3105     |  37.8 | 75.05
Output  | 0.001461   | 0.0040342  | 0.0069186  |   2.7 |  0.11
Modify  | 0.13803    | 0.44061    | 1.9307     |  84.6 | 12.04
Other   |            | 0.1164     |            |       |  3.18

Nlocal:        7.51562 ave          35 max           0 min
Histogram: 42 4 2 0 0 4 3 2 4 3
Nghost:        1806.83 ave        2378 max        1289 min
Histogram: 16 0 0 0 32 0 0 0 0 16
Neighs:              0 ave           0 max           0 min
Histogram: 64 0 0 0 0 0 0 0 0 0

Total # of neighbors = 0
Ave neighs/atom = 0
Ave special neighs/atom = 15.567568
Neighbor list builds = 130
Dangerous builds = 0
fix             myat1 all ave/time 1000 10 10000 v_zave v_zdes file simulation_data/abpot/${cpt}.dat
fix             myat1 all ave/time 1000 10 10000 v_zave v_zdes file simulation_data/abpot/1.dat
run             50000
Generated 0 of 1 mixed pair_coeff terms from geometric mixing rule
Per MPI rank memory allocation (min/avg/max) = 13.32 | 13.62 | 14.95 Mbytes
   Step          Temp          E_pair         E_mol          TotEng         Press     
     30000   281.18413      348.56085      18593.95       19344.826     -1152.7189    
     40000   305.99127      412.54891      18502.74       19353.097      676.4127     
     50000   294.79968      400.64492      18528.057      19350.498      222.78209    
     60000   304.40789      370.42756      18544.992      19350.963     -413.16879    
     70000   315.28948      386.45207      18537.727      19375.292     -244.99867    
     80000   314.42698      406.46707      18539.504      19395.849      265.36161    
Loop time of 17.7734 on 64 procs for 50000 steps with 481 atoms

Performance: 12.153 ns/day, 1.975 hours/ns, 2813.197 timesteps/s, 1.353 Matom-step/s
100.0% CPU use with 64 MPI tasks x 1 OpenMP threads

MPI task timing breakdown:
Section |  min time  |  avg time  |  max time  |%varavg| %total
---------------------------------------------------------------
Pair    | 0.016323   | 0.68016    | 5.3581     | 149.1 |  3.83
Bond    | 0.0054975  | 0.78816    | 4.0507     | 145.7 |  4.43
Neigh   | 0.17478    | 0.19351    | 0.20875    |   1.9 |  1.09
Comm    | 7.2343     | 13.398     | 16.184     |  83.9 | 75.38
Output  | 0.0072607  | 0.017405   | 0.028038   |   5.0 |  0.10
Modify  | 0.64772    | 2.1155     | 9.2623     | 184.3 | 11.90
Other   |            | 0.5805     |            |       |  3.27

Nlocal:        7.51562 ave          36 max           0 min
Histogram: 42 6 0 0 0 1 4 4 5 2
Nghost:        1823.89 ave        2415 max        1294 min
Histogram: 16 0 0 0 32 0 0 0 0 16
Neighs:              0 ave           0 max           0 min
Histogram: 64 0 0 0 0 0 0 0 0 0

Total # of neighbors = 0
Ave neighs/atom = 0
Ave special neighs/atom = 15.567568
Neighbor list builds = 428
Dangerous builds = 0
unfix           myat1
next            cpt
jump            SELF loop
variable        zdes equal  -15+0.60*(${cpt}-1)
variable        zdes equal  -15+0.60*(2-1)
variable        zave equal xcm(H2,z)
fix             mytth2 H2 spring tether ${k1} 2.5 2.5 ${zdes} 0
fix             mytth2 H2 spring tether 1.4 2.5 2.5 ${zdes} 0
fix             mytth2 H2 spring tether 1.4 2.5 2.5 -14.4 0
run             10000
Generated 0 of 1 mixed pair_coeff terms from geometric mixing rule
Per MPI rank memory allocation (min/avg/max) = 13.32 | 13.62 | 14.95 Mbytes
   Step          Temp          E_pair         E_mol          TotEng         Press     
     80000   314.42698      406.46707      18539.504      19395.849      265.36161    
     90000   309.16838      375.95931      18584.342      19402.656     -393.46765    
Loop time of 3.24968 on 64 procs for 10000 steps with 481 atoms

Performance: 13.294 ns/day, 1.805 hours/ns, 3077.223 timesteps/s, 1.480 Matom-step/s
100.0% CPU use with 64 MPI tasks x 1 OpenMP threads

MPI task timing breakdown:
Section |  min time  |  avg time  |  max time  |%varavg| %total
---------------------------------------------------------------
Pair    | 0.0031829  | 0.13367    | 1.0209     |  64.3 |  4.11
Bond    | 0.0010897  | 0.15715    | 0.74776    |  64.8 |  4.84
Neigh   | 0.015323   | 0.01719    | 0.018754   |   0.6 |  0.53
Comm    | 1.2328     | 2.4492     | 2.9652     |  35.3 | 75.37
Output  | 0.0014178  | 0.0030663  | 0.0048156  |   1.9 |  0.09
Modify  | 0.12466    | 0.37288    | 1.5742     |  72.8 | 11.47
Other   |            | 0.1165     |            |       |  3.59

Nlocal:        7.51562 ave          33 max           0 min
Histogram: 42 4 2 0 0 0 2 5 3 6
Nghost:        1815.92 ave        2404 max        1292 min
Histogram: 16 0 0 0 32 0 0 0 0 16
Neighs:              0 ave           0 max           0 min
Histogram: 64 0 0 0 0 0 0 0 0 0

Total # of neighbors = 0
Ave neighs/atom = 0
Ave special neighs/atom = 15.567568
Neighbor list builds = 41
Dangerous builds = 0
fix             myat1 all ave/time 1000 10 10000 v_zave v_zdes file simulation_data/abpot/${cpt}.dat
fix             myat1 all ave/time 1000 10 10000 v_zave v_zdes file simulation_data/abpot/2.dat
run             50000
Generated 0 of 1 mixed pair_coeff terms from geometric mixing rule
Per MPI rank memory allocation (min/avg/max) = 13.32 | 13.62 | 14.95 Mbytes
   Step          Temp          E_pair         E_mol          TotEng         Press     
     90000   309.16838      375.95931      18584.342      19402.656     -393.46765    
    100000   310.64164      375.21777      18558.603      19378.284     -346.98904    
    110000   295.53804      403.62703      18532.191      19358.67       438.36791    
    120000   305.39838      382.21137      18526.422      19345.594     -129.36395    
    130000   296.06304      378.03372      18530.605      19332.243     -156.2816     
    140000   312.75483      391.98485      18521.789      19361.26       114.80044    
Loop time of 17.0787 on 64 procs for 50000 steps with 481 atoms

Performance: 12.647 ns/day, 1.898 hours/ns, 2927.631 timesteps/s, 1.408 Matom-step/s
100.0% CPU use with 64 MPI tasks x 1 OpenMP threads

MPI task timing breakdown:
Section |  min time  |  avg time  |  max time  |%varavg| %total
---------------------------------------------------------------
Pair    | 0.016144   | 0.67016    | 5.6713     | 147.0 |  3.92
Bond    | 0.0054783  | 0.78873    | 4.0232     | 146.1 |  4.62
Neigh   | 0.044416   | 0.049199   | 0.053225   |   1.0 |  0.29
Comm    | 6.1387     | 12.92      | 15.723     |  82.5 | 75.65
Output  | 0.0070854  | 0.014736   | 0.022401   |   4.0 |  0.09
Modify  | 0.59478    | 2.0544     | 8.7629     | 176.8 | 12.03
Other   |            | 0.5814     |            |       |  3.40

Nlocal:        7.51562 ave          38 max           0 min
Histogram: 41 6 1 0 1 1 6 5 2 1
Nghost:        1820.33 ave        2408 max        1286 min
Histogram: 16 0 0 0 32 0 0 0 0 16
Neighs:              0 ave           0 max           0 min
Histogram: 64 0 0 0 0 0 0 0 0 0

Total # of neighbors = 0
Ave neighs/atom = 0
Ave special neighs/atom = 15.567568
Neighbor list builds = 109
Dangerous builds = 0
unfix           myat1
next            cpt
jump            SELF loop
variable        zdes equal  -15+0.60*(${cpt}-1)
variable        zdes equal  -15+0.60*(3-1)
variable        zave equal xcm(H2,z)
fix             mytth2 H2 spring tether ${k1} 2.5 2.5 ${zdes} 0
fix             mytth2 H2 spring tether 1.4 2.5 2.5 ${zdes} 0
fix             mytth2 H2 spring tether 1.4 2.5 2.5 -13.8 0
run             10000
Generated 0 of 1 mixed pair_coeff terms from geometric mixing rule
Per MPI rank memory allocation (min/avg/max) = 13.32 | 13.62 | 14.95 Mbytes
   Step          Temp          E_pair         E_mol          TotEng         Press     
    140000   312.75483      391.98485      18521.789      19361.26       114.80044    
    150000   305.3297       388.21321      18543.565      19368.641     -83.555849    
Loop time of 3.45709 on 64 procs for 10000 steps with 481 atoms

Performance: 12.496 ns/day, 1.921 hours/ns, 2892.608 timesteps/s, 1.391 Matom-step/s
99.9% CPU use with 64 MPI tasks x 1 OpenMP threads

MPI task timing breakdown:
Section |  min time  |  avg time  |  max time  |%varavg| %total
---------------------------------------------------------------
Pair    | 0.003232   | 0.13491    | 1.1846     |  66.8 |  3.90
Bond    | 0.0010978  | 0.15832    | 0.84822    |  65.7 |  4.58
Neigh   | 0.0074672  | 0.0082852  | 0.0089439  |   0.4 |  0.24
Comm    | 1.1767     | 2.6298     | 3.1867     |  37.6 | 76.07
Output  | 0.0013794  | 0.0029288  | 0.0044639  |   1.8 |  0.08
Modify  | 0.12293    | 0.40681    | 1.8078     |  81.7 | 11.77
Other   |            | 0.1161     |            |       |  3.36

Nlocal:        7.51562 ave          34 max           0 min
Histogram: 40 8 0 0 0 0 1 9 3 3
Nghost:        1826.52 ave        2430 max        1290 min
Histogram: 16 0 0 0 32 0 0 0 0 16
Neighs:              0 ave           0 max           0 min
Histogram: 64 0 0 0 0 0 0 0 0 0

Total # of neighbors = 0
Ave neighs/atom = 0
Ave special neighs/atom = 15.567568
Neighbor list builds = 18
Dangerous builds = 0
fix             myat1 all ave/time 1000 10 10000 v_zave v_zdes file simulation_data/abpot/${cpt}.dat
fix             myat1 all ave/time 1000 10 10000 v_zave v_zdes file simulation_data/abpot/3.dat
run             50000
Generated 0 of 1 mixed pair_coeff terms from geometric mixing rule
Per MPI rank memory allocation (min/avg/max) = 13.32 | 13.62 | 14.95 Mbytes
   Step          Temp          E_pair         E_mol          TotEng         Press     
    150000   305.3297       388.21321      18543.565      19368.641     -83.555849    
    160000   305.6186       377.50819      18535.416      19350.2       -245.06524    
    170000   295.94253      379.1054       18504.863      19307.4       -154.1804     
    180000   289.58748      396.75563      18569.161      19380.255      166.34262    
    190000   320.35141      382.38782      18530.443      19371.186     -134.91854    
    200000   282.26984      381.73939      18541.434      19327.042     -129.87646    
Loop time of 17.1122 on 64 procs for 50000 steps with 481 atoms

Performance: 12.623 ns/day, 1.901 hours/ns, 2921.888 timesteps/s, 1.405 Matom-step/s
100.0% CPU use with 64 MPI tasks x 1 OpenMP threads

MPI task timing breakdown:
Section |  min time  |  avg time  |  max time  |%varavg| %total
---------------------------------------------------------------
Pair    | 0.01575    | 0.67281    | 5.3064     | 147.3 |  3.93
Bond    | 0.0054382  | 0.79048    | 4.3905     | 146.8 |  4.62
Neigh   | 0.043493   | 0.048123   | 0.051974   |   0.9 |  0.28
Comm    | 6.6423     | 12.958     | 15.743     |  82.7 | 75.73
Output  | 0.0071172  | 0.014272   | 0.021368   |   3.8 |  0.08
Modify  | 0.61586    | 2.0487     | 8.7871     | 176.8 | 11.97
Other   |            | 0.5794     |            |       |  3.39

Nlocal:        7.51562 ave          35 max           0 min
Histogram: 42 4 2 0 0 1 3 5 5 2
Nghost:         1819.2 ave        2408 max        1290 min
Histogram: 16 0 0 0 32 0 0 0 0 16
Neighs:              0 ave           0 max           0 min
Histogram: 64 0 0 0 0 0 0 0 0 0

Total # of neighbors = 0
Ave neighs/atom = 0
Ave special neighs/atom = 15.567568
Neighbor list builds = 103
Dangerous builds = 0
unfix           myat1
next            cpt
jump            SELF loop
variable        zdes equal  -15+0.60*(${cpt}-1)
variable        zdes equal  -15+0.60*(4-1)
variable        zave equal xcm(H2,z)
fix             mytth2 H2 spring tether ${k1} 2.5 2.5 ${zdes} 0
fix             mytth2 H2 spring tether 1.4 2.5 2.5 ${zdes} 0
fix             mytth2 H2 spring tether 1.4 2.5 2.5 -13.2 0
run             10000
Generated 0 of 1 mixed pair_coeff terms from geometric mixing rule
Per MPI rank memory allocation (min/avg/max) = 13.32 | 13.62 | 14.95 Mbytes
   Step          Temp          E_pair         E_mol          TotEng         Press     
    200000   282.26984      381.73939      18541.434      19327.042     -129.87646    
    210000   283.92679      379.82716      18531.306      19317.372     -123.61189    
Loop time of 3.46189 on 64 procs for 10000 steps with 481 atoms

Performance: 12.479 ns/day, 1.923 hours/ns, 2888.595 timesteps/s, 1.389 Matom-step/s
100.0% CPU use with 64 MPI tasks x 1 OpenMP threads

MPI task timing breakdown:
Section |  min time  |  avg time  |  max time  |%varavg| %total
---------------------------------------------------------------
Pair    | 0.0032056  | 0.13525    | 1.1529     |  66.8 |  3.91
Bond    | 0.0010895  | 0.15884    | 0.8547     |  66.5 |  4.59
Neigh   | 0.0063522  | 0.0070352  | 0.0075865  |   0.3 |  0.20
Comm    | 1.2423     | 2.6278     | 3.1912     |  37.8 | 75.91
Output  | 0.001398   | 0.0027961  | 0.0042193  |   1.7 |  0.08
Modify  | 0.12289    | 0.41415    | 1.8146     |  82.0 | 11.96
Other   |            | 0.116      |            |       |  3.35

Nlocal:        7.51562 ave          36 max           0 min
Histogram: 41 7 0 0 0 2 4 4 3 3
Nghost:        1819.77 ave        2416 max        1288 min
Histogram: 16 0 0 0 32 0 0 0 0 16
Neighs:              0 ave           0 max           0 min
Histogram: 64 0 0 0 0 0 0 0 0 0

Total # of neighbors = 0
Ave neighs/atom = 0
Ave special neighs/atom = 15.567568
Neighbor list builds = 15
Dangerous builds = 0
fix             myat1 all ave/time 1000 10 10000 v_zave v_zdes file simulation_data/abpot/${cpt}.dat
fix             myat1 all ave/time 1000 10 10000 v_zave v_zdes file simulation_data/abpot/4.dat
run             50000
Generated 0 of 1 mixed pair_coeff terms from geometric mixing rule
Per MPI rank memory allocation (min/avg/max) = 13.32 | 13.62 | 14.95 Mbytes
   Step          Temp          E_pair         E_mol          TotEng         Press     
    210000   283.92679      379.82716      18531.306      19317.372     -123.61189    
    220000   302.10433      384.27382      18519.75       19336.271     -3.5552689    
    230000   311.81249      379.81475      18522.503      19348.456     -209.1433     
    240000   289.05652      387.94816      18560.14       19361.667     -105.05179    
    250000   307.92208      398.34972      18567.331      19406.253      221.02442    
    260000   312.16172      379.85985      18519.351      19345.848     -177.27175    
Loop time of 17.0303 on 64 procs for 50000 steps with 481 atoms

Performance: 12.683 ns/day, 1.892 hours/ns, 2935.936 timesteps/s, 1.412 Matom-step/s
100.0% CPU use with 64 MPI tasks x 1 OpenMP threads

MPI task timing breakdown:
Section |  min time  |  avg time  |  max time  |%varavg| %total
---------------------------------------------------------------
Pair    | 0.016157   | 0.67247    | 5.8166     | 148.4 |  3.95
Bond    | 0.0054353  | 0.79071    | 4.3427     | 147.5 |  4.64
Neigh   | 0.035569   | 0.039518   | 0.042627   |   0.9 |  0.23
Comm    | 6.0384     | 12.905     | 15.703     |  82.6 | 75.78
Output  | 0.0071058  | 0.014103   | 0.021052   |   3.7 |  0.08
Modify  | 0.59748    | 2.0297     | 8.6822     | 176.4 | 11.92
Other   |            | 0.579      |            |       |  3.40

Nlocal:        7.51562 ave          35 max           0 min
Histogram: 41 6 1 0 1 1 2 6 2 4
Nghost:        1816.77 ave        2401 max        1291 min
Histogram: 16 0 0 0 32 0 0 0 0 16
Neighs:              0 ave           0 max           0 min
Histogram: 64 0 0 0 0 0 0 0 0 0

Total # of neighbors = 0
Ave neighs/atom = 0
Ave special neighs/atom = 15.567568
Neighbor list builds = 87
Dangerous builds = 0
unfix           myat1
next            cpt
jump            SELF loop
variable        zdes equal  -15+0.60*(${cpt}-1)
variable        zdes equal  -15+0.60*(5-1)
variable        zave equal xcm(H2,z)
fix             mytth2 H2 spring tether ${k1} 2.5 2.5 ${zdes} 0
fix             mytth2 H2 spring tether 1.4 2.5 2.5 ${zdes} 0
fix             mytth2 H2 spring tether 1.4 2.5 2.5 -12.6 0
run             10000
Generated 0 of 1 mixed pair_coeff terms from geometric mixing rule
Per MPI rank memory allocation (min/avg/max) = 13.32 | 13.62 | 14.95 Mbytes
   Step          Temp          E_pair         E_mol          TotEng         Press     
    260000   312.16172      379.85985      18519.351      19345.848     -177.27175    
    270000   291.08976      376.70088      18556.248      19349.437     -344.59138    
Loop time of 3.30599 on 64 procs for 10000 steps with 481 atoms

Performance: 13.067 ns/day, 1.837 hours/ns, 3024.813 timesteps/s, 1.455 Matom-step/s
99.9% CPU use with 64 MPI tasks x 1 OpenMP threads

MPI task timing breakdown:
Section |  min time  |  avg time  |  max time  |%varavg| %total
---------------------------------------------------------------
Pair    | 0.0031993  | 0.1338     | 1.0692     |  65.0 |  4.05
Bond    | 0.0010838  | 0.15729    | 0.80329    |  65.2 |  4.76
Neigh   | 0.0078716  | 0.0088128  | 0.0095444  |   0.4 |  0.27
Comm    | 1.2971     | 2.5043     | 3.0452     |  35.7 | 75.75
Output  | 0.0013668  | 0.0027402  | 0.0041556  |   1.7 |  0.08
Modify  | 0.11343    | 0.38357    | 1.6377     |  74.7 | 11.60
Other   |            | 0.1154     |            |       |  3.49

Nlocal:        7.51562 ave          34 max           0 min
Histogram: 41 6 1 0 0 1 1 7 4 3
Nghost:        1814.98 ave        2398 max        1291 min
Histogram: 16 0 0 0 32 0 0 0 0 16
Neighs:              0 ave           0 max           0 min
Histogram: 64 0 0 0 0 0 0 0 0 0

Total # of neighbors = 0
Ave neighs/atom = 0
Ave special neighs/atom = 15.567568
Neighbor list builds = 20
Dangerous builds = 0
fix             myat1 all ave/time 1000 10 10000 v_zave v_zdes file simulation_data/abpot/${cpt}.dat
fix             myat1 all ave/time 1000 10 10000 v_zave v_zdes file simulation_data/abpot/5.dat
run             50000
Generated 0 of 1 mixed pair_coeff terms from geometric mixing rule
Per MPI rank memory allocation (min/avg/max) = 13.32 | 13.62 | 14.95 Mbytes
   Step          Temp          E_pair         E_mol          TotEng         Press     
    270000   291.08976      376.70088      18556.248      19349.437     -344.59138    
    280000   276.05183      392.81325      18541.045      19328.83       115.85122    
    290000   303.04509      387.08637      18545.758      19366.438     -166.33446    
    300000   316.07992      379.27539      18555.467      19386.986     -266.52235    
    310000   298.28634      383.57272      18551.915      19362.272     -36.345036    
    320000   298.78598      393.13861      18524.854      19345.492      131.98048    
Loop time of 16.2534 on 64 procs for 50000 steps with 481 atoms

Performance: 13.290 ns/day, 1.806 hours/ns, 3076.276 timesteps/s, 1.480 Matom-step/s
100.0% CPU use with 64 MPI tasks x 1 OpenMP threads

MPI task timing breakdown:
Section |  min time  |  avg time  |  max time  |%varavg| %total
---------------------------------------------------------------
Pair    | 0.016083   | 0.66774    | 4.8616     | 143.5 |  4.11
Bond    | 0.0054895  | 0.78596    | 4.0617     | 145.6 |  4.84
Neigh   | 0.043274   | 0.048576   | 0.052642   |   1.1 |  0.30
Comm    | 6.904      | 12.288     | 14.876     |  78.9 | 75.61
Output  | 0.0070808  | 0.014156   | 0.021145   |   3.8 |  0.09
Modify  | 0.63003    | 1.869      | 7.9082     | 163.2 | 11.50
Other   |            | 0.5795     |            |       |  3.57

Nlocal:        7.51562 ave          33 max           0 min
Histogram: 41 6 1 0 0 0 2 5 4 5
Nghost:        1817.89 ave        2405 max        1291 min
Histogram: 16 0 0 0 32 0 0 0 0 16
Neighs:              0 ave           0 max           0 min
Histogram: 64 0 0 0 0 0 0 0 0 0

Total # of neighbors = 0
Ave neighs/atom = 0
Ave special neighs/atom = 15.567568
Neighbor list builds = 114
Dangerous builds = 0
unfix           myat1
next            cpt
jump            SELF loop
variable        zdes equal  -15+0.60*(${cpt}-1)
variable        zdes equal  -15+0.60*(6-1)
variable        zave equal xcm(H2,z)
fix             mytth2 H2 spring tether ${k1} 2.5 2.5 ${zdes} 0
fix             mytth2 H2 spring tether 1.4 2.5 2.5 ${zdes} 0
fix             mytth2 H2 spring tether 1.4 2.5 2.5 -12 0
run             10000
Generated 0 of 1 mixed pair_coeff terms from geometric mixing rule
Per MPI rank memory allocation (min/avg/max) = 13.32 | 13.62 | 14.95 Mbytes
   Step          Temp          E_pair         E_mol          TotEng         Press     
    320000   298.78598      393.13861      18524.854      19345.492      131.98048    
    330000   312.74278      383.05801      18538.473      19369         -166.11969    
Loop time of 3.24802 on 64 procs for 10000 steps with 481 atoms

Performance: 13.300 ns/day, 1.804 hours/ns, 3078.798 timesteps/s, 1.481 Matom-step/s
100.0% CPU use with 64 MPI tasks x 1 OpenMP threads

MPI task timing breakdown:
Section |  min time  |  avg time  |  max time  |%varavg| %total
---------------------------------------------------------------
Pair    | 0.0031629  | 0.13329    | 0.94907    |  64.3 |  4.10
Bond    | 0.0010798  | 0.15704    | 0.85432    |  65.5 |  4.84
Neigh   | 0.0067262  | 0.0075295  | 0.0081937  |   0.4 |  0.23
Comm    | 1.3406     | 2.4564     | 2.9822     |  35.5 | 75.63
Output  | 0.001455   | 0.0028372  | 0.0042483  |   1.6 |  0.09
Modify  | 0.12011    | 0.37518    | 1.5881     |  73.7 | 11.55
Other   |            | 0.1157     |            |       |  3.56

Nlocal:        7.51562 ave          36 max           0 min
Histogram: 43 3 2 0 1 1 5 3 2 4
Nghost:        1817.98 ave        2412 max        1290 min
Histogram: 16 0 0 0 32 0 0 0 0 16
Neighs:              0 ave           0 max           0 min
Histogram: 64 0 0 0 0 0 0 0 0 0

Total # of neighbors = 0
Ave neighs/atom = 0
Ave special neighs/atom = 15.567568
Neighbor list builds = 17
Dangerous builds = 0
fix             myat1 all ave/time 1000 10 10000 v_zave v_zdes file simulation_data/abpot/${cpt}.dat
fix             myat1 all ave/time 1000 10 10000 v_zave v_zdes file simulation_data/abpot/6.dat
run             50000
Generated 0 of 1 mixed pair_coeff terms from geometric mixing rule
Per MPI rank memory allocation (min/avg/max) = 13.32 | 13.62 | 14.95 Mbytes
   Step          Temp          E_pair         E_mol          TotEng         Press     
    330000   312.74278      383.05801      18538.473      19369         -166.11969    
    340000   299.72919      384.08188      18568.352      19381.283     -75.564472    
    350000   307.71063      383.67118      18554.058      19377.998     -30.849103    
    360000   308.83861      388.22719      18555.126      19385.236     -13.215776    
    370000   285.78894      400.41864      18543.257      19352.579      349.90558    
    380000   287.48813      373.91135      18549.581      19334.827     -362.41356    
Loop time of 16.8096 on 64 procs for 50000 steps with 481 atoms

Performance: 12.850 ns/day, 1.868 hours/ns, 2974.482 timesteps/s, 1.431 Matom-step/s
100.0% CPU use with 64 MPI tasks x 1 OpenMP threads

MPI task timing breakdown:
Section |  min time  |  avg time  |  max time  |%varavg| %total
---------------------------------------------------------------
Pair    | 0.015867   | 0.67203    | 5.2577     | 146.2 |  4.00
Bond    | 0.0054418  | 0.79216    | 4.4931     | 148.0 |  4.71
Neigh   | 0.031401   | 0.03489    | 0.037759   |   0.9 |  0.21
Comm    | 6.5888     | 12.74      | 15.441     |  81.9 | 75.79
Output  | 0.0072846  | 0.014234   | 0.021136   |   3.7 |  0.08
Modify  | 0.62459    | 1.9759     | 8.4896     | 173.6 | 11.75
Other   |            | 0.5806     |            |       |  3.45

Nlocal:        7.51562 ave          41 max           0 min
Histogram: 44 4 0 0 3 2 6 0 3 2
Nghost:        1822.39 ave        2413 max        1283 min
Histogram: 16 0 0 0 32 0 0 0 0 16
Neighs:              0 ave           0 max           0 min
Histogram: 64 0 0 0 0 0 0 0 0 0

Total # of neighbors = 0
Ave neighs/atom = 0
Ave special neighs/atom = 15.567568
Neighbor list builds = 78
Dangerous builds = 0
unfix           myat1
next            cpt
jump            SELF loop
variable        zdes equal  -15+0.60*(${cpt}-1)
variable        zdes equal  -15+0.60*(7-1)
variable        zave equal xcm(H2,z)
fix             mytth2 H2 spring tether ${k1} 2.5 2.5 ${zdes} 0
fix             mytth2 H2 spring tether 1.4 2.5 2.5 ${zdes} 0
fix             mytth2 H2 spring tether 1.4 2.5 2.5 -11.4 0
run             10000
Generated 0 of 1 mixed pair_coeff terms from geometric mixing rule
Per MPI rank memory allocation (min/avg/max) = 13.32 | 13.62 | 14.95 Mbytes
   Step          Temp          E_pair         E_mol          TotEng         Press     
    380000   287.48813      373.91135      18549.581      19334.827     -362.41356    
    390000   290.76239      386.81317      18532.146      19334.978     -210.35464    
Loop time of 3.30441 on 64 procs for 10000 steps with 481 atoms

Performance: 13.073 ns/day, 1.836 hours/ns, 3026.263 timesteps/s, 1.456 Matom-step/s
100.0% CPU use with 64 MPI tasks x 1 OpenMP threads

MPI task timing breakdown:
Section |  min time  |  avg time  |  max time  |%varavg| %total
---------------------------------------------------------------
Pair    | 0.003209   | 0.13459    | 0.9218     |  64.5 |  4.07
Bond    | 0.0010909  | 0.15844    | 0.8831     |  66.3 |  4.79
Neigh   | 0.0063956  | 0.0071223  | 0.0076521  |   0.4 |  0.22
Comm    | 1.3041     | 2.5013     | 3.0122     |  36.0 | 75.70
Output  | 0.0014665  | 0.0028347  | 0.0042337  |   1.6 |  0.09
Modify  | 0.13739    | 0.38355    | 1.65       |  75.4 | 11.61
Other   |            | 0.1166     |            |       |  3.53

Nlocal:        7.51562 ave          35 max           0 min
Histogram: 40 8 0 0 0 0 5 2 6 3
Nghost:        1818.83 ave        2402 max        1289 min
Histogram: 16 0 0 0 32 0 0 0 0 16
Neighs:              0 ave           0 max           0 min
Histogram: 64 0 0 0 0 0 0 0 0 0

Total # of neighbors = 0
Ave neighs/atom = 0
Ave special neighs/atom = 15.567568
Neighbor list builds = 16
Dangerous builds = 0
fix             myat1 all ave/time 1000 10 10000 v_zave v_zdes file simulation_data/abpot/${cpt}.dat
fix             myat1 all ave/time 1000 10 10000 v_zave v_zdes file simulation_data/abpot/7.dat
run             50000
Generated 0 of 1 mixed pair_coeff terms from geometric mixing rule
Per MPI rank memory allocation (min/avg/max) = 13.32 | 13.62 | 14.95 Mbytes
   Step          Temp          E_pair         E_mol          TotEng         Press     
    390000   290.76239      386.81317      18532.146      19334.978     -210.35464    
    400000   313.8984       387.46887      18549.646      19386.237     -36.966197    
    410000   297.9192       387.97459      18549.142      19363.376     -31.429424    
    420000   306.75847      379.87622      18517.368      19336.151     -144.92275    
    430000   309.4617       387.24606      18536.256      19366.276      114.01854    
    440000   297.75229      388.02342      18544.968      19359.012     -181.83896    
Loop time of 16.9823 on 64 procs for 50000 steps with 481 atoms

Performance: 12.719 ns/day, 1.887 hours/ns, 2944.238 timesteps/s, 1.416 Matom-step/s
100.0% CPU use with 64 MPI tasks x 1 OpenMP threads

MPI task timing breakdown:
Section |  min time  |  avg time  |  max time  |%varavg| %total
---------------------------------------------------------------
Pair    | 0.015999   | 0.67321    | 4.9017     | 145.3 |  3.96
Bond    | 0.0054382  | 0.79161    | 4.4076     | 147.9 |  4.66
Neigh   | 0.027907   | 0.030991   | 0.033316   |   0.8 |  0.18
Comm    | 6.9617     | 12.902     | 15.552     |  81.0 | 75.97
Output  | 0.0073957  | 0.014323   | 0.021228   |   3.7 |  0.08
Modify  | 0.67804    | 1.989      | 8.6683     | 172.9 | 11.71
Other   |            | 0.5815     |            |       |  3.42

Nlocal:        7.51562 ave          37 max           0 min
Histogram: 43 4 1 0 1 3 4 0 6 2
Nghost:        1821.36 ave        2415 max        1289 min
Histogram: 16 0 0 0 32 0 0 0 0 16
Neighs:              0 ave           0 max           0 min
Histogram: 64 0 0 0 0 0 0 0 0 0

Total # of neighbors = 0
Ave neighs/atom = 0
Ave special neighs/atom = 15.567568
Neighbor list builds = 67
Dangerous builds = 0
unfix           myat1
next            cpt
jump            SELF loop
variable        zdes equal  -15+0.60*(${cpt}-1)
variable        zdes equal  -15+0.60*(8-1)
variable        zave equal xcm(H2,z)
fix             mytth2 H2 spring tether ${k1} 2.5 2.5 ${zdes} 0
fix             mytth2 H2 spring tether 1.4 2.5 2.5 ${zdes} 0
fix             mytth2 H2 spring tether 1.4 2.5 2.5 -10.8 0
run             10000
Generated 0 of 1 mixed pair_coeff terms from geometric mixing rule
Per MPI rank memory allocation (min/avg/max) = 13.32 | 13.62 | 14.95 Mbytes
   Step          Temp          E_pair         E_mol          TotEng         Press     
    440000   297.75229      388.02342      18544.968      19359.012     -181.83896    
    450000   298.49331      380.75844      18521.44       19329.28      -167.46756    
Loop time of 3.35939 on 64 procs for 10000 steps with 481 atoms

Performance: 12.859 ns/day, 1.866 hours/ns, 2976.729 timesteps/s, 1.432 Matom-step/s
100.0% CPU use with 64 MPI tasks x 1 OpenMP threads

MPI task timing breakdown:
Section |  min time  |  avg time  |  max time  |%varavg| %total
---------------------------------------------------------------
Pair    | 0.0032343  | 0.13434    | 0.97868    |  65.0 |  4.00
Bond    | 0.0010754  | 0.15782    | 0.84593    |  65.8 |  4.70
Neigh   | 0.005751   | 0.0064316  | 0.0069786  |   0.4 |  0.19
Comm    | 1.416      | 2.5435     | 3.0974     |  36.5 | 75.71
Output  | 0.0014409  | 0.0028139  | 0.0042114  |   1.6 |  0.08
Modify  | 0.11749    | 0.39827    | 1.7055     |  77.4 | 11.86
Other   |            | 0.1162     |            |       |  3.46

Nlocal:        7.51562 ave          40 max           0 min
Histogram: 42 5 1 1 0 3 3 7 1 1
Nghost:         1822.2 ave        2411 max        1289 min
Histogram: 16 0 0 0 32 0 0 0 0 16
Neighs:              0 ave           0 max           0 min
Histogram: 64 0 0 0 0 0 0 0 0 0

Total # of neighbors = 0
Ave neighs/atom = 0
Ave special neighs/atom = 15.567568
Neighbor list builds = 14
Dangerous builds = 0
fix             myat1 all ave/time 1000 10 10000 v_zave v_zdes file simulation_data/abpot/${cpt}.dat
fix             myat1 all ave/time 1000 10 10000 v_zave v_zdes file simulation_data/abpot/8.dat
run             50000
Generated 0 of 1 mixed pair_coeff terms from geometric mixing rule
Per MPI rank memory allocation (min/avg/max) = 13.32 | 13.62 | 14.95 Mbytes
   Step          Temp          E_pair         E_mol          TotEng         Press     
    450000   298.49331      380.75844      18521.44       19329.28      -167.46756    
    460000   294.41338      381.52243      18521.35       19324.116     -101.02228    
    470000   278.26627      391.91055      18521.452      19311.503      152.99279    
    480000   290.71526      393.05029      18534.974      19343.976      124.50344    
    490000   297.99159      380.76623      18548.423      19355.552     -329.11322    
    500000   300.1363       381.64144      18535.737      19346.81      -68.662225    
Loop time of 16.8193 on 64 procs for 50000 steps with 481 atoms

Performance: 12.842 ns/day, 1.869 hours/ns, 2972.768 timesteps/s, 1.430 Matom-step/s
100.0% CPU use with 64 MPI tasks x 1 OpenMP threads

MPI task timing breakdown:
Section |  min time  |  avg time  |  max time  |%varavg| %total
---------------------------------------------------------------
Pair    | 0.016264   | 0.67371    | 5.1481     | 146.0 |  4.01
Bond    | 0.0054138  | 0.79382    | 4.6372     | 149.4 |  4.72
Neigh   | 0.03043    | 0.03399    | 0.036855   |   0.8 |  0.20
Comm    | 6.681      | 12.751     | 15.412     |  81.8 | 75.81
Output  | 0.0073099  | 0.014218   | 0.021089   |   3.7 |  0.08
Modify  | 0.65547    | 1.9699     | 8.4938     | 172.7 | 11.71
Other   |            | 0.5828     |            |       |  3.47

Nlocal:        7.51562 ave          35 max           0 min
Histogram: 43 3 2 0 0 1 3 4 5 3
Nghost:        1815.55 ave        2394 max        1292 min
Histogram: 16 0 0 0 32 0 0 0 0 16
Neighs:              0 ave           0 max           0 min
Histogram: 64 0 0 0 0 0 0 0 0 0

Total # of neighbors = 0
Ave neighs/atom = 0
Ave special neighs/atom = 15.567568
Neighbor list builds = 76
Dangerous builds = 0
unfix           myat1
next            cpt
jump            SELF loop
variable        zdes equal  -15+0.60*(${cpt}-1)
variable        zdes equal  -15+0.60*(9-1)
variable        zave equal xcm(H2,z)
fix             mytth2 H2 spring tether ${k1} 2.5 2.5 ${zdes} 0
fix             mytth2 H2 spring tether 1.4 2.5 2.5 ${zdes} 0
fix             mytth2 H2 spring tether 1.4 2.5 2.5 -10.2 0
run             10000
Generated 0 of 1 mixed pair_coeff terms from geometric mixing rule
Per MPI rank memory allocation (min/avg/max) = 13.32 | 13.62 | 14.95 Mbytes
   Step          Temp          E_pair         E_mol          TotEng         Press     
    500000   300.1363       381.64144      18535.737      19346.81      -68.662225    
    510000   284.31854      387.29044      18519.507      19313.597     -35.502274    
Loop time of 3.30755 on 64 procs for 10000 steps with 481 atoms

Performance: 13.061 ns/day, 1.838 hours/ns, 3023.383 timesteps/s, 1.454 Matom-step/s
100.0% CPU use with 64 MPI tasks x 1 OpenMP threads

MPI task timing breakdown:
Section |  min time  |  avg time  |  max time  |%varavg| %total
---------------------------------------------------------------
Pair    | 0.003353   | 0.13432    | 0.97105    |  64.7 |  4.06
Bond    | 0.0010644  | 0.15781    | 0.84044    |  65.9 |  4.77
Neigh   | 0.0073305  | 0.0082031  | 0.0088454  |   0.4 |  0.25
Comm    | 1.3448     | 2.5036     | 3.0129     |  35.9 | 75.69
Output  | 0.0014176  | 0.0027918  | 0.0041963  |   1.7 |  0.08
Modify  | 0.14063    | 0.3848     | 1.6534     |  75.0 | 11.63
Other   |            | 0.116      |            |       |  3.51

Nlocal:        7.51562 ave          39 max           0 min
Histogram: 41 6 1 0 2 2 4 5 2 1
Nghost:        1821.17 ave        2409 max        1285 min
Histogram: 16 0 0 0 32 0 0 0 0 16
Neighs:              0 ave           0 max           0 min
Histogram: 64 0 0 0 0 0 0 0 0 0

Total # of neighbors = 0
Ave neighs/atom = 0
Ave special neighs/atom = 15.567568
Neighbor list builds = 19
Dangerous builds = 0
fix             myat1 all ave/time 1000 10 10000 v_zave v_zdes file simulation_data/abpot/${cpt}.dat
fix             myat1 all ave/time 1000 10 10000 v_zave v_zdes file simulation_data/abpot/9.dat
run             50000
Generated 0 of 1 mixed pair_coeff terms from geometric mixing rule
Per MPI rank memory allocation (min/avg/max) = 13.32 | 13.62 | 14.95 Mbytes
   Step          Temp          E_pair         E_mol          TotEng         Press     
    510000   284.31854      387.29044      18519.507      19313.597     -35.502274    
    520000   305.44366      388.10829      18507.621      19332.754     -13.500315    
    530000   311.2737       381.35702      18530.119      19356.843     -382.852      
    540000   297.02602      385.00883      18553.347      19363.337     -307.35577    
    550000   320.16337      393.25643      18541.631      19392.973     -53.335197    
    560000   296.08687      385.52723      18547.948      19357.113     -73.681003    
Loop time of 16.5043 on 64 procs for 50000 steps with 481 atoms

Performance: 13.087 ns/day, 1.834 hours/ns, 3029.512 timesteps/s, 1.457 Matom-step/s
100.0% CPU use with 64 MPI tasks x 1 OpenMP threads

MPI task timing breakdown:
Section |  min time  |  avg time  |  max time  |%varavg| %total
---------------------------------------------------------------
Pair    | 0.016314   | 0.67138    | 4.9828     | 145.3 |  4.07
Bond    | 0.0053772  | 0.78999    | 4.3512     | 147.7 |  4.79
Neigh   | 0.047212   | 0.052708   | 0.057132   |   1.0 |  0.32
Comm    | 6.6928     | 12.494     | 15.134     |  80.2 | 75.70
Output  | 0.0071583  | 0.014266   | 0.021242   |   3.8 |  0.09
Modify  | 0.61695    | 1.8988     | 8.1208     | 167.2 | 11.51
Other   |            | 0.5831     |            |       |  3.53

Nlocal:        7.51562 ave          38 max           0 min
Histogram: 41 7 0 2 1 1 3 3 4 2
Nghost:        1816.95 ave        2408 max        1286 min
Histogram: 16 0 0 0 32 0 0 0 0 16
Neighs:              0 ave           0 max           0 min
Histogram: 64 0 0 0 0 0 0 0 0 0

Total # of neighbors = 0
Ave neighs/atom = 0
Ave special neighs/atom = 15.567568
Neighbor list builds = 119
Dangerous builds = 0
unfix           myat1
next            cpt
jump            SELF loop
variable        zdes equal  -15+0.60*(${cpt}-1)
variable        zdes equal  -15+0.60*(10-1)
variable        zave equal xcm(H2,z)
fix             mytth2 H2 spring tether ${k1} 2.5 2.5 ${zdes} 0
fix             mytth2 H2 spring tether 1.4 2.5 2.5 ${zdes} 0
fix             mytth2 H2 spring tether 1.4 2.5 2.5 -9.6 0
run             10000
Generated 0 of 1 mixed pair_coeff terms from geometric mixing rule
Per MPI rank memory allocation (min/avg/max) = 13.32 | 13.62 | 14.95 Mbytes
   Step          Temp          E_pair         E_mol          TotEng         Press     
    560000   296.08687      385.52723      18547.948      19357.113     -73.681003    
    570000   295.14431      376.69994      18540.28       19339.269     -447.13157    
Loop time of 3.27972 on 64 procs for 10000 steps with 481 atoms

Performance: 13.172 ns/day, 1.822 hours/ns, 3049.042 timesteps/s, 1.467 Matom-step/s
100.0% CPU use with 64 MPI tasks x 1 OpenMP threads

MPI task timing breakdown:
Section |  min time  |  avg time  |  max time  |%varavg| %total
---------------------------------------------------------------
Pair    | 0.0032633  | 0.13464    | 0.98311    |  64.8 |  4.11
Bond    | 0.0010969  | 0.15836    | 0.87732    |  66.3 |  4.83
Neigh   | 0.0096376  | 0.010826   | 0.011801   |   0.5 |  0.33
Comm    | 1.3173     | 2.4806     | 2.9895     |  35.9 | 75.64
Output  | 0.0014465  | 0.0028497  | 0.0042681  |   1.7 |  0.09
Modify  | 0.13598    | 0.37649    | 1.6148     |  74.3 | 11.48
Other   |            | 0.1159     |            |       |  3.53

Nlocal:        7.51562 ave          37 max           0 min
Histogram: 40 8 0 0 1 3 2 4 3 3
Nghost:        1814.33 ave        2392 max        1290 min
Histogram: 16 0 0 0 32 0 0 0 0 16
Neighs:              0 ave           0 max           0 min
Histogram: 64 0 0 0 0 0 0 0 0 0

Total # of neighbors = 0
Ave neighs/atom = 0
Ave special neighs/atom = 15.567568
Neighbor list builds = 25
Dangerous builds = 0
fix             myat1 all ave/time 1000 10 10000 v_zave v_zdes file simulation_data/abpot/${cpt}.dat
fix             myat1 all ave/time 1000 10 10000 v_zave v_zdes file simulation_data/abpot/10.dat
run             50000
Generated 0 of 1 mixed pair_coeff terms from geometric mixing rule
Per MPI rank memory allocation (min/avg/max) = 13.32 | 13.62 | 14.95 Mbytes
   Step          Temp          E_pair         E_mol          TotEng         Press     
    570000   295.14431      376.69994      18540.28       19339.269     -447.13157    
    580000   290.08364      384.59858      18522.449      19322.096     -164.42701    
    590000   271.30221      385.80151      18540.676      19314.654     -249.21912    
    600000   291.05441      391.18582      18525.886      19333.509     -101.17832    
    610000   291.52714      389.43989      18553.229      19359.782     -169.76426    
    620000   300.08082      396.89776      18533.667      19359.917      132.4865     
Loop time of 16.9874 on 64 procs for 50000 steps with 481 atoms

Performance: 12.715 ns/day, 1.887 hours/ns, 2943.362 timesteps/s, 1.416 Matom-step/s
100.0% CPU use with 64 MPI tasks x 1 OpenMP threads

MPI task timing breakdown:
Section |  min time  |  avg time  |  max time  |%varavg| %total
---------------------------------------------------------------
Pair    | 0.016221   | 0.67422    | 5.0276     | 145.6 |  3.97
Bond    | 0.0053818  | 0.79038    | 4.3906     | 148.0 |  4.65
Neigh   | 0.048422   | 0.054085   | 0.058371   |   1.1 |  0.32
Comm    | 7.1617     | 12.868     | 15.586     |  81.8 | 75.75
Output  | 0.007311   | 0.014295   | 0.021162   |   3.7 |  0.08
Modify  | 0.63965    | 2.0072     | 8.6544     | 174.9 | 11.82
Other   |            | 0.5792     |            |       |  3.41

Nlocal:        7.51562 ave          33 max           0 min
Histogram: 41 6 1 0 0 0 3 4 3 6
Nghost:        1822.11 ave        2418 max        1291 min
Histogram: 16 0 0 0 32 0 0 0 0 16
Neighs:              0 ave           0 max           0 min
Histogram: 64 0 0 0 0 0 0 0 0 0

Total # of neighbors = 0
Ave neighs/atom = 0
Ave special neighs/atom = 15.567568
Neighbor list builds = 120
Dangerous builds = 0
unfix           myat1
next            cpt
jump            SELF loop
variable        zdes equal  -15+0.60*(${cpt}-1)
variable        zdes equal  -15+0.60*(11-1)
variable        zave equal xcm(H2,z)
fix             mytth2 H2 spring tether ${k1} 2.5 2.5 ${zdes} 0
fix             mytth2 H2 spring tether 1.4 2.5 2.5 ${zdes} 0
fix             mytth2 H2 spring tether 1.4 2.5 2.5 -9 0
run             10000
Generated 0 of 1 mixed pair_coeff terms from geometric mixing rule
Per MPI rank memory allocation (min/avg/max) = 13.32 | 13.62 | 14.95 Mbytes
   Step          Temp          E_pair         E_mol          TotEng         Press     
    620000   300.08082      396.89776      18533.667      19359.917      132.4865     
    630000   291.59289      393.54487      18515.569      19326.322      25.355428    
Loop time of 3.32925 on 64 procs for 10000 steps with 481 atoms

Performance: 12.976 ns/day, 1.850 hours/ns, 3003.678 timesteps/s, 1.445 Matom-step/s
100.0% CPU use with 64 MPI tasks x 1 OpenMP threads

MPI task timing breakdown:
Section |  min time  |  avg time  |  max time  |%varavg| %total
---------------------------------------------------------------
Pair    | 0.0032692  | 0.13583    | 1.0444     |  65.9 |  4.08
Bond    | 0.0010721  | 0.15885    | 0.87       |  66.8 |  4.77
Neigh   | 0.0081222  | 0.0090469  | 0.0097612  |   0.4 |  0.27
Comm    | 1.2871     | 2.519      | 3.0601     |  36.7 | 75.66
Output  | 0.0014309  | 0.0028471  | 0.0042816  |   1.7 |  0.09
Modify  | 0.11761    | 0.38421    | 1.6683     |  76.6 | 11.54
Other   |            | 0.1195     |            |       |  3.59

Nlocal:        7.51562 ave          35 max           0 min
Histogram: 41 6 1 0 0 1 5 0 7 3
Nghost:        1823.05 ave        2414 max        1289 min
Histogram: 16 0 0 0 32 0 0 0 0 16
Neighs:              0 ave           0 max           0 min
Histogram: 64 0 0 0 0 0 0 0 0 0

Total # of neighbors = 0
Ave neighs/atom = 0
Ave special neighs/atom = 15.567568
Neighbor list builds = 20
Dangerous builds = 0
fix             myat1 all ave/time 1000 10 10000 v_zave v_zdes file simulation_data/abpot/${cpt}.dat
fix             myat1 all ave/time 1000 10 10000 v_zave v_zdes file simulation_data/abpot/11.dat
run             50000
Generated 0 of 1 mixed pair_coeff terms from geometric mixing rule
Per MPI rank memory allocation (min/avg/max) = 13.32 | 13.62 | 14.95 Mbytes
   Step          Temp          E_pair         E_mol          TotEng         Press     
    630000   291.59289      393.54487      18515.569      19326.322      25.355428    
    640000   303.47955      388.2477       18501.991      19324.454     -79.842188    
    650000   294.30955      384.95332      18553.405      19359.454     -237.73205    
    660000   307.76139      393.71476      18538.152      19372.209     -101.53816    
    670000   287.86544      400.78927      18528.598      19341.262      135.01166    
    680000   303.37924      384.74157      18533.48       19352.293     -350.66748    
Loop time of 16.3389 on 64 procs for 50000 steps with 481 atoms

Performance: 13.220 ns/day, 1.815 hours/ns, 3060.176 timesteps/s, 1.472 Matom-step/s
100.0% CPU use with 64 MPI tasks x 1 OpenMP threads

MPI task timing breakdown:
Section |  min time  |  avg time  |  max time  |%varavg| %total
---------------------------------------------------------------
Pair    | 0.016033   | 0.67381    | 5.1247     | 145.5 |  4.12
Bond    | 0.0054859  | 0.78934    | 4.5009     | 147.7 |  4.83
Neigh   | 0.041415   | 0.046188   | 0.050138   |   1.0 |  0.28
Comm    | 6.424      | 12.311     | 15.011     |  80.2 | 75.35
Output  | 0.0072372  | 0.014241   | 0.021174   |   3.7 |  0.09
Modify  | 0.5947     | 1.926      | 8.0126     | 164.0 | 11.79
Other   |            | 0.5781     |            |       |  3.54

Nlocal:        7.51562 ave          42 max           0 min
Histogram: 41 7 0 2 1 2 6 1 3 1
Nghost:        1822.77 ave        2417 max        1282 min
Histogram: 16 0 0 0 32 0 0 0 0 16
Neighs:              0 ave           0 max           0 min
Histogram: 64 0 0 0 0 0 0 0 0 0

Total # of neighbors = 0
Ave neighs/atom = 0
Ave special neighs/atom = 15.567568
Neighbor list builds = 106
Dangerous builds = 0
unfix           myat1
next            cpt
jump            SELF loop
variable        zdes equal  -15+0.60*(${cpt}-1)
variable        zdes equal  -15+0.60*(12-1)
variable        zave equal xcm(H2,z)
fix             mytth2 H2 spring tether ${k1} 2.5 2.5 ${zdes} 0
fix             mytth2 H2 spring tether 1.4 2.5 2.5 ${zdes} 0
fix             mytth2 H2 spring tether 1.4 2.5 2.5 -8.4 0
run             10000
Generated 0 of 1 mixed pair_coeff terms from geometric mixing rule
Per MPI rank memory allocation (min/avg/max) = 13.32 | 13.62 | 14.95 Mbytes
   Step          Temp          E_pair         E_mol          TotEng         Press     
    680000   303.37924      384.74157      18533.48       19352.293     -350.66748    
    690000   296.06373      400.89959      18583.091      19407.596     -23.436903    
Loop time of 3.25689 on 64 procs for 10000 steps with 481 atoms

Performance: 13.264 ns/day, 1.809 hours/ns, 3070.413 timesteps/s, 1.477 Matom-step/s
100.0% CPU use with 64 MPI tasks x 1 OpenMP threads

MPI task timing breakdown:
Section |  min time  |  avg time  |  max time  |%varavg| %total
---------------------------------------------------------------
Pair    | 0.0031747  | 0.13572    | 1.0781     |  65.3 |  4.17
Bond    | 0.0010829  | 0.15821    | 0.89754    |  66.0 |  4.86
Neigh   | 0.0088266  | 0.0098437  | 0.010688   |   0.4 |  0.30
Comm    | 1.2001     | 2.4627     | 2.9962     |  35.9 | 75.62
Output  | 0.0013953  | 0.0027915  | 0.0042226  |   1.7 |  0.09
Modify  | 0.11109    | 0.37205    | 1.5884     |  74.1 | 11.42
Other   |            | 0.1155     |            |       |  3.55

Nlocal:        7.51562 ave          41 max           0 min
Histogram: 43 5 0 0 1 3 5 6 0 1
Nghost:        1825.39 ave        2418 max        1283 min
Histogram: 16 0 0 0 32 0 0 0 0 16
Neighs:              0 ave           0 max           0 min
Histogram: 64 0 0 0 0 0 0 0 0 0

Total # of neighbors = 0
Ave neighs/atom = 0
Ave special neighs/atom = 15.567568
Neighbor list builds = 23
Dangerous builds = 0
fix             myat1 all ave/time 1000 10 10000 v_zave v_zdes file simulation_data/abpot/${cpt}.dat
fix             myat1 all ave/time 1000 10 10000 v_zave v_zdes file simulation_data/abpot/12.dat
run             50000
Generated 0 of 1 mixed pair_coeff terms from geometric mixing rule
Per MPI rank memory allocation (min/avg/max) = 13.32 | 13.62 | 14.95 Mbytes
   Step          Temp          E_pair         E_mol          TotEng         Press     
    690000   296.06373      400.89959      18583.091      19407.596     -23.436903    
    700000   306.84866      400.3904       18548.442      19387.868      29.806831    
    710000   317.5545       384.62988      18526.827      19365.81      -259.85151    
    720000   290.31615      384.96289      18541.877      19342.221     -266.93374    
    730000   306.78507      398.26476      18526.023      19363.233      44.079224    
    740000   310.48263      398.07379      18543.134      19385.443     -56.124279    
Loop time of 16.726 on 64 procs for 50000 steps with 481 atoms

Performance: 12.914 ns/day, 1.858 hours/ns, 2989.362 timesteps/s, 1.438 Matom-step/s
100.0% CPU use with 64 MPI tasks x 1 OpenMP threads

MPI task timing breakdown:
Section |  min time  |  avg time  |  max time  |%varavg| %total
---------------------------------------------------------------
Pair    | 0.016188   | 0.68158    | 5.3914     | 147.8 |  4.07
Bond    | 0.0055408  | 0.79411    | 4.3726     | 148.8 |  4.75
Neigh   | 0.046525   | 0.051956   | 0.056336   |   1.0 |  0.31
Comm    | 6.2198     | 12.654     | 15.38      |  82.2 | 75.65
Output  | 0.0071416  | 0.014114   | 0.021019   |   3.7 |  0.08
Modify  | 0.60156    | 1.9513     | 8.4211     | 172.0 | 11.67
Other   |            | 0.5792     |            |       |  3.46

Nlocal:        7.51562 ave          36 max           0 min
Histogram: 42 6 0 0 1 0 6 2 6 1
Nghost:        1821.64 ave        2419 max        1292 min
Histogram: 16 0 0 0 32 0 0 0 0 16
Neighs:              0 ave           0 max           0 min
Histogram: 64 0 0 0 0 0 0 0 0 0

Total # of neighbors = 0
Ave neighs/atom = 0
Ave special neighs/atom = 15.567568
Neighbor list builds = 117
Dangerous builds = 0
unfix           myat1
next            cpt
jump            SELF loop
variable        zdes equal  -15+0.60*(${cpt}-1)
variable        zdes equal  -15+0.60*(13-1)
variable        zave equal xcm(H2,z)
fix             mytth2 H2 spring tether ${k1} 2.5 2.5 ${zdes} 0
fix             mytth2 H2 spring tether 1.4 2.5 2.5 ${zdes} 0
fix             mytth2 H2 spring tether 1.4 2.5 2.5 -7.8 0
run             10000
Generated 0 of 1 mixed pair_coeff terms from geometric mixing rule
Per MPI rank memory allocation (min/avg/max) = 13.32 | 13.62 | 14.95 Mbytes
   Step          Temp          E_pair         E_mol          TotEng         Press     
    740000   310.48263      398.07379      18543.134      19385.443     -56.124279    
    750000   299.52098      393.27894      18538.269      19360.099     -71.516004    
Loop time of 3.38331 on 64 procs for 10000 steps with 481 atoms

Performance: 12.769 ns/day, 1.880 hours/ns, 2955.682 timesteps/s, 1.422 Matom-step/s
100.0% CPU use with 64 MPI tasks x 1 OpenMP threads

MPI task timing breakdown:
Section |  min time  |  avg time  |  max time  |%varavg| %total
---------------------------------------------------------------
Pair    | 0.0032097  | 0.13642    | 1.0806     |  66.4 |  4.03
Bond    | 0.0010931  | 0.1585     | 0.86945    |  66.6 |  4.68
Neigh   | 0.008742   | 0.0096873  | 0.01049    |   0.4 |  0.29
Comm    | 1.2795     | 2.5615     | 3.1294     |  37.2 | 75.71
Output  | 0.0014196  | 0.0027923  | 0.0041964  |   1.6 |  0.08
Modify  | 0.1097     | 0.3989     | 1.7251     |  78.7 | 11.79
Other   |            | 0.1155     |            |       |  3.41

Nlocal:        7.51562 ave          37 max           0 min
Histogram: 42 5 1 0 0 3 4 4 2 3
Nghost:        1817.98 ave        2416 max        1287 min
Histogram: 16 0 0 0 32 0 0 0 0 16
Neighs:              0 ave           0 max           0 min
Histogram: 64 0 0 0 0 0 0 0 0 0

Total # of neighbors = 0
Ave neighs/atom = 0
Ave special neighs/atom = 15.567568
Neighbor list builds = 21
Dangerous builds = 0
fix             myat1 all ave/time 1000 10 10000 v_zave v_zdes file simulation_data/abpot/${cpt}.dat
fix             myat1 all ave/time 1000 10 10000 v_zave v_zdes file simulation_data/abpot/13.dat
run             50000
Generated 0 of 1 mixed pair_coeff terms from geometric mixing rule
Per MPI rank memory allocation (min/avg/max) = 13.32 | 13.62 | 14.95 Mbytes
   Step          Temp          E_pair         E_mol          TotEng         Press     
    750000   299.52098      393.27894      18538.269      19360.099     -71.516004    
    760000   292.26379      396.5713       18524.616      19339.355      7.7532987    
    770000   283.89535      396.05874      18505.838      19308.091     -123.60306    
    780000   303.78788      401.13823      18531.468      19367.263     -9.5993681    
    790000   311.32149      404.27841      18517.103      19366.817      150.59208    
    800000   291.50477      394.00679      18534.467      19345.555     -102.92603    
Loop time of 16.763 on 64 procs for 50000 steps with 481 atoms

Performance: 12.886 ns/day, 1.863 hours/ns, 2982.756 timesteps/s, 1.435 Matom-step/s
100.0% CPU use with 64 MPI tasks x 1 OpenMP threads

MPI task timing breakdown:
Section |  min time  |  avg time  |  max time  |%varavg| %total
---------------------------------------------------------------
Pair    | 0.015961   | 0.68184    | 5.3073     | 147.4 |  4.07
Bond    | 0.0054641  | 0.79186    | 4.2445     | 147.7 |  4.72
Neigh   | 0.045392   | 0.050563   | 0.054697   |   1.0 |  0.30
Comm    | 6.5168     | 12.704     | 15.399     |  81.6 | 75.78
Output  | 0.0070637  | 0.013987   | 0.02088    |   3.7 |  0.08
Modify  | 0.61519    | 1.9396     | 8.3778     | 171.5 | 11.57
Other   |            | 0.5814     |            |       |  3.47

Nlocal:        7.51562 ave          35 max           0 min
Histogram: 42 4 2 0 0 4 2 1 4 5
Nghost:        1819.77 ave        2412 max        1289 min
Histogram: 16 0 0 0 32 0 0 0 0 16
Neighs:              0 ave           0 max           0 min
Histogram: 64 0 0 0 0 0 0 0 0 0

Total # of neighbors = 0
Ave neighs/atom = 0
Ave special neighs/atom = 15.567568
Neighbor list builds = 112
Dangerous builds = 0
unfix           myat1
next            cpt
jump            SELF loop
variable        zdes equal  -15+0.60*(${cpt}-1)
variable        zdes equal  -15+0.60*(14-1)
variable        zave equal xcm(H2,z)
fix             mytth2 H2 spring tether ${k1} 2.5 2.5 ${zdes} 0
fix             mytth2 H2 spring tether 1.4 2.5 2.5 ${zdes} 0
fix             mytth2 H2 spring tether 1.4 2.5 2.5 -7.2 0
run             10000
Generated 0 of 1 mixed pair_coeff terms from geometric mixing rule
Per MPI rank memory allocation (min/avg/max) = 13.32 | 13.62 | 14.95 Mbytes
   Step          Temp          E_pair         E_mol          TotEng         Press     
    800000   291.50477      394.00679      18534.467      19345.555     -102.92603    
    810000   289.79863      398.5932       18524.268      19337.502      19.769904    
Loop time of 3.31737 on 64 procs for 10000 steps with 481 atoms

Performance: 13.022 ns/day, 1.843 hours/ns, 3014.433 timesteps/s, 1.450 Matom-step/s
100.0% CPU use with 64 MPI tasks x 1 OpenMP threads

MPI task timing breakdown:
Section |  min time  |  avg time  |  max time  |%varavg| %total
---------------------------------------------------------------
Pair    | 0.0031695  | 0.13638    | 1.0157     |  65.8 |  4.11
Bond    | 0.0010575  | 0.15834    | 0.85791    |  66.1 |  4.77
Neigh   | 0.0097138  | 0.010868   | 0.011729   |   0.5 |  0.33
Comm    | 1.3276     | 2.5084     | 3.0505     |  36.5 | 75.61
Output  | 0.0014037  | 0.0027765  | 0.0041931  |   1.7 |  0.08
Modify  | 0.11837    | 0.38506    | 1.6521     |  75.9 | 11.61
Other   |            | 0.1156     |            |       |  3.48

Nlocal:        7.51562 ave          38 max           0 min
Histogram: 42 5 1 0 0 4 2 4 5 1
Nghost:         1825.2 ave        2420 max        1286 min
Histogram: 16 0 0 0 32 0 0 0 0 16
Neighs:              0 ave           0 max           0 min
Histogram: 64 0 0 0 0 0 0 0 0 0

Total # of neighbors = 0
Ave neighs/atom = 0
Ave special neighs/atom = 15.567568
Neighbor list builds = 24
Dangerous builds = 0
fix             myat1 all ave/time 1000 10 10000 v_zave v_zdes file simulation_data/abpot/${cpt}.dat
fix             myat1 all ave/time 1000 10 10000 v_zave v_zdes file simulation_data/abpot/14.dat
run             50000
Generated 0 of 1 mixed pair_coeff terms from geometric mixing rule
Per MPI rank memory allocation (min/avg/max) = 13.32 | 13.62 | 14.95 Mbytes
   Step          Temp          E_pair         E_mol          TotEng         Press     
    810000   289.79863      398.5932       18524.268      19337.502      19.769904    
    820000   298.97788      395.62266      18546.615      19370.011     -76.008843    
    830000   311.76306      394.79304      18540.811      19381.671     -46.359526    
    840000   288.95337      391.16088      18551.478      19356.07      -123.26666    
    850000   298.91819      394.59727      18507.421      19329.707     -9.7849363    
    860000   287.96715      391.0418       18553.046      19356.108     -91.321532    
Loop time of 16.8164 on 64 procs for 50000 steps with 481 atoms

Performance: 12.845 ns/day, 1.868 hours/ns, 2973.295 timesteps/s, 1.430 Matom-step/s
100.0% CPU use with 64 MPI tasks x 1 OpenMP threads

MPI task timing breakdown:
Section |  min time  |  avg time  |  max time  |%varavg| %total
---------------------------------------------------------------
Pair    | 0.015818   | 0.68144    | 4.9245     | 147.6 |  4.05
Bond    | 0.0052988  | 0.7898     | 4.1497     | 147.2 |  4.70
Neigh   | 0.055575   | 0.061745   | 0.066478   |   1.1 |  0.37
Comm    | 6.659      | 12.726     | 15.399     |  81.9 | 75.67
Output  | 0.0073065  | 0.014285   | 0.021214   |   3.7 |  0.08
Modify  | 0.65477    | 1.963      | 8.4487     | 171.9 | 11.67
Other   |            | 0.5805     |            |       |  3.45

Nlocal:        7.51562 ave          38 max           0 min
Histogram: 43 4 1 0 0 4 3 4 4 1
Nghost:        1824.17 ave        2420 max        1286 min
Histogram: 16 0 0 0 32 0 0 0 0 16
Neighs:              0 ave           0 max           0 min
Histogram: 64 0 0 0 0 0 0 0 0 0

Total # of neighbors = 0
Ave neighs/atom = 0
Ave special neighs/atom = 15.567568
Neighbor list builds = 135
Dangerous builds = 0
unfix           myat1
next            cpt
jump            SELF loop
variable        zdes equal  -15+0.60*(${cpt}-1)
variable        zdes equal  -15+0.60*(15-1)
variable        zave equal xcm(H2,z)
fix             mytth2 H2 spring tether ${k1} 2.5 2.5 ${zdes} 0
fix             mytth2 H2 spring tether 1.4 2.5 2.5 ${zdes} 0
fix             mytth2 H2 spring tether 1.4 2.5 2.5 -6.6 0
run             10000
Generated 0 of 1 mixed pair_coeff terms from geometric mixing rule
Per MPI rank memory allocation (min/avg/max) = 13.32 | 13.62 | 14.95 Mbytes
   Step          Temp          E_pair         E_mol          TotEng         Press     
    860000   287.96715      391.0418       18553.046      19356.108     -91.321532    
    870000   307.97009      387.16267      18536.639      19364.442     -158.78097    
Loop time of 3.38145 on 64 procs for 10000 steps with 481 atoms

Performance: 12.776 ns/day, 1.879 hours/ns, 2957.313 timesteps/s, 1.422 Matom-step/s
100.0% CPU use with 64 MPI tasks x 1 OpenMP threads

MPI task timing breakdown:
Section |  min time  |  avg time  |  max time  |%varavg| %total
---------------------------------------------------------------
Pair    | 0.0031621  | 0.13583    | 0.98783    |  66.3 |  4.02
Bond    | 0.0010661  | 0.15765    | 0.8676     |  66.0 |  4.66
Neigh   | 0.012872   | 0.014336   | 0.015484   |   0.5 |  0.42
Comm    | 1.2804     | 2.5551     | 3.1084     |  37.0 | 75.56
Output  | 0.0014379  | 0.0028386  | 0.0042652  |   1.7 |  0.08
Modify  | 0.12188    | 0.40023    | 1.7166     |  77.7 | 11.84
Other   |            | 0.1154     |            |       |  3.41

Nlocal:        7.51562 ave          36 max           0 min
Histogram: 41 7 0 0 0 1 8 1 2 4
Nghost:        1821.91 ave        2413 max        1288 min
Histogram: 16 0 0 0 32 0 0 0 0 16
Neighs:              0 ave           0 max           0 min
Histogram: 64 0 0 0 0 0 0 0 0 0

Total # of neighbors = 0
Ave neighs/atom = 0
Ave special neighs/atom = 15.567568
Neighbor list builds = 31
Dangerous builds = 0
fix             myat1 all ave/time 1000 10 10000 v_zave v_zdes file simulation_data/abpot/${cpt}.dat
fix             myat1 all ave/time 1000 10 10000 v_zave v_zdes file simulation_data/abpot/15.dat
run             50000
Generated 0 of 1 mixed pair_coeff terms from geometric mixing rule
Per MPI rank memory allocation (min/avg/max) = 13.32 | 13.62 | 14.95 Mbytes
   Step          Temp          E_pair         E_mol          TotEng         Press     
    870000   307.97009      387.16267      18536.639      19364.442     -158.78097    
    880000   320.58637      384.75983      18570.68       19414.131     -253.54477    
    890000   297.60096      394.51032      18544.193      19364.508      32.990987    
    900000   284.73026      394.07853      18533.153      19334.62      -53.409281    
    910000   307.45013      389.22713      18545.735      19374.859     -168.09082    
    920000   317.22222      391.35295      18545.673      19390.904     -111.74303    
Loop time of 17.036 on 64 procs for 50000 steps with 481 atoms

Performance: 12.679 ns/day, 1.893 hours/ns, 2934.961 timesteps/s, 1.412 Matom-step/s
100.0% CPU use with 64 MPI tasks x 1 OpenMP threads

MPI task timing breakdown:
Section |  min time  |  avg time  |  max time  |%varavg| %total
---------------------------------------------------------------
Pair    | 0.015647   | 0.68295    | 5.2741     | 149.4 |  4.01
Bond    | 0.005307   | 0.79087    | 4.1922     | 148.1 |  4.64
Neigh   | 0.063707   | 0.070731   | 0.076371   |   1.2 |  0.42
Comm    | 6.6868     | 12.902     | 15.656     |  83.3 | 75.73
Output  | 0.0071887  | 0.014196   | 0.021111   |   3.7 |  0.08
Modify  | 0.61983    | 1.9972     | 8.6818     | 176.5 | 11.72
Other   |            | 0.5783     |            |       |  3.39

Nlocal:        7.51562 ave          41 max           0 min
Histogram: 44 4 0 1 3 2 3 2 3 2
Nghost:        1820.52 ave        2412 max        1283 min
Histogram: 16 0 0 0 32 0 0 0 0 16
Neighs:              0 ave           0 max           0 min
Histogram: 64 0 0 0 0 0 0 0 0 0

Total # of neighbors = 0
Ave neighs/atom = 0
Ave special neighs/atom = 15.567568
Neighbor list builds = 153
Dangerous builds = 0
unfix           myat1
next            cpt
jump            SELF loop
variable        zdes equal  -15+0.60*(${cpt}-1)
variable        zdes equal  -15+0.60*(16-1)
variable        zave equal xcm(H2,z)
fix             mytth2 H2 spring tether ${k1} 2.5 2.5 ${zdes} 0
fix             mytth2 H2 spring tether 1.4 2.5 2.5 ${zdes} 0
fix             mytth2 H2 spring tether 1.4 2.5 2.5 -6 0
run             10000
Generated 0 of 1 mixed pair_coeff terms from geometric mixing rule
Per MPI rank memory allocation (min/avg/max) = 13.32 | 13.62 | 14.95 Mbytes
   Step          Temp          E_pair         E_mol          TotEng         Press     
    920000   317.22222      391.35295      18545.673      19390.904     -111.74303    
    930000   308.63396      398.30967      18527.831      19367.73      -5.3523096    
Loop time of 3.36927 on 64 procs for 10000 steps with 481 atoms

Performance: 12.822 ns/day, 1.872 hours/ns, 2967.998 timesteps/s, 1.428 Matom-step/s
100.0% CPU use with 64 MPI tasks x 1 OpenMP threads

MPI task timing breakdown:
Section |  min time  |  avg time  |  max time  |%varavg| %total
---------------------------------------------------------------
Pair    | 0.003053   | 0.13626    | 1.0118     |  66.1 |  4.04
Bond    | 0.0010617  | 0.15741    | 0.82447    |  65.4 |  4.67
Neigh   | 0.012339   | 0.013721   | 0.014825   |   0.5 |  0.41
Comm    | 1.3347     | 2.5563     | 3.0848     |  36.5 | 75.87
Output  | 0.0013899  | 0.0027805  | 0.0041881  |   1.7 |  0.08
Modify  | 0.12987    | 0.38712    | 1.7006     |  77.8 | 11.49
Other   |            | 0.1157     |            |       |  3.43

Nlocal:        7.51562 ave          45 max           0 min
Histogram: 44 4 1 1 3 3 2 4 1 1
Nghost:        1820.14 ave        2409 max        1279 min
Histogram: 16 0 0 0 32 0 0 0 0 16
Neighs:              0 ave           0 max           0 min
Histogram: 64 0 0 0 0 0 0 0 0 0

Total # of neighbors = 0
Ave neighs/atom = 0
Ave special neighs/atom = 15.567568
Neighbor list builds = 30
Dangerous builds = 0
fix             myat1 all ave/time 1000 10 10000 v_zave v_zdes file simulation_data/abpot/${cpt}.dat
fix             myat1 all ave/time 1000 10 10000 v_zave v_zdes file simulation_data/abpot/16.dat
run             50000
Generated 0 of 1 mixed pair_coeff terms from geometric mixing rule
Per MPI rank memory allocation (min/avg/max) = 13.32 | 13.62 | 14.95 Mbytes
   Step          Temp          E_pair         E_mol          TotEng         Press     
    930000   308.63396      398.30967      18527.831      19367.73      -5.3523096    
    940000   302.2715       390.02326      18528.359      19350.869     -211.86472    
    950000   290.45427      392.18625      18544.095      19351.86      -145.32541    
    960000   316.74141      392.4831       18521.008      19366.681     -76.04871     
    970000   284.15952      395.66579      18534.613      19336.851      40.185432    
    980000   294.24801      394.10764      18508.161      19323.276     -65.036411    
Loop time of 16.8217 on 64 procs for 50000 steps with 481 atoms

Performance: 12.841 ns/day, 1.869 hours/ns, 2972.357 timesteps/s, 1.430 Matom-step/s
100.0% CPU use with 64 MPI tasks x 1 OpenMP threads

MPI task timing breakdown:
Section |  min time  |  avg time  |  max time  |%varavg| %total
---------------------------------------------------------------
Pair    | 0.015893   | 0.68371    | 5.2508     | 148.2 |  4.06
Bond    | 0.0053115  | 0.7911     | 4.3032     | 148.0 |  4.70
Neigh   | 0.062128   | 0.069054   | 0.074751   |   1.2 |  0.41
Comm    | 6.7118     | 12.735     | 15.383     |  82.1 | 75.71
Output  | 0.0072817  | 0.01435    | 0.021303   |   3.7 |  0.09
Modify  | 0.65934    | 1.9467     | 8.4475     | 173.2 | 11.57
Other   |            | 0.5818     |            |       |  3.46

Nlocal:        7.51562 ave          38 max           0 min
Histogram: 41 6 1 0 2 0 4 7 1 2
Nghost:        1817.98 ave        2406 max        1286 min
Histogram: 16 0 0 0 32 0 0 0 0 16
Neighs:              0 ave           0 max           0 min
Histogram: 64 0 0 0 0 0 0 0 0 0

Total # of neighbors = 0
Ave neighs/atom = 0
Ave special neighs/atom = 15.567568
Neighbor list builds = 152
Dangerous builds = 0
unfix           myat1
next            cpt
jump            SELF loop
variable        zdes equal  -15+0.60*(${cpt}-1)
variable        zdes equal  -15+0.60*(17-1)
variable        zave equal xcm(H2,z)
fix             mytth2 H2 spring tether ${k1} 2.5 2.5 ${zdes} 0
fix             mytth2 H2 spring tether 1.4 2.5 2.5 ${zdes} 0
fix             mytth2 H2 spring tether 1.4 2.5 2.5 -5.4 0
run             10000
Generated 0 of 1 mixed pair_coeff terms from geometric mixing rule
Per MPI rank memory allocation (min/avg/max) = 13.32 | 13.62 | 14.95 Mbytes
   Step          Temp          E_pair         E_mol          TotEng         Press     
    980000   294.24801      394.10764      18508.161      19323.276     -65.036411    
    990000   297.89947      392.12359      18529.227      19347.582     -203.22545    
Loop time of 3.41144 on 64 procs for 10000 steps with 481 atoms

Performance: 12.663 ns/day, 1.895 hours/ns, 2931.311 timesteps/s, 1.410 Matom-step/s
100.0% CPU use with 64 MPI tasks x 1 OpenMP threads

MPI task timing breakdown:
Section |  min time  |  avg time  |  max time  |%varavg| %total
---------------------------------------------------------------
Pair    | 0.0031628  | 0.1369     | 1.0932     |  67.0 |  4.01
Bond    | 0.0010676  | 0.15789    | 0.83361    |  66.3 |  4.63
Neigh   | 0.013243   | 0.014694   | 0.015873   |   0.5 |  0.43
Comm    | 1.3422     | 2.5754     | 3.1228     |  37.2 | 75.49
[...]
Section |  min time  |  avg time  |  max time  |%varavg| %total
---------------------------------------------------------------
Pair    | 0.0032241  | 0.13473    | 1.0281     |  66.1 |  3.98
Bond    | 0.0010506  | 0.15723    | 0.78445    |  64.9 |  4.64
Neigh   | 0.0049578  | 0.0054694  | 0.0059105  |   0.3 |  0.16
Comm    | 1.3285     | 2.5777     | 3.1066     |  36.0 | 76.06
Output  | 0.0013794  | 0.0027585  | 0.004154   |   1.7 |  0.08
Modify  | 0.13561    | 0.39532    | 1.7117     |  76.5 | 11.66
Other   |            | 0.1159     |            |       |  3.42

Nlocal:        7.51562 ave          35 max           0 min
Histogram: 41 6 1 0 0 1 4 3 5 3
Nghost:        1819.95 ave        2408 max        1289 min
Histogram: 16 0 0 0 32 0 0 0 0 16
Neighs:              0 ave           0 max           0 min
Histogram: 64 0 0 0 0 0 0 0 0 0

Total # of neighbors = 0
Ave neighs/atom = 0
Ave special neighs/atom = 15.567568
Neighbor list builds = 12
Dangerous builds = 0
fix             myat1 all ave/time 1000 10 10000 v_zave v_zdes file simulation_data/abpot/${cpt}.dat
fix             myat1 all ave/time 1000 10 10000 v_zave v_zdes file simulation_data/abpot/47.dat
run             50000
Generated 0 of 1 mixed pair_coeff terms from geometric mixing rule
Per MPI rank memory allocation (min/avg/max) = 13.32 | 13.62 | 14.95 Mbytes
   Step          Temp          E_pair         E_mol          TotEng         Press     
   2790000   316.79241      378.22415      18527.951      19359.438     -89.510123    
   2800000   315.96631      382.66288      18518.419      19353.163     -99.481126    
   2810000   305.18484      386.97815      18495.923      19319.556      167.19862    
   2820000   292.87156      374.38283      18531.118      19324.538     -276.31878    
   2830000   309.17145      381.26558      18513          19336.624      85.876409    
   2840000   300.87616      381.61848      18497.585      19309.694     -81.236331    
Loop time of 17.3071 on 64 procs for 50000 steps with 481 atoms

Performance: 12.480 ns/day, 1.923 hours/ns, 2888.981 timesteps/s, 1.390 Matom-step/s
100.0% CPU use with 64 MPI tasks x 1 OpenMP threads

MPI task timing breakdown:
Section |  min time  |  avg time  |  max time  |%varavg| %total
---------------------------------------------------------------
Pair    | 0.016104   | 0.67606    | 5.3813     | 147.6 |  3.91
Bond    | 0.0052923  | 0.79255    | 4.1469     | 147.3 |  4.58
Neigh   | 0.020296   | 0.022563   | 0.024305   |   0.7 |  0.13
Comm    | 6.6365     | 13.159     | 15.934     |  82.6 | 76.03
Output  | 0.0072505  | 0.01418    | 0.021065   |   3.7 |  0.08
Modify  | 0.64238    | 2.0584     | 8.9836     | 178.0 | 11.89
Other   |            | 0.584      |            |       |  3.37

Nlocal:        7.51562 ave          37 max           0 min
Histogram: 43 5 0 0 0 5 1 4 3 3
Nghost:        1821.17 ave        2417 max        1287 min
Histogram: 16 0 0 0 32 0 0 0 0 16
Neighs:              0 ave           0 max           0 min
Histogram: 64 0 0 0 0 0 0 0 0 0

Total # of neighbors = 0
Ave neighs/atom = 0
Ave special neighs/atom = 15.567568
Neighbor list builds = 49
Dangerous builds = 0
unfix           myat1
next            cpt
jump            SELF loop
variable        zdes equal  -15+0.60*(${cpt}-1)
variable        zdes equal  -15+0.60*(48-1)
variable        zave equal xcm(H2,z)
fix             mytth2 H2 spring tether ${k1} 2.5 2.5 ${zdes} 0
fix             mytth2 H2 spring tether 1.4 2.5 2.5 ${zdes} 0
fix             mytth2 H2 spring tether 1.4 2.5 2.5 13.2 0
run             10000
Generated 0 of 1 mixed pair_coeff terms from geometric mixing rule
Per MPI rank memory allocation (min/avg/max) = 13.32 | 13.62 | 14.95 Mbytes
   Step          Temp          E_pair         E_mol          TotEng         Press     
   2840000   300.87616      381.61848      18497.585      19309.694     -81.236331    
   2850000   288.84256      382.83207      18494.841      19290.946     -81.47882     
Loop time of 3.3964 on 64 procs for 10000 steps with 481 atoms

Performance: 12.719 ns/day, 1.887 hours/ns, 2944.295 timesteps/s, 1.416 Matom-step/s
100.0% CPU use with 64 MPI tasks x 1 OpenMP threads

MPI task timing breakdown:
Section |  min time  |  avg time  |  max time  |%varavg| %total
---------------------------------------------------------------
Pair    | 0.0032396  | 0.13548    | 1.0775     |  66.1 |  3.99
Bond    | 0.001056   | 0.15915    | 0.84569    |  66.3 |  4.69
Neigh   | 0.0036804  | 0.0040984  | 0.0044284  |   0.3 |  0.12
Comm    | 1.2421     | 2.5874     | 3.1188     |  37.0 | 76.18
Output  | 0.0015217  | 0.002914   | 0.0043316  |   1.6 |  0.09
Modify  | 0.13189    | 0.39033    | 1.7299     |  79.3 | 11.49
Other   |            | 0.117      |            |       |  3.44

Nlocal:        7.51562 ave          39 max           0 min
Histogram: 42 5 1 0 1 2 6 3 3 1
Nghost:        1823.61 ave        2419 max        1286 min
Histogram: 16 0 0 0 32 0 0 0 0 16
Neighs:              0 ave           0 max           0 min
Histogram: 64 0 0 0 0 0 0 0 0 0

Total # of neighbors = 0
Ave neighs/atom = 0
Ave special neighs/atom = 15.567568
Neighbor list builds = 9
Dangerous builds = 0
fix             myat1 all ave/time 1000 10 10000 v_zave v_zdes file simulation_data/abpot/${cpt}.dat
fix             myat1 all ave/time 1000 10 10000 v_zave v_zdes file simulation_data/abpot/48.dat
run             50000
Generated 0 of 1 mixed pair_coeff terms from geometric mixing rule
Per MPI rank memory allocation (min/avg/max) = 13.32 | 13.62 | 14.95 Mbytes
   Step          Temp          E_pair         E_mol          TotEng         Press     
   2850000   288.84256      382.83207      18494.841      19290.946     -81.47882     
   2860000   293.88455      372.88008      18525.78       19319.147     -232.9465     
   2870000   306.21037      380.48129      18533.206      19351.81      -116.41181    
   2880000   302.93624      389.68982      18516.295      19339.423      197.15664    
   2890000   298.52771      374.56431      18525.969      19327.663     -293.01241    
   2900000   290.47148      384.79058      18513.854      19314.248      31.113064    
Loop time of 17.283 on 64 procs for 50000 steps with 481 atoms

Performance: 12.498 ns/day, 1.920 hours/ns, 2893.011 timesteps/s, 1.392 Matom-step/s
100.0% CPU use with 64 MPI tasks x 1 OpenMP threads

MPI task timing breakdown:
Section |  min time  |  avg time  |  max time  |%varavg| %total
---------------------------------------------------------------
Pair    | 0.016187   | 0.67392    | 5.1874     | 147.1 |  3.90
Bond    | 0.0052883  | 0.79024    | 3.9325     | 146.5 |  4.57
Neigh   | 0.022521   | 0.024918   | 0.02691    |   0.7 |  0.14
Comm    | 6.9358     | 13.127     | 15.907     |  82.5 | 75.95
Output  | 0.007188   | 0.014174   | 0.02112    |   3.7 |  0.08
Modify  | 0.64224    | 2.0725     | 8.9474     | 178.7 | 11.99
Other   |            | 0.5805     |            |       |  3.36

Nlocal:        7.51562 ave          39 max           0 min
Histogram: 42 5 1 1 3 2 2 3 2 3
Nghost:        1816.77 ave        2403 max        1286 min
Histogram: 16 0 0 0 32 0 0 0 0 16
Neighs:              0 ave           0 max           0 min
Histogram: 64 0 0 0 0 0 0 0 0 0

Total # of neighbors = 0
Ave neighs/atom = 0
Ave special neighs/atom = 15.567568
Neighbor list builds = 54
Dangerous builds = 0
unfix           myat1
next            cpt
jump            SELF loop
variable        zdes equal  -15+0.60*(${cpt}-1)
variable        zdes equal  -15+0.60*(49-1)
variable        zave equal xcm(H2,z)
fix             mytth2 H2 spring tether ${k1} 2.5 2.5 ${zdes} 0
fix             mytth2 H2 spring tether 1.4 2.5 2.5 ${zdes} 0
fix             mytth2 H2 spring tether 1.4 2.5 2.5 13.8 0
run             10000
Generated 0 of 1 mixed pair_coeff terms from geometric mixing rule
Per MPI rank memory allocation (min/avg/max) = 13.32 | 13.62 | 14.95 Mbytes
   Step          Temp          E_pair         E_mol          TotEng         Press     
   2900000   290.47148      384.79058      18513.854      19314.248      31.113064    
   2910000   289.74565      383.03632      18501.884      19299.485     -40.294491    
Loop time of 3.44978 on 64 procs for 10000 steps with 481 atoms

Performance: 12.523 ns/day, 1.917 hours/ns, 2898.733 timesteps/s, 1.394 Matom-step/s
100.0% CPU use with 64 MPI tasks x 1 OpenMP threads

MPI task timing breakdown:
Section |  min time  |  avg time  |  max time  |%varavg| %total
---------------------------------------------------------------
Pair    | 0.0032565  | 0.13535    | 1.0989     |  66.5 |  3.92
Bond    | 0.001073   | 0.15841    | 0.80177    |  65.8 |  4.59
Neigh   | 0.0050979  | 0.0056285  | 0.0060702  |   0.3 |  0.16
Comm    | 1.2792     | 2.6278     | 3.1802     |  36.0 | 76.17
Output  | 0.0014877  | 0.0029094  | 0.0043439  |   1.7 |  0.08
Modify  | 0.12391    | 0.40266    | 1.7751     |  75.9 | 11.67
Other   |            | 0.117      |            |       |  3.39

Nlocal:        7.51562 ave          41 max           0 min
Histogram: 43 5 0 1 2 4 3 2 2 2
Nghost:        1820.14 ave        2408 max        1284 min
Histogram: 16 0 0 0 32 0 0 0 0 16
Neighs:              0 ave           0 max           0 min
Histogram: 64 0 0 0 0 0 0 0 0 0

Total # of neighbors = 0
Ave neighs/atom = 0
Ave special neighs/atom = 15.567568
Neighbor list builds = 12
Dangerous builds = 0
fix             myat1 all ave/time 1000 10 10000 v_zave v_zdes file simulation_data/abpot/${cpt}.dat
fix             myat1 all ave/time 1000 10 10000 v_zave v_zdes file simulation_data/abpot/49.dat
run             50000
Generated 0 of 1 mixed pair_coeff terms from geometric mixing rule
Per MPI rank memory allocation (min/avg/max) = 13.32 | 13.62 | 14.95 Mbytes
   Step          Temp          E_pair         E_mol          TotEng         Press     
   2910000   289.74565      383.03632      18501.884      19299.485     -40.294491    
   2920000   297.82726      378.84117      18515.819      19320.788     -146.24898    
   2930000   302.03694      388.99936      18541.869      19363.02       72.262851    
   2940000   316.97067      386.14088      18491.981      19331.64       153.24138    
   2950000   312.31872      380.96896      18493.17       19321.001     -115.92914    
   2960000   314.16998      375.88009      18514.509      19339.9       -116.18661    
Loop time of 17.6284 on 64 procs for 50000 steps with 481 atoms

Performance: 12.253 ns/day, 1.959 hours/ns, 2836.324 timesteps/s, 1.364 Matom-step/s
100.0% CPU use with 64 MPI tasks x 1 OpenMP threads

MPI task timing breakdown:
Section |  min time  |  avg time  |  max time  |%varavg| %total
---------------------------------------------------------------
Pair    | 0.016356   | 0.67369    | 5.0177     | 146.2 |  3.82
Bond    | 0.005336   | 0.78918    | 3.8341     | 146.2 |  4.48
Neigh   | 0.033053   | 0.036604   | 0.039333   |   0.8 |  0.21
Comm    | 7.5318     | 13.424     | 16.207     |  83.7 | 76.15
Output  | 0.0075177  | 0.014471   | 0.021354   |   3.7 |  0.08
Modify  | 0.67224    | 2.1096     | 9.3388     | 185.2 | 11.97
Other   |            | 0.5812     |            |       |  3.30

Nlocal:        7.51562 ave          36 max           0 min
Histogram: 41 6 1 0 0 3 4 2 4 3
Nghost:        1815.27 ave        2406 max        1290 min
Histogram: 16 0 0 0 32 0 0 0 0 16
Neighs:              0 ave           0 max           0 min
Histogram: 64 0 0 0 0 0 0 0 0 0

Total # of neighbors = 0
Ave neighs/atom = 0
Ave special neighs/atom = 15.567568
Neighbor list builds = 78
Dangerous builds = 0
unfix           myat1
next            cpt
jump            SELF loop
variable        zdes equal  -15+0.60*(${cpt}-1)
variable        zdes equal  -15+0.60*(50-1)
variable        zave equal xcm(H2,z)
fix             mytth2 H2 spring tether ${k1} 2.5 2.5 ${zdes} 0
fix             mytth2 H2 spring tether 1.4 2.5 2.5 ${zdes} 0
fix             mytth2 H2 spring tether 1.4 2.5 2.5 14.4 0
run             10000
Generated 0 of 1 mixed pair_coeff terms from geometric mixing rule
Per MPI rank memory allocation (min/avg/max) = 13.32 | 13.62 | 14.95 Mbytes
   Step          Temp          E_pair         E_mol          TotEng         Press     
   2960000   314.16998      375.88009      18514.509      19339.9       -116.18661    
   2970000   284.90279      389.93927      18508.079      19305.654      94.522124    
Loop time of 3.51965 on 64 procs for 10000 steps with 481 atoms

Performance: 12.274 ns/day, 1.955 hours/ns, 2841.193 timesteps/s, 1.367 Matom-step/s
100.0% CPU use with 64 MPI tasks x 1 OpenMP threads

MPI task timing breakdown:
Section |  min time  |  avg time  |  max time  |%varavg| %total
---------------------------------------------------------------
Pair    | 0.003212   | 0.13573    | 1.0983     |  66.6 |  3.86
Bond    | 0.0010686  | 0.15854    | 0.80811    |  66.1 |  4.50
Neigh   | 0.0042809  | 0.0047525  | 0.0050946  |   0.3 |  0.14
Comm    | 1.3568     | 2.682      | 3.251      |  37.7 | 76.20
Output  | 0.001505   | 0.0028754  | 0.0042694  |   1.6 |  0.08
Modify  | 0.12365    | 0.41955    | 1.8668     |  82.4 | 11.92
Other   |            | 0.1162     |            |       |  3.30

Nlocal:        7.51562 ave          40 max           0 min
Histogram: 42 6 0 1 0 4 3 3 4 1
Nghost:        1822.48 ave        2416 max        1284 min
Histogram: 16 0 0 0 32 0 0 0 0 16
Neighs:              0 ave           0 max           0 min
Histogram: 64 0 0 0 0 0 0 0 0 0

Total # of neighbors = 0
Ave neighs/atom = 0
Ave special neighs/atom = 15.567568
Neighbor list builds = 10
Dangerous builds = 0
fix             myat1 all ave/time 1000 10 10000 v_zave v_zdes file simulation_data/abpot/${cpt}.dat
fix             myat1 all ave/time 1000 10 10000 v_zave v_zdes file simulation_data/abpot/50.dat
run             50000
Generated 0 of 1 mixed pair_coeff terms from geometric mixing rule
Per MPI rank memory allocation (min/avg/max) = 13.32 | 13.62 | 14.95 Mbytes
   Step          Temp          E_pair         E_mol          TotEng         Press     
   2970000   284.90279      389.93927      18508.079      19305.654      94.522124    
   2980000   293.06369      383.35394      18496.985      19299.651     -40.396802    
   2990000   279.26889      381.02748      18509.797      19290.399     -108.00309    
   3000000   301.8256       380.67385      18493.518      19306.041     -4.3225627    
   3010000   297.19887      382.39383      18527.043      19334.666     -125.5146     
   3020000   302.20498      384.20652      18508.015      19324.613      55.319789    
Loop time of 17.4805 on 64 procs for 50000 steps with 481 atoms

Performance: 12.357 ns/day, 1.942 hours/ns, 2860.334 timesteps/s, 1.376 Matom-step/s
100.0% CPU use with 64 MPI tasks x 1 OpenMP threads

MPI task timing breakdown:
Section |  min time  |  avg time  |  max time  |%varavg| %total
---------------------------------------------------------------
Pair    | 0.016099   | 0.67651    | 5.2273     | 148.0 |  3.87
Bond    | 0.0053712  | 0.79241    | 4.1687     | 147.8 |  4.53
Neigh   | 0.025871   | 0.02864    | 0.030803   |   0.7 |  0.16
Comm    | 7.0685     | 13.311     | 16.084     |  83.5 | 76.15
Output  | 0.007609   | 0.01459    | 0.021537   |   3.7 |  0.08
Modify  | 0.65802    | 2.0757     | 9.1337     | 182.5 | 11.87
Other   |            | 0.5811     |            |       |  3.32

Nlocal:        7.51562 ave          37 max           0 min
Histogram: 41 7 0 1 0 2 2 4 5 2
Nghost:        1820.42 ave        2408 max        1288 min
Histogram: 16 0 0 0 32 0 0 0 0 16
Neighs:              0 ave           0 max           0 min
Histogram: 64 0 0 0 0 0 0 0 0 0

Total # of neighbors = 0
Ave neighs/atom = 0
Ave special neighs/atom = 15.567568
Neighbor list builds = 61
Dangerous builds = 0
unfix           myat1
next            cpt
jump            SELF loop
variable        zdes equal  -15+0.60*(${cpt}-1)
variable        zdes equal  -15+0.60*(51-1)
variable        zave equal xcm(H2,z)
fix             mytth2 H2 spring tether ${k1} 2.5 2.5 ${zdes} 0
fix             mytth2 H2 spring tether 1.4 2.5 2.5 ${zdes} 0
fix             mytth2 H2 spring tether 1.4 2.5 2.5 15 0
run             10000
Generated 0 of 1 mixed pair_coeff terms from geometric mixing rule
Per MPI rank memory allocation (min/avg/max) = 13.32 | 13.63 | 14.98 Mbytes
   Step          Temp          E_pair         E_mol          TotEng         Press     
   3020000   302.20498      384.20652      18508.015      19324.613      55.319789    
   3030000   293.8964       394.12043      18488.907      19303.531      229.60676    
Loop time of 3.48608 on 64 procs for 10000 steps with 481 atoms

Performance: 12.392 ns/day, 1.937 hours/ns, 2868.552 timesteps/s, 1.380 Matom-step/s
100.0% CPU use with 64 MPI tasks x 1 OpenMP threads

MPI task timing breakdown:
Section |  min time  |  avg time  |  max time  |%varavg| %total
---------------------------------------------------------------
Pair    | 0.003206   | 0.13562    | 1.0481     |  66.1 |  3.89
Bond    | 0.0010759  | 0.15914    | 0.86667    |  66.8 |  4.57
Neigh   | 0.0047253  | 0.0052335  | 0.0056046  |   0.3 |  0.15
Comm    | 1.3219     | 2.6642     | 3.2019     |  37.6 | 76.42
Output  | 0.0015445  | 0.0029321  | 0.0043484  |   1.6 |  0.08
Modify  | 0.13767    | 0.40258    | 1.8172     |  82.3 | 11.55
Other   |            | 0.1164     |            |       |  3.34

Nlocal:        7.51562 ave          41 max           0 min
Histogram: 43 5 1 0 2 2 4 3 1 3
Nghost:        1824.08 ave        2417 max        1285 min
Histogram: 16 0 0 0 32 0 0 0 0 16
Neighs:              0 ave           0 max           0 min
Histogram: 64 0 0 0 0 0 0 0 0 0

Total # of neighbors = 0
Ave neighs/atom = 0
Ave special neighs/atom = 15.567568
Neighbor list builds = 11
Dangerous builds = 0
fix             myat1 all ave/time 1000 10 10000 v_zave v_zdes file simulation_data/abpot/${cpt}.dat
fix             myat1 all ave/time 1000 10 10000 v_zave v_zdes file simulation_data/abpot/51.dat
run             50000
Generated 0 of 1 mixed pair_coeff terms from geometric mixing rule
Per MPI rank memory allocation (min/avg/max) = 13.32 | 13.63 | 14.98 Mbytes
   Step          Temp          E_pair         E_mol          TotEng         Press     
   3030000   293.8964       394.12043      18488.907      19303.531      229.60676    
   3040000   284.01731      375.31614      18499.15       19280.835     -227.78574    
   3050000   313.10907      379.16411      18518.128      19345.285     -132.27674    
   3060000   296.36613      389.64274      18521.078      19334.758      41.656979    
   3070000   292.30039      378.00818      18514.406      19310.634     -236.37901    
   3080000   278.77505      374.08593      18520.781      19293.735     -233.87679    
Loop time of 16.961 on 64 procs for 50000 steps with 481 atoms

Performance: 12.735 ns/day, 1.885 hours/ns, 2947.945 timesteps/s, 1.418 Matom-step/s
100.0% CPU use with 64 MPI tasks x 1 OpenMP threads

MPI task timing breakdown:
Section |  min time  |  avg time  |  max time  |%varavg| %total
---------------------------------------------------------------
Pair    | 0.016105   | 0.67348    | 5.2319     | 146.5 |  3.97
Bond    | 0.0053985  | 0.79077    | 4.209      | 146.9 |  4.66
Neigh   | 0.024536   | 0.027383   | 0.029655   |   0.8 |  0.16
Comm    | 6.5671     | 12.89      | 15.589     |  81.5 | 76.00
Output  | 0.0074663  | 0.014476   | 0.021435   |   3.7 |  0.09
Modify  | 0.63781    | 1.9831     | 8.6224     | 174.5 | 11.69
Other   |            | 0.5816     |            |       |  3.43

Nlocal:        7.51562 ave          42 max           0 min
Histogram: 44 2 2 1 1 4 5 3 1 1
Nghost:        1816.58 ave        2404 max        1282 min
Histogram: 16 0 0 0 32 0 0 0 0 16
Neighs:              0 ave           0 max           0 min
Histogram: 64 0 0 0 0 0 0 0 0 0

Total # of neighbors = 0
Ave neighs/atom = 0
Ave special neighs/atom = 15.567568
Neighbor list builds = 61
Dangerous builds = 0
unfix           myat1
next            cpt
jump            SELF loop

Total wall time: 0:17:39
