# --- log file ---

variable pre equal 112 # desired pressure (Atm)
variable tem equal 300 # desired temperature (K)

variable k1 equal 1. # spring constant
variable k2 equal 3.5 # spring constant

units real
atom_style molecular
boundary p p p
neighbor 1.0 bin
neigh_modify delay 3 one 6000
bond_style harmonic
angle_style harmonic
dihedral_style opls
improper_style harmonic
pair_style hybrid lj/cut 14 sg 15 cb 30 # Fluid-fluid interactions have a cutoff of 15 Å, fluid-solid interactions have a cutoff of 30 Å
# *--* C-C parameters *--*
bond_style harmonic
angle_style harmonic
dihedral_style opls
improper_style harmonic
# *--* C-C parameters *--*


# 2. Read the graphite platelet data file and define potentials parameters
read_data       ../geometry/carbonPlatelets/simulation_data/abpot_sys.data  extra/atom/types 1
Reading data file ...
  orthogonal box = (-30 -30 -30) to (30 30 30)
  2 by 2 by 4 MPI processor grid
  reading atoms ...
  480 atoms
  reading velocities ...
  480 velocities
  scanning bonds ...
  2 = max bonds/atom
  scanning angles ...
  3 = max angles/atom
  scanning dihedrals ...
  8 = max dihedrals/atom
  scanning impropers ...
  2 = max impropers/atom
  orthogonal box = (-30 -30 -30) to (30 30 30)
  2 by 2 by 4 MPI processor grid
  reading bonds ...
  676 bonds
  reading angles ...
  1268 angles
  reading dihedrals ...
  2394 dihedrals
  reading impropers ...
  396 impropers
Finding 1-2 1-3 1-4 neighbors ...
  special bond factors lj:    0        0        0       
  special bond factors coul:  0        0        0       
     3 = max # of 1-2 neighbors
     6 = max # of 1-3 neighbors
    18 = max # of 1-4 neighbors
    18 = max # of special neighbors
  special bonds CPU = 0.001 seconds
  read_data CPU = 0.036 seconds
include         PARM.lammps

#////////////////////////////////////////////////////////////////////////////////////////////////////////////////////////////////
#//     Filename: PARM.lammps
#//     File Type: LAMMPS input script
#//     Description: This script defines the parameters for the simulation of hydrogen absorption in graphite platelets.
#//     Author: Edoardo Cabiati
#//     Date: 2024-07-27
#////////////////////////////////////////////////////////////////////////////////////////////////////////////////////////////////

mass 2 2.016 # For now at least, in accordance with the paper by Wang and Johnson,
             # 1998, the hydrogen atoms are regarded as simple spherical atoms

# //////////////////////////////////////    C-C potentials    //////////////////////////////////////
pair_coeff 1 1 lj/cut 0.066 3.4
bond_coeff 1 469 1.4
angle_coeff 1 63 120
dihedral_coeff 1 0 7.25 0 0
improper_coeff 1 5 180
special_bonds lj 0.0 0.0 0.5
Finding 1-2 1-3 1-4 neighbors ...
  special bond factors lj:    0        0        0.5     
  special bond factors coul:  0        0        0       
     3 = max # of 1-2 neighbors
     6 = max # of 1-3 neighbors
    18 = max # of 1-4 neighbors
    18 = max # of special neighbors
  special bonds CPU = 0.001 seconds
# //////////////////////////////////////    C-C potentials    //////////////////////////////////////
# -------------------------------------------------------------------------------------------------
# //////////////////////////////////////    H-H potentials    //////////////////////////////////////
variable alpha equal 1.713          #|
variable sigma equal 1.567          #|
variable gamma equal 0.00993        #|
variable c6 equal 12.14             #|      The parameters are all in atomic units, the conversion to kcal/mol
variable c8 equal 215.2             #|      is performed in the pair_sg.cpp file
variable c9 equal 143.1             #|
variable c10 equal 4813.9           #|
variable rc equal 8.321             #|
pair_coeff 2 2 sg ${alpha} ${sigma} ${gamma} ${c6} ${c8} ${c9} ${c10} ${rc} # H-H potentials
pair_coeff 2 2 sg 1.713 ${sigma} ${gamma} ${c6} ${c8} ${c9} ${c10} ${rc} 
pair_coeff 2 2 sg 1.713 1.567 ${gamma} ${c6} ${c8} ${c9} ${c10} ${rc} 
pair_coeff 2 2 sg 1.713 1.567 0.00993 ${c6} ${c8} ${c9} ${c10} ${rc} 
pair_coeff 2 2 sg 1.713 1.567 0.00993 12.14 ${c8} ${c9} ${c10} ${rc} 
pair_coeff 2 2 sg 1.713 1.567 0.00993 12.14 215.2 ${c9} ${c10} ${rc} 
pair_coeff 2 2 sg 1.713 1.567 0.00993 12.14 215.2 143.1 ${c10} ${rc} 
pair_coeff 2 2 sg 1.713 1.567 0.00993 12.14 215.2 143.1 4813.9 ${rc} 
pair_coeff 2 2 sg 1.713 1.567 0.00993 12.14 215.2 143.1 4813.9 8.321 
#pair_coeff 2 2 sg 1.713 1.567 0.00993 12.14 215.2 143.1 4813.9 8.321 # H-H potentials
# //////////////////////////////////////    H-H potentials    //////////////////////////////////////
# -------------------------------------------------------------------------------------------------
# //////////////////////////////////////    C-H potentials    //////////////////////////////////////
# Parameters taken from the paper by Wang and Johnson, 1998
variable sigma_CC equal 3.43 # Å
variable sigma_HH equal 3.075 # Å
variable sigma_CH_geo equal sqrt(${sigma_CC}*${sigma_HH}) # Å
variable sigma_CH_geo equal sqrt(3.43*${sigma_HH}) 
variable sigma_CH_geo equal sqrt(3.43*3.075) 
variable sigma_CH_arit equal 0.5*(${sigma_CC}+${sigma_HH}) # Å
variable sigma_CH_arit equal 0.5*(3.43+${sigma_HH}) 
variable sigma_CH_arit equal 0.5*(3.43+3.075) 

variable P_par equal 0.57 # Å^3
variable P_perp equal 1.995 # Å^3
variable P_h equal 0.81 # Å^3
variable E_h equal 2.337e5*(1/503.23) # K * 1/503.23 kcal/mol/K = kcal/mol
variable E_c equal 1.39254e5*(1/503.23) # K * 1/503.23 kcal/mol/K = kcal/mol

variable epsilon_CB equal 4*v_E_h*v_E_c*v_P_h*(v_P_par+v_P_perp/2)/(v_sigma_CH_geo^6*(v_E_h+v_E_c)) # kcal/mol
# The following is a set of parameters taken from the paper "Theoretical investigation of the effect of graphite interlayer
# spacing on hydrogen absorption" by Rachel S. Aga, C. L. Fu, Maja Krčmar, and James R. Morris, where the CB potential is
# simplified into a 12-6 LJ potential 4*epsilon*⌊(sigma/r)^12 − (sigma/r)^6⌋ .
# variable epsilon equal 4*0.085094 # kcal/mol
# variable sigma equal 2.97 # Å

pair_coeff 1 2 cb ${epsilon_CB} ${sigma_CH_geo} ${P_par} ${P_perp} # C-H potential
pair_coeff 1 2 cb 0.750549668586509 ${sigma_CH_geo} ${P_par} ${P_perp} 
pair_coeff 1 2 cb 0.750549668586509 3.24765299870537 ${P_par} ${P_perp} 
pair_coeff 1 2 cb 0.750549668586509 3.24765299870537 0.57 ${P_perp} 
pair_coeff 1 2 cb 0.750549668586509 3.24765299870537 0.57 1.995 
#pair_coeff 1 2 lj/cut 0.3025 2.065
# //////////////////////////////////////    C-H potentials    //////////////////////////////////////

# 3. Add a single hydrogen molecule to the system, close to the center of the first platelet
create_atoms    2 single 0 0 -2
Created 1 atoms
  using lattice units in orthogonal box = (-30 -30 -30) to (30 30 30)
  create_atoms CPU = 0.000 seconds

group           C type 1
480 atoms in group C
group           H2 type 2
1 atoms in group H2

# 4. Equilibration
timestep        0.05
fix             mytth1 C spring/self ${k2} # Apply a spring force to the carbon atoms
fix             mytth1 C spring/self 3.5 
velocity        all create ${tem} 48 rot yes mom yes dist gaussian # Initialize velocities
velocity        all create 300 48 rot yes mom yes dist gaussian 
fix             mynpt all npt temp ${tem} ${tem} 100 x ${pre} ${pre} 1000 y ${pre} ${pre} 1000 # Apply NPT ensemble to the system
fix             mynpt all npt temp 300 ${tem} 100 x ${pre} ${pre} 1000 y ${pre} ${pre} 1000 
fix             mynpt all npt temp 300 300 100 x ${pre} ${pre} 1000 y ${pre} ${pre} 1000 
fix             mynpt all npt temp 300 300 100 x 112 ${pre} 1000 y ${pre} ${pre} 1000 
fix             mynpt all npt temp 300 300 100 x 112 112 1000 y ${pre} ${pre} 1000 
fix             mynpt all npt temp 300 300 100 x 112 112 1000 y 112 ${pre} 1000 
fix             mynpt all npt temp 300 300 100 x 112 112 1000 y 112 112 1000 

thermo          10000
dump            dump all atom 1000 simulation_data/absorption_pot.lammpstrj

run             20000

CITE-CITE-CITE-CITE-CITE-CITE-CITE-CITE-CITE-CITE-CITE-CITE-CITE

Your simulation uses code contributions which should be cited:

- Type Label Framework: https://doi.org/10.1021/acs.jpcb.3c08419

@Article{Gissinger24,
 author = {Jacob R. Gissinger, Ilia Nikiforov, Yaser Afshar, Brendon Waters, Moon-ki Choi, Daniel S. Karls, Alexander Stukowski, Wonpil Im, Hendrik Heinz, Axel Kohlmeyer, and Ellad B. Tadmor},
 title = {Type Label Framework for Bonded Force Fields in LAMMPS},
 journal = {J. Phys. Chem. B},
 year =    2024,
 volume =  128,
 number =  13,
 pages =   {3282–-3297}
}

CITE-CITE-CITE-CITE-CITE-CITE-CITE-CITE-CITE-CITE-CITE-CITE-CITE

Generated 0 of 1 mixed pair_coeff terms from geometric mixing rule
Neighbor list info ...
  update: every = 1 steps, delay = 3 steps, check = yes
  max neighbors/atom: 6000, page size: 100000
  master list distance cutoff = 31
  ghost atom cutoff = 31
  binsize = 15.5, bins = 4 4 4
  4 neighbor lists, perpetual/occasional/extra = 4 0 0
  (1) pair lj/cut, perpetual, skip trim from (4)
      attributes: half, newton on, cut 15
      pair build: skip/trim
      stencil: none
      bin: none
  (2) pair sg, perpetual, skip trim from (4)
      attributes: half, newton on, cut 16
      pair build: skip/trim
      stencil: none
      bin: none
  (3) pair cb, perpetual, skip from (4)
      attributes: half, newton on
      pair build: skip
      stencil: none
      bin: none
  (4) neighbor class addition, perpetual
      attributes: half, newton on
      pair build: half/bin/newton
      stencil: half/bin/3d
      bin: standard
Per MPI rank memory allocation (min/avg/max) = 13.34 | 13.66 | 13.99 Mbytes
   Step          Temp          E_pair         E_mol          TotEng         Press          Volume    
         0   300            308.43814      19603.922      20341.597     -432.48369      216000       
     10000   308.72719      373.58236      18568.419      19383.724     -313.9945       172136.64    
     20000   322.02648      371.05675      18538.378      19370.187     -418.66256      126544.33    
Loop time of 5.08186 on 16 procs for 20000 steps with 481 atoms

Performance: 17.002 ns/day, 1.412 hours/ns, 3935.563 timesteps/s, 1.893 Matom-step/s
99.6% CPU use with 16 MPI tasks x 1 OpenMP threads

MPI task timing breakdown:
Section |  min time  |  avg time  |  max time  |%varavg| %total
---------------------------------------------------------------
Pair    | 0.5104     | 0.82901    | 1.3558     |  22.1 | 16.31
Bond    | 0.72365    | 0.93828    | 1.0918     |  10.4 | 18.46
Neigh   | 0.021408   | 0.021849   | 0.022436   |   0.2 |  0.43
Comm    | 2.3326     | 2.7199     | 3.1056     |  13.7 | 53.52
Output  | 0.0022471  | 0.0040274  | 0.0059103  |   2.1 |  0.08
Modify  | 0.3414     | 0.43197    | 0.50797    |   7.3 |  8.50
Other   |            | 0.1369     |            |       |  2.69

Nlocal:        30.0625 ave          37 max          19 min
Histogram: 1 0 0 1 0 4 3 6 0 1
Nghost:        2326.06 ave        2341 max        2307 min
Histogram: 1 0 1 3 1 2 2 2 3 1
Neighs:              0 ave           0 max           0 min
Histogram: 16 0 0 0 0 0 0 0 0 0

Total # of neighbors = 0
Ave neighs/atom = 0
Ave special neighs/atom = 15.567568
Neighbor list builds = 55
Dangerous builds = 0
unfix           mynpt
unfix           mytth1

# 5. Umbrella sampling
fix             mynvt all nvt temp ${tem} ${tem} 100
fix             mynvt all nvt temp 300 ${tem} 100
fix             mynvt all nvt temp 300 300 100
fix             mytth1 C spring/self ${k2}
fix             mytth1 C spring/self 3.5

variable        cpt loop 51
label           loop
variable        zdes equal  -15+0.60*(${cpt}-1)
variable        zdes equal  -15+0.60*(1-1)
variable        zave equal xcm(H2,z)
fix             mytth2 H2 spring tether ${k1} 2.5 2.5 ${zdes} 0
fix             mytth2 H2 spring tether 1 2.5 2.5 ${zdes} 0
fix             mytth2 H2 spring tether 1 2.5 2.5 -15 0
run             10000
Generated 0 of 1 mixed pair_coeff terms from geometric mixing rule
Per MPI rank memory allocation (min/avg/max) = 13.35 | 14.19 | 15 Mbytes
   Step          Temp          E_pair         E_mol          TotEng         Press     
     20000   322.02648      371.05675      18538.378      19370.187     -418.66256    
     30000   294.65129      331.29407      18614.899      19367.777     -1253.4792    
Loop time of 2.40665 on 16 procs for 10000 steps with 481 atoms

Performance: 17.950 ns/day, 1.337 hours/ns, 4155.147 timesteps/s, 1.999 Matom-step/s
99.9% CPU use with 16 MPI tasks x 1 OpenMP threads

MPI task timing breakdown:
Section |  min time  |  avg time  |  max time  |%varavg| %total
---------------------------------------------------------------
Pair    | 0.058793   | 0.31842    | 0.5388     |  24.9 | 13.23
Bond    | 0.2564     | 0.40115    | 0.52619    |   9.7 | 16.67
Neigh   | 0.028672   | 0.02994    | 0.030803   |   0.3 |  1.24
Comm    | 1.1726     | 1.4809     | 1.7921     |  14.7 | 61.53
Output  | 0.0011286  | 0.0016716  | 0.0022609  |   0.9 |  0.07
Modify  | 0.07846    | 0.11161    | 0.13141    |   4.1 |  4.64
Other   |            | 0.063      |            |       |  2.62

Nlocal:        30.0625 ave          37 max          21 min
Histogram: 1 0 1 3 1 3 1 2 2 2
Nghost:        2329.19 ave        2343 max        2316 min
Histogram: 4 0 2 0 2 1 1 2 2 2
Neighs:              0 ave           0 max           0 min
Histogram: 16 0 0 0 0 0 0 0 0 0

Total # of neighbors = 0
Ave neighs/atom = 0
Ave special neighs/atom = 15.567568
Neighbor list builds = 81
Dangerous builds = 0
fix             myat1 all ave/time 100 10 1000 v_zave v_zdes file simulation_data/abpot/${cpt}.dat
fix             myat1 all ave/time 100 10 1000 v_zave v_zdes file simulation_data/abpot/1.dat
run             50000
Generated 0 of 1 mixed pair_coeff terms from geometric mixing rule
Per MPI rank memory allocation (min/avg/max) = 13.35 | 14.2 | 15 Mbytes
   Step          Temp          E_pair         E_mol          TotEng         Press     
     30000   294.65129      331.29407      18614.899      19367.777     -1253.4792    
     40000   294.37748      405.19154      18565.937      19392.32       656.42512    
     50000   313.28617      390.81789      18561.13       19400.194      383.80891    
     60000   316.36133      369.18642      18554.753      19376.585     -272.94375    
     70000   279.59232      370.04085      18544.157      19314.235     -253.46861    
     80000   277.1738       393.89569      18523.091      19313.563      376.39794    
Loop time of 11.6337 on 16 procs for 50000 steps with 481 atoms

Performance: 18.567 ns/day, 1.293 hours/ns, 4297.873 timesteps/s, 2.067 Matom-step/s
100.0% CPU use with 16 MPI tasks x 1 OpenMP threads

MPI task timing breakdown:
Section |  min time  |  avg time  |  max time  |%varavg| %total
---------------------------------------------------------------
Pair    | 0.28551    | 1.5601     | 2.7446     |  54.6 | 13.41
Bond    | 1.1813     | 1.9663     | 2.6082     |  23.3 | 16.90
Neigh   | 0.042729   | 0.043841   | 0.044791   |   0.3 |  0.38
Comm    | 5.7152     | 7.1997     | 8.8915     |  35.7 | 61.89
Output  | 0.0043868  | 0.0066372  | 0.0086065  |   1.7 |  0.06
Modify  | 0.36394    | 0.53913    | 0.73012    |  17.6 |  4.63
Other   |            | 0.3179     |            |       |  2.73

Nlocal:        30.0625 ave          37 max          20 min
Histogram: 1 1 1 0 2 2 3 3 1 2
Nghost:        2377.56 ave        2389 max        2364 min
Histogram: 3 1 1 2 1 0 1 1 2 4
Neighs:              0 ave           0 max           0 min
Histogram: 16 0 0 0 0 0 0 0 0 0

Total # of neighbors = 0
Ave neighs/atom = 0
Ave special neighs/atom = 15.567568
Neighbor list builds = 132
Dangerous builds = 0
unfix           myat1
next            cpt
jump            SELF loop
variable        zdes equal  -15+0.60*(${cpt}-1)
variable        zdes equal  -15+0.60*(2-1)
variable        zave equal xcm(H2,z)
fix             mytth2 H2 spring tether ${k1} 2.5 2.5 ${zdes} 0
fix             mytth2 H2 spring tether 1 2.5 2.5 ${zdes} 0
fix             mytth2 H2 spring tether 1 2.5 2.5 -14.4 0
run             10000
Generated 0 of 1 mixed pair_coeff terms from geometric mixing rule
Per MPI rank memory allocation (min/avg/max) = 13.35 | 14.26 | 15 Mbytes
   Step          Temp          E_pair         E_mol          TotEng         Press     
     80000   277.1738       393.89569      18523.091      19313.563      376.39794    
     90000   286.9744       379.10612      18537.638      19327.344      76.715345    
Loop time of 2.34114 on 16 procs for 10000 steps with 481 atoms

Performance: 18.453 ns/day, 1.301 hours/ns, 4271.415 timesteps/s, 2.055 Matom-step/s
100.0% CPU use with 16 MPI tasks x 1 OpenMP threads

MPI task timing breakdown:
Section |  min time  |  avg time  |  max time  |%varavg| %total
---------------------------------------------------------------
Pair    | 0.052371   | 0.31144    | 0.53021    |  24.8 | 13.30
Bond    | 0.21694    | 0.39217    | 0.52288    |  10.9 | 16.75
Neigh   | 0.0042149  | 0.0043284  | 0.0044395  |   0.1 |  0.18
Comm    | 1.1534     | 1.4616     | 1.828      |  16.1 | 62.43
Output  | 0.00074493 | 0.0011805  | 0.0015823  |   0.7 |  0.05
Modify  | 0.066475   | 0.10706    | 0.15078    |   9.0 |  4.57
Other   |            | 0.06335    |            |       |  2.71

Nlocal:        30.0625 ave          38 max          22 min
Histogram: 1 2 2 1 0 4 3 0 0 3
Nghost:        2380.94 ave        2398 max        2367 min
Histogram: 3 2 1 2 1 1 1 3 0 2
Neighs:              0 ave           0 max           0 min
Histogram: 16 0 0 0 0 0 0 0 0 0

Total # of neighbors = 0
Ave neighs/atom = 0
Ave special neighs/atom = 15.567568
Neighbor list builds = 13
Dangerous builds = 0
fix             myat1 all ave/time 100 10 1000 v_zave v_zdes file simulation_data/abpot/${cpt}.dat
fix             myat1 all ave/time 100 10 1000 v_zave v_zdes file simulation_data/abpot/2.dat
run             50000
Generated 0 of 1 mixed pair_coeff terms from geometric mixing rule
Per MPI rank memory allocation (min/avg/max) = 13.35 | 14.26 | 15 Mbytes
   Step          Temp          E_pair         E_mol          TotEng         Press     
     90000   286.9744       379.10612      18537.638      19327.344      76.715345    
    100000   284.02104      357.21212      18592.143      19355.729     -640.27412    
    110000   305.59641      373.91348      18563.658      19374.815     -145.31575    
    120000   297.92351      377.11478      18528.498      19331.878      225.40378    
    130000   291.38554      378.61688      18528.289      19323.817     -68.203252    
    140000   286.52685      370.33921      18569.056      19349.355     -164.03803    
Loop time of 12.6347 on 16 procs for 50000 steps with 481 atoms

Performance: 17.096 ns/day, 1.404 hours/ns, 3957.357 timesteps/s, 1.903 Matom-step/s
100.0% CPU use with 16 MPI tasks x 1 OpenMP threads

MPI task timing breakdown:
Section |  min time  |  avg time  |  max time  |%varavg| %total
---------------------------------------------------------------
Pair    | 0.32219    | 1.7124     | 2.891      |  56.5 | 13.55
Bond    | 1.3046     | 2.1596     | 2.861      |  23.5 | 17.09
Neigh   | 0.035812   | 0.036704   | 0.037725   |   0.2 |  0.29
Comm    | 6.1401     | 7.8014     | 9.6313     |  35.7 | 61.75
Output  | 0.005018   | 0.0072335  | 0.0091358  |   1.5 |  0.06
Modify  | 0.42168    | 0.57186    | 0.80696    |  19.4 |  4.53
Other   |            | 0.3454     |            |       |  2.73

Nlocal:        30.0625 ave          37 max          24 min
Histogram: 3 2 2 1 0 1 2 2 1 2
Nghost:        2362.19 ave        2384 max        2336 min
Histogram: 1 0 1 3 1 3 3 2 0 2
Neighs:              0 ave           0 max           0 min
Histogram: 16 0 0 0 0 0 0 0 0 0

Total # of neighbors = 0
Ave neighs/atom = 0
Ave special neighs/atom = 15.567568
Neighbor list builds = 96
Dangerous builds = 0
unfix           myat1
next            cpt
jump            SELF loop
variable        zdes equal  -15+0.60*(${cpt}-1)
variable        zdes equal  -15+0.60*(3-1)
variable        zave equal xcm(H2,z)
fix             mytth2 H2 spring tether ${k1} 2.5 2.5 ${zdes} 0
fix             mytth2 H2 spring tether 1 2.5 2.5 ${zdes} 0
fix             mytth2 H2 spring tether 1 2.5 2.5 -13.8 0
run             10000
Generated 0 of 1 mixed pair_coeff terms from geometric mixing rule
Per MPI rank memory allocation (min/avg/max) = 13.35 | 14.26 | 15 Mbytes
   Step          Temp          E_pair         E_mol          TotEng         Press     
    140000   286.52685      370.33921      18569.056      19349.355     -164.03803    
    150000   291.43069      373.22289      18550.282      19340.481     -45.868561    
Loop time of 2.81328 on 16 procs for 10000 steps with 481 atoms

Performance: 15.356 ns/day, 1.563 hours/ns, 3554.567 timesteps/s, 1.710 Matom-step/s
100.0% CPU use with 16 MPI tasks x 1 OpenMP threads

MPI task timing breakdown:
Section |  min time  |  avg time  |  max time  |%varavg| %total
---------------------------------------------------------------
Pair    | 0.07069    | 0.39651    | 0.67864    |  26.6 | 14.09
Bond    | 0.28701    | 0.50296    | 0.6244     |  11.1 | 17.88
Neigh   | 0.0093666  | 0.0096143  | 0.0098911  |   0.1 |  0.34
Comm    | 1.3956     | 1.7019     | 2.1029     |  16.3 | 60.49
Output  | 0.0010625  | 0.0017073  | 0.0022313  |   0.9 |  0.06
Modify  | 0.078683   | 0.12221    | 0.1611     |   8.4 |  4.34
Other   |            | 0.07839    |            |       |  2.79

Nlocal:        30.0625 ave          36 max          25 min
Histogram: 3 1 0 5 1 2 0 1 0 3
Nghost:        2360.31 ave        2378 max        2345 min
Histogram: 2 0 3 2 3 0 3 1 1 1
Neighs:              0 ave           0 max           0 min
Histogram: 16 0 0 0 0 0 0 0 0 0

Total # of neighbors = 0
Ave neighs/atom = 0
Ave special neighs/atom = 15.567568
Neighbor list builds = 23
Dangerous builds = 0
fix             myat1 all ave/time 100 10 1000 v_zave v_zdes file simulation_data/abpot/${cpt}.dat
fix             myat1 all ave/time 100 10 1000 v_zave v_zdes file simulation_data/abpot/3.dat
run             50000
Generated 0 of 1 mixed pair_coeff terms from geometric mixing rule
Per MPI rank memory allocation (min/avg/max) = 13.35 | 14.26 | 15 Mbytes
   Step          Temp          E_pair         E_mol          TotEng         Press     
    150000   291.43069      373.22289      18550.282      19340.481     -45.868561    
    160000   308.88096      384.82469      18544.7        19371.468      280.10882    
    170000   300.4309       374.78346      18554.922      19359.558     -224.25487    
    180000   303.72651      376.85202      18526.456      19337.876      76.771664    
    190000   293.49343      366.74074      18536.732      19323.4       -259.81759    
    200000   301.3137       376.35949      18538.953      19346.429      22.873866    
Loop time of 13.9663 on 16 procs for 50000 steps with 481 atoms

Performance: 15.466 ns/day, 1.552 hours/ns, 3580.057 timesteps/s, 1.722 Matom-step/s
100.0% CPU use with 16 MPI tasks x 1 OpenMP threads

MPI task timing breakdown:
Section |  min time  |  avg time  |  max time  |%varavg| %total
---------------------------------------------------------------
Pair    | 0.44654    | 1.9798     | 3.3257     |  59.7 | 14.18
Bond    | 1.5687     | 2.5148     | 3.2787     |  24.3 | 18.01
Neigh   | 0.04316    | 0.044078   | 0.045177   |   0.3 |  0.32
Comm    | 6.5255     | 8.406      | 10.286     |  37.4 | 60.19
Output  | 0.0063008  | 0.0088593  | 0.01094    |   1.5 |  0.06
Modify  | 0.39721    | 0.61995    | 0.86783    |  20.9 |  4.44
Other   |            | 0.3928     |            |       |  2.81

Nlocal:        30.0625 ave          38 max          25 min
Histogram: 3 1 1 4 3 1 1 1 0 1
Nghost:        2362.56 ave        2382 max        2349 min
Histogram: 2 2 2 3 1 1 2 2 0 1
Neighs:              0 ave           0 max           0 min
Histogram: 16 0 0 0 0 0 0 0 0 0

Total # of neighbors = 0
Ave neighs/atom = 0
Ave special neighs/atom = 15.567568
Neighbor list builds = 106
Dangerous builds = 0
unfix           myat1
next            cpt
jump            SELF loop
variable        zdes equal  -15+0.60*(${cpt}-1)
variable        zdes equal  -15+0.60*(4-1)
variable        zave equal xcm(H2,z)
fix             mytth2 H2 spring tether ${k1} 2.5 2.5 ${zdes} 0
fix             mytth2 H2 spring tether 1 2.5 2.5 ${zdes} 0
fix             mytth2 H2 spring tether 1 2.5 2.5 -13.2 0
run             10000
Generated 0 of 1 mixed pair_coeff terms from geometric mixing rule
Per MPI rank memory allocation (min/avg/max) = 13.35 | 14.26 | 15 Mbytes
   Step          Temp          E_pair         E_mol          TotEng         Press     
    200000   301.3137       376.35949      18538.953      19346.429      22.873866    
    210000   304.40022      375.55652      18540.265      19351.354     -35.263418    
Loop time of 2.79157 on 16 procs for 10000 steps with 481 atoms

Performance: 15.475 ns/day, 1.551 hours/ns, 3582.213 timesteps/s, 1.723 Matom-step/s
100.0% CPU use with 16 MPI tasks x 1 OpenMP threads

MPI task timing breakdown:
Section |  min time  |  avg time  |  max time  |%varavg| %total
---------------------------------------------------------------
Pair    | 0.090013   | 0.39655    | 0.65768    |  26.6 | 14.21
Bond    | 0.3092     | 0.5037     | 0.63594    |  10.8 | 18.04
Neigh   | 0.0064412  | 0.0065758  | 0.0067268  |   0.1 |  0.24
Comm    | 1.3348     | 1.6811     | 2.0529     |  16.6 | 60.22
Output  | 0.00095387 | 0.0015893  | 0.0020927  |   0.9 |  0.06
Modify  | 0.077448   | 0.12336    | 0.16949    |   9.2 |  4.42
Other   |            | 0.07872    |            |       |  2.82

Nlocal:        30.0625 ave          34 max          26 min
Histogram: 1 2 1 2 0 3 2 3 1 1
Nghost:        2373.81 ave        2394 max        2359 min
Histogram: 2 2 2 1 3 1 2 1 1 1
Neighs:              0 ave           0 max           0 min
Histogram: 16 0 0 0 0 0 0 0 0 0

Total # of neighbors = 0
Ave neighs/atom = 0
Ave special neighs/atom = 15.567568
Neighbor list builds = 16
Dangerous builds = 0
fix             myat1 all ave/time 100 10 1000 v_zave v_zdes file simulation_data/abpot/${cpt}.dat
fix             myat1 all ave/time 100 10 1000 v_zave v_zdes file simulation_data/abpot/4.dat
run             50000
Generated 0 of 1 mixed pair_coeff terms from geometric mixing rule
Per MPI rank memory allocation (min/avg/max) = 13.35 | 14.26 | 15 Mbytes
   Step          Temp          E_pair         E_mol          TotEng         Press     
    210000   304.40022      375.55652      18540.265      19351.354     -35.263418    
    220000   282.31199      363.05017      18560.65       19327.629     -358.49959    
    230000   283.54359      368.42535      18539.086      19313.202     -146.03534    
    240000   287.79732      374.96453      18523.064      19309.806     -42.536447    
    250000   302.2712       372.29422      18530.914      19335.695     -76.850456    
    260000   310.60158      370.88352      18533.656      19348.944     -98.562065    
Loop time of 15.6161 on 16 procs for 50000 steps with 481 atoms

Performance: 13.832 ns/day, 1.735 hours/ns, 3201.821 timesteps/s, 1.540 Matom-step/s
100.0% CPU use with 16 MPI tasks x 1 OpenMP threads

MPI task timing breakdown:
Section |  min time  |  avg time  |  max time  |%varavg| %total
---------------------------------------------------------------
Pair    | 0.4202     | 2.0168     | 3.5372     |  59.7 | 12.91
Bond    | 1.5668     | 2.5663     | 3.3742     |  24.9 | 16.43
Neigh   | 0.048318   | 0.049476   | 0.050507   |   0.3 |  0.32
Comm    | 7.7727     | 9.8381     | 11.794     |  35.0 | 63.00
Output  | 0.0068633  | 0.0097983  | 0.012139   |   1.7 |  0.06
Modify  | 0.45107    | 0.70955    | 1.0093     |  23.3 |  4.54
Other   |            | 0.426      |            |       |  2.73

Nlocal:        30.0625 ave          40 max          21 min
Histogram: 1 2 0 2 3 2 4 1 0 1
Nghost:        2363.69 ave        2384 max        2348 min
Histogram: 2 0 4 1 1 4 3 0 0 1
Neighs:              0 ave           0 max           0 min
Histogram: 16 0 0 0 0 0 0 0 0 0

Total # of neighbors = 0
Ave neighs/atom = 0
Ave special neighs/atom = 15.567568
Neighbor list builds = 114
Dangerous builds = 0
unfix           myat1
next            cpt
jump            SELF loop
variable        zdes equal  -15+0.60*(${cpt}-1)
variable        zdes equal  -15+0.60*(5-1)
variable        zave equal xcm(H2,z)
fix             mytth2 H2 spring tether ${k1} 2.5 2.5 ${zdes} 0
fix             mytth2 H2 spring tether 1 2.5 2.5 ${zdes} 0
fix             mytth2 H2 spring tether 1 2.5 2.5 -12.6 0
run             10000
Generated 0 of 1 mixed pair_coeff terms from geometric mixing rule
Per MPI rank memory allocation (min/avg/max) = 13.35 | 14.26 | 15 Mbytes
   Step          Temp          E_pair         E_mol          TotEng         Press     
    260000   310.60158      370.88352      18533.656      19348.944     -98.562065    
    270000   292.72605      370.75658      18555.435      19345.021     -265.27667    
Loop time of 3.16517 on 16 procs for 10000 steps with 481 atoms

Performance: 13.649 ns/day, 1.758 hours/ns, 3159.383 timesteps/s, 1.520 Matom-step/s
100.0% CPU use with 16 MPI tasks x 1 OpenMP threads

MPI task timing breakdown:
Section |  min time  |  avg time  |  max time  |%varavg| %total
---------------------------------------------------------------
Pair    | 0.080013   | 0.40381    | 0.721      |  27.0 | 12.76
Bond    | 0.31083    | 0.51446    | 0.67955    |  11.7 | 16.25
Neigh   | 0.010157   | 0.010415   | 0.010682   |   0.1 |  0.33
Comm    | 1.5786     | 2.0079     | 2.4003     |  15.8 | 63.44
Output  | 0.001004   | 0.001778   | 0.0023377  |   1.0 |  0.06
Modify  | 0.088576   | 0.14065    | 0.19553    |  10.1 |  4.44
Other   |            | 0.08616    |            |       |  2.72

Nlocal:        30.0625 ave          38 max          17 min
Histogram: 1 0 1 1 1 4 1 2 2 3
Nghost:        2363.69 ave        2377 max        2346 min
Histogram: 1 3 0 2 0 2 1 2 2 3
Neighs:              0 ave           0 max           0 min
Histogram: 16 0 0 0 0 0 0 0 0 0

Total # of neighbors = 0
Ave neighs/atom = 0
Ave special neighs/atom = 15.567568
Neighbor list builds = 24
Dangerous builds = 0
fix             myat1 all ave/time 100 10 1000 v_zave v_zdes file simulation_data/abpot/${cpt}.dat
fix             myat1 all ave/time 100 10 1000 v_zave v_zdes file simulation_data/abpot/5.dat
run             50000
Generated 0 of 1 mixed pair_coeff terms from geometric mixing rule
Per MPI rank memory allocation (min/avg/max) = 13.35 | 14.26 | 15 Mbytes
   Step          Temp          E_pair         E_mol          TotEng         Press     
    270000   292.72605      370.75658      18555.435      19345.021     -265.27667    
    280000   279.98218      380.65866      18500.738      19281.992      148.86708    
    290000   311.8921       367.20547      18550.325      19363.782     -201.11682    
    300000   312.14585      373.69326      18522.009      19342.317     -39.161941    
    310000   293.81939      378.51644      18499.018      19297.927     -13.43573     
    320000   291.32865      373.28557      18507.981      19298.096     -0.60571844   
Loop time of 14.9865 on 16 procs for 50000 steps with 481 atoms

Performance: 14.413 ns/day, 1.665 hours/ns, 3336.331 timesteps/s, 1.605 Matom-step/s
100.0% CPU use with 16 MPI tasks x 1 OpenMP threads

MPI task timing breakdown:
Section |  min time  |  avg time  |  max time  |%varavg| %total
---------------------------------------------------------------
Pair    | 0.41201    | 2.0075     | 3.2922     |  57.8 | 13.40
Bond    | 1.7271     | 2.5513     | 3.2027     |  19.8 | 17.02
Neigh   | 0.038215   | 0.039008   | 0.039858   |   0.3 |  0.26
Comm    | 7.5972     | 9.273      | 11.006     |  32.5 | 61.88
Output  | 0.0066903  | 0.0096383  | 0.01189    |   1.7 |  0.06
Modify  | 0.43397    | 0.68988    | 0.96583    |  22.5 |  4.60
Other   |            | 0.4162     |            |       |  2.78

Nlocal:        30.0625 ave          39 max          24 min
Histogram: 1 1 6 1 2 1 2 0 0 2
Nghost:        2362.56 ave        2380 max        2346 min
Histogram: 1 2 1 2 2 3 1 1 2 1
Neighs:              0 ave           0 max           0 min
Histogram: 16 0 0 0 0 0 0 0 0 0

Total # of neighbors = 0
Ave neighs/atom = 0
Ave special neighs/atom = 15.567568
Neighbor list builds = 94
Dangerous builds = 0
unfix           myat1
next            cpt
jump            SELF loop
variable        zdes equal  -15+0.60*(${cpt}-1)
variable        zdes equal  -15+0.60*(6-1)
variable        zave equal xcm(H2,z)
fix             mytth2 H2 spring tether ${k1} 2.5 2.5 ${zdes} 0
fix             mytth2 H2 spring tether 1 2.5 2.5 ${zdes} 0
fix             mytth2 H2 spring tether 1 2.5 2.5 -12 0
run             10000
Generated 0 of 1 mixed pair_coeff terms from geometric mixing rule
Per MPI rank memory allocation (min/avg/max) = 13.35 | 14.26 | 15 Mbytes
   Step          Temp          E_pair         E_mol          TotEng         Press     
    320000   291.32865      373.28557      18507.981      19298.096     -0.60571844   
    330000   303.09532      376.93299      18508.266      19318.864      15.511696    
Loop time of 2.80643 on 16 procs for 10000 steps with 481 atoms

Performance: 15.393 ns/day, 1.559 hours/ns, 3563.250 timesteps/s, 1.714 Matom-step/s
100.0% CPU use with 16 MPI tasks x 1 OpenMP threads

MPI task timing breakdown:
Section |  min time  |  avg time  |  max time  |%varavg| %total
---------------------------------------------------------------
Pair    | 0.090242   | 0.39672    | 0.68136    |  25.9 | 14.14
Bond    | 0.36328    | 0.5045     | 0.65687    |   9.2 | 17.98
Neigh   | 0.0081368  | 0.0082832  | 0.0084425  |   0.1 |  0.30
Comm    | 1.3046     | 1.6969     | 2.0102     |  15.4 | 60.46
Output  | 0.00094655 | 0.0016154  | 0.0021389  |   0.9 |  0.06
Modify  | 0.076471   | 0.11993    | 0.1644     |   8.7 |  4.27
Other   |            | 0.0785     |            |       |  2.80

Nlocal:        30.0625 ave          39 max          25 min
Histogram: 4 0 5 2 0 1 0 3 0 1
Nghost:        2359.56 ave        2374 max        2347 min
Histogram: 2 2 4 0 2 0 1 1 2 2
Neighs:              0 ave           0 max           0 min
Histogram: 16 0 0 0 0 0 0 0 0 0

Total # of neighbors = 0
Ave neighs/atom = 0
Ave special neighs/atom = 15.567568
Neighbor list builds = 20
Dangerous builds = 0
fix             myat1 all ave/time 100 10 1000 v_zave v_zdes file simulation_data/abpot/${cpt}.dat
fix             myat1 all ave/time 100 10 1000 v_zave v_zdes file simulation_data/abpot/6.dat
run             50000
Generated 0 of 1 mixed pair_coeff terms from geometric mixing rule
Per MPI rank memory allocation (min/avg/max) = 13.35 | 14.26 | 15 Mbytes
   Step          Temp          E_pair         E_mol          TotEng         Press     
    330000   303.09532      376.93299      18508.266      19318.864      15.511696    
    340000   305.16312      373.14616      18530.925      19340.695      61.684557    
    350000   309.70704      369.92455      18547.172      19360.221     -135.78465    
    360000   280.57444      367.84523      18544.299      19313.587     -245.93071    
    370000   302.07793      386.30861      18490.82       19309.338      173.64063    
    380000   297.00423      379.30584      18482.394      19286.651      81.84346     
Loop time of 14.0441 on 16 procs for 50000 steps with 481 atoms

Performance: 15.380 ns/day, 1.560 hours/ns, 3560.223 timesteps/s, 1.712 Matom-step/s
100.0% CPU use with 16 MPI tasks x 1 OpenMP threads

MPI task timing breakdown:
Section |  min time  |  avg time  |  max time  |%varavg| %total
---------------------------------------------------------------
Pair    | 0.42117    | 1.9855     | 3.3737     |  57.5 | 14.14
Bond    | 1.8047     | 2.5209     | 3.0874     |  18.7 | 17.95
Neigh   | 0.038935   | 0.039624   | 0.040536   |   0.2 |  0.28
Comm    | 6.8964     | 8.4737     | 10.034     |  33.4 | 60.34
Output  | 0.0061955  | 0.0091634  | 0.011357   |   1.7 |  0.07
Modify  | 0.39815    | 0.62201    | 0.82426    |  19.0 |  4.43
Other   |            | 0.3931     |            |       |  2.80

Nlocal:        30.0625 ave          35 max          24 min
Histogram: 2 1 0 1 1 4 2 1 2 2
Nghost:        2367.44 ave        2380 max        2354 min
Histogram: 3 2 1 0 1 0 3 2 2 2
Neighs:              0 ave           0 max           0 min
Histogram: 16 0 0 0 0 0 0 0 0 0

Total # of neighbors = 0
Ave neighs/atom = 0
Ave special neighs/atom = 15.567568
Neighbor list builds = 96
Dangerous builds = 0
unfix           myat1
next            cpt
jump            SELF loop
variable        zdes equal  -15+0.60*(${cpt}-1)
variable        zdes equal  -15+0.60*(7-1)
variable        zave equal xcm(H2,z)
fix             mytth2 H2 spring tether ${k1} 2.5 2.5 ${zdes} 0
fix             mytth2 H2 spring tether 1 2.5 2.5 ${zdes} 0
fix             mytth2 H2 spring tether 1 2.5 2.5 -11.4 0
run             10000
Generated 0 of 1 mixed pair_coeff terms from geometric mixing rule
Per MPI rank memory allocation (min/avg/max) = 13.35 | 14.27 | 15 Mbytes
   Step          Temp          E_pair         E_mol          TotEng         Press     
    380000   297.00423      379.30584      18482.394      19286.651      81.84346     
    390000   288.27329      366.61575      18531.848      19310.922     -69.674318    
Loop time of 2.82038 on 16 procs for 10000 steps with 481 atoms

Performance: 15.317 ns/day, 1.567 hours/ns, 3545.627 timesteps/s, 1.705 Matom-step/s
100.0% CPU use with 16 MPI tasks x 1 OpenMP threads

MPI task timing breakdown:
Section |  min time  |  avg time  |  max time  |%varavg| %total
---------------------------------------------------------------
Pair    | 0.086348   | 0.40022    | 0.69695    |  25.8 | 14.19
Bond    | 0.3655     | 0.5083     | 0.60696    |   9.6 | 18.02
Neigh   | 0.0067277  | 0.0068616  | 0.0070054  |   0.1 |  0.24
Comm    | 1.3468     | 1.697      | 2.0083     |  15.4 | 60.17
Output  | 0.00093926 | 0.0016434  | 0.0021884  |   1.0 |  0.06
Modify  | 0.080325   | 0.12537    | 0.16805    |   8.7 |  4.45
Other   |            | 0.08097    |            |       |  2.87

Nlocal:        30.0625 ave          37 max          25 min
Histogram: 2 2 2 1 3 2 1 2 0 1
Nghost:        2366.31 ave        2380 max        2354 min
Histogram: 3 3 1 0 0 1 4 1 0 3
Neighs:              0 ave           0 max           0 min
Histogram: 16 0 0 0 0 0 0 0 0 0

Total # of neighbors = 0
Ave neighs/atom = 0
Ave special neighs/atom = 15.567568
Neighbor list builds = 17
Dangerous builds = 0
fix             myat1 all ave/time 100 10 1000 v_zave v_zdes file simulation_data/abpot/${cpt}.dat
fix             myat1 all ave/time 100 10 1000 v_zave v_zdes file simulation_data/abpot/7.dat
run             50000
Generated 0 of 1 mixed pair_coeff terms from geometric mixing rule
Per MPI rank memory allocation (min/avg/max) = 13.35 | 14.27 | 15 Mbytes
   Step          Temp          E_pair         E_mol          TotEng         Press     
    390000   288.27329      366.61575      18531.848      19310.922     -69.674318    
    400000   309.93603      366.62378      18515.582      19325.659     -238.94048    
    410000   282.43484      380.24177      18525.938      19310.285      156.65204    
    420000   297.63263      372.61928      18530.651      19329.119     -50.147567    
    430000   307.36874      356.80031      18560.405      19356.985     -459.28991    
    440000   310.7968       385.40405      18544.303      19374.391      197.89847    
Loop time of 15.5281 on 16 procs for 50000 steps with 481 atoms

Performance: 13.910 ns/day, 1.725 hours/ns, 3219.977 timesteps/s, 1.549 Matom-step/s
100.0% CPU use with 16 MPI tasks x 1 OpenMP threads

MPI task timing breakdown:
Section |  min time  |  avg time  |  max time  |%varavg| %total
---------------------------------------------------------------
Pair    | 0.41852    | 2.0228     | 3.5913     |  59.0 | 13.03
Bond    | 1.6979     | 2.5742     | 2.9919     |  19.8 | 16.58
Neigh   | 0.028979   | 0.029548   | 0.030348   |   0.2 |  0.19
Comm    | 7.9522     | 9.788      | 11.583     |  32.7 | 63.03
Output  | 0.006839   | 0.0097242  | 0.012003   |   1.6 |  0.06
Modify  | 0.44648    | 0.67737    | 0.93316    |  20.8 |  4.36
Other   |            | 0.4265     |            |       |  2.75

Nlocal:        30.0625 ave          39 max          19 min
Histogram: 1 0 1 1 3 2 3 3 0 2
Nghost:        2368.19 ave        2392 max        2348 min
Histogram: 3 1 1 1 3 1 2 2 1 1
Neighs:              0 ave           0 max           0 min
Histogram: 16 0 0 0 0 0 0 0 0 0

Total # of neighbors = 0
Ave neighs/atom = 0
Ave special neighs/atom = 15.567568
Neighbor list builds = 69
Dangerous builds = 0
unfix           myat1
next            cpt
jump            SELF loop
variable        zdes equal  -15+0.60*(${cpt}-1)
variable        zdes equal  -15+0.60*(8-1)
variable        zave equal xcm(H2,z)
fix             mytth2 H2 spring tether ${k1} 2.5 2.5 ${zdes} 0
fix             mytth2 H2 spring tether 1 2.5 2.5 ${zdes} 0
fix             mytth2 H2 spring tether 1 2.5 2.5 -10.8 0
run             10000
Generated 0 of 1 mixed pair_coeff terms from geometric mixing rule
Per MPI rank memory allocation (min/avg/max) = 13.35 | 14.28 | 15 Mbytes
   Step          Temp          E_pair         E_mol          TotEng         Press     
    440000   310.7968       385.40405      18544.303      19374.391      197.89847    
    450000   289.99775      378.93781      18543.707      19337.57      -81.235184    
Loop time of 3.19296 on 16 procs for 10000 steps with 481 atoms

Performance: 13.530 ns/day, 1.774 hours/ns, 3131.891 timesteps/s, 1.506 Matom-step/s
100.0% CPU use with 16 MPI tasks x 1 OpenMP threads

MPI task timing breakdown:
Section |  min time  |  avg time  |  max time  |%varavg| %total
---------------------------------------------------------------
Pair    | 0.087854   | 0.40563    | 0.74204    |  26.8 | 12.70
Bond    | 0.30985    | 0.51599    | 0.61118    |  10.0 | 16.16
Neigh   | 0.0061166  | 0.0062452  | 0.0063802  |   0.1 |  0.20
Comm    | 1.635      | 2.0404     | 2.4441     |  15.0 | 63.90
Output  | 0.0010269  | 0.0018087  | 0.0023712  |   1.0 |  0.06
Modify  | 0.086166   | 0.13681    | 0.20138    |  11.1 |  4.28
Other   |            | 0.08612    |            |       |  2.70

Nlocal:        30.0625 ave          39 max          19 min
Histogram: 1 0 1 1 4 3 1 1 2 2
Nghost:        2369.31 ave        2384 max        2348 min
Histogram: 1 1 1 1 2 2 1 1 4 2
Neighs:              0 ave           0 max           0 min
Histogram: 16 0 0 0 0 0 0 0 0 0

Total # of neighbors = 0
Ave neighs/atom = 0
Ave special neighs/atom = 15.567568
Neighbor list builds = 14
Dangerous builds = 0
fix             myat1 all ave/time 100 10 1000 v_zave v_zdes file simulation_data/abpot/${cpt}.dat
fix             myat1 all ave/time 100 10 1000 v_zave v_zdes file simulation_data/abpot/8.dat
run             50000
Generated 0 of 1 mixed pair_coeff terms from geometric mixing rule
Per MPI rank memory allocation (min/avg/max) = 13.35 | 14.28 | 15 Mbytes
   Step          Temp          E_pair         E_mol          TotEng         Press     
    450000   289.99775      378.93781      18543.707      19337.57      -81.235184    
    460000   298.84064      366.47103      18537.129      19331.178     -351.82369    
    470000   298.41193      374.55414      18554.355      19355.873      81.456946    
    480000   303.40437      372.31717      18531.943      19338.367     -27.686876    
    490000   290.90385      377.58492      18519.988      19313.795      149.11694    
    500000   313.21883      380.15775      18512.185      19340.493      201.32482    
Loop time of 15.0563 on 16 procs for 50000 steps with 481 atoms

Performance: 14.346 ns/day, 1.673 hours/ns, 3320.876 timesteps/s, 1.597 Matom-step/s
100.0% CPU use with 16 MPI tasks x 1 OpenMP threads

MPI task timing breakdown:
Section |  min time  |  avg time  |  max time  |%varavg| %total
---------------------------------------------------------------
Pair    | 0.40921    | 2.005      | 3.4721     |  58.7 | 13.32
Bond    | 1.6457     | 2.5514     | 3.0838     |  19.9 | 16.95
Neigh   | 0.022577   | 0.023053   | 0.023612   |   0.2 |  0.15
Comm    | 7.7463     | 9.3796     | 11.208     |  33.0 | 62.30
Output  | 0.0064081  | 0.0092252  | 0.011413   |   1.6 |  0.06
Modify  | 0.42851    | 0.67502    | 0.93949    |  21.9 |  4.48
Other   |            | 0.413      |            |       |  2.74

Nlocal:        30.0625 ave          38 max          22 min
Histogram: 1 2 1 3 1 3 1 0 2 2
Nghost:        2380.56 ave        2400 max        2362 min
Histogram: 2 1 3 0 0 5 2 1 0 2
Neighs:              0 ave           0 max           0 min
Histogram: 16 0 0 0 0 0 0 0 0 0

Total # of neighbors = 0
Ave neighs/atom = 0
Ave special neighs/atom = 15.567568
Neighbor list builds = 54
Dangerous builds = 0
unfix           myat1
next            cpt
jump            SELF loop
variable        zdes equal  -15+0.60*(${cpt}-1)
variable        zdes equal  -15+0.60*(9-1)
variable        zave equal xcm(H2,z)
fix             mytth2 H2 spring tether ${k1} 2.5 2.5 ${zdes} 0
fix             mytth2 H2 spring tether 1 2.5 2.5 ${zdes} 0
fix             mytth2 H2 spring tether 1 2.5 2.5 -10.2 0
run             10000
Generated 0 of 1 mixed pair_coeff terms from geometric mixing rule
Per MPI rank memory allocation (min/avg/max) = 13.35 | 14.28 | 15 Mbytes
   Step          Temp          E_pair         E_mol          TotEng         Press     
    500000   313.21883      380.15775      18512.185      19340.493      201.32482    
    510000   317.18065      366.90172      18540.002      19360.722     -326.09978    
Loop time of 2.78701 on 16 procs for 10000 steps with 481 atoms

Performance: 15.500 ns/day, 1.548 hours/ns, 3588.072 timesteps/s, 1.726 Matom-step/s
99.9% CPU use with 16 MPI tasks x 1 OpenMP threads

MPI task timing breakdown:
Section |  min time  |  avg time  |  max time  |%varavg| %total
---------------------------------------------------------------
Pair    | 0.085833   | 0.3985     | 0.67132    |  26.6 | 14.30
Bond    | 0.32456    | 0.50669    | 0.62598    |  10.1 | 18.18
Neigh   | 0.0056002  | 0.0057117  | 0.0058192  |   0.1 |  0.20
Comm    | 1.377      | 1.6718     | 2.0413     |  16.4 | 59.99
Output  | 0.00093443 | 0.0015993  | 0.0021145  |   0.9 |  0.06
Modify  | 0.076821   | 0.12353    | 0.18037    |  10.3 |  4.43
Other   |            | 0.07919    |            |       |  2.84

Nlocal:        30.0625 ave          37 max          22 min
Histogram: 1 0 2 2 4 1 1 0 2 3
Nghost:        2360.69 ave        2374 max        2348 min
Histogram: 3 1 0 4 1 1 0 1 3 2
Neighs:              0 ave           0 max           0 min
Histogram: 16 0 0 0 0 0 0 0 0 0

Total # of neighbors = 0
Ave neighs/atom = 0
Ave special neighs/atom = 15.567568
Neighbor list builds = 14
Dangerous builds = 0
fix             myat1 all ave/time 100 10 1000 v_zave v_zdes file simulation_data/abpot/${cpt}.dat
fix             myat1 all ave/time 100 10 1000 v_zave v_zdes file simulation_data/abpot/9.dat
run             50000
Generated 0 of 1 mixed pair_coeff terms from geometric mixing rule
Per MPI rank memory allocation (min/avg/max) = 13.35 | 14.28 | 15 Mbytes
   Step          Temp          E_pair         E_mol          TotEng         Press     
    510000   317.18065      366.90172      18540.002      19360.722     -326.09978    
    520000   308.93967      369.6355       18538.608      19350.271     -84.57282     
    530000   295.97301      373.52126      18536.425      19333.421     -94.364165    
    540000   299.18441      352.86651      18518.759      19299.696     -614.8158     
    550000   296.55258      373.69047      18501.706      19299.7       -24.411045    
    560000   277.21897      378.31659      18533.178      19308.136      5.6451639    
Loop time of 14.2519 on 16 procs for 50000 steps with 481 atoms

Performance: 15.156 ns/day, 1.584 hours/ns, 3508.315 timesteps/s, 1.687 Matom-step/s
100.0% CPU use with 16 MPI tasks x 1 OpenMP threads

MPI task timing breakdown:
Section |  min time  |  avg time  |  max time  |%varavg| %total
---------------------------------------------------------------
Pair    | 0.41239    | 2.0001     | 3.5488     |  58.4 | 14.03
Bond    | 1.7472     | 2.5399     | 3.0657     |  18.7 | 17.82
Neigh   | 0.045488   | 0.046282   | 0.047299   |   0.3 |  0.32
Comm    | 6.8701     | 8.6227     | 10.314     |  33.7 | 60.50
Output  | 0.0062816  | 0.0088582  | 0.01089    |   1.5 |  0.06
Modify  | 0.40477    | 0.63515    | 0.88593    |  21.2 |  4.46
Other   |            | 0.3989     |            |       |  2.80

Nlocal:        30.0625 ave          36 max          25 min
Histogram: 3 1 1 4 1 1 0 2 0 3
Nghost:        2368.56 ave        2383 max        2356 min
Histogram: 4 1 2 1 1 1 1 0 3 2
Neighs:              0 ave           0 max           0 min
Histogram: 16 0 0 0 0 0 0 0 0 0

Total # of neighbors = 0
Ave neighs/atom = 0
Ave special neighs/atom = 15.567568
Neighbor list builds = 111
Dangerous builds = 0
unfix           myat1
next            cpt
jump            SELF loop
variable        zdes equal  -15+0.60*(${cpt}-1)
variable        zdes equal  -15+0.60*(10-1)
variable        zave equal xcm(H2,z)
fix             mytth2 H2 spring tether ${k1} 2.5 2.5 ${zdes} 0
fix             mytth2 H2 spring tether 1 2.5 2.5 ${zdes} 0
fix             mytth2 H2 spring tether 1 2.5 2.5 -9.6 0
run             10000
Generated 0 of 1 mixed pair_coeff terms from geometric mixing rule
Per MPI rank memory allocation (min/avg/max) = 13.35 | 14.29 | 15 Mbytes
   Step          Temp          E_pair         E_mol          TotEng         Press     
    560000   277.21897      378.31659      18533.178      19308.136      5.6451639    
    570000   299.78625      362.19941      18552.228      19343.358     -302.19148    
Loop time of 2.83141 on 16 procs for 10000 steps with 481 atoms

Performance: 15.257 ns/day, 1.573 hours/ns, 3531.803 timesteps/s, 1.699 Matom-step/s
100.0% CPU use with 16 MPI tasks x 1 OpenMP threads

MPI task timing breakdown:
Section |  min time  |  avg time  |  max time  |%varavg| %total
---------------------------------------------------------------
Pair    | 0.078422   | 0.39955    | 0.66063    |  25.1 | 14.11
Bond    | 0.3255     | 0.50871    | 0.64106    |   8.9 | 17.97
Neigh   | 0.0087205  | 0.0088659  | 0.0090556  |   0.1 |  0.31
Comm    | 1.3897     | 1.7059     | 2.0675     |  14.7 | 60.25
Output  | 0.00096854 | 0.001714   | 0.0022513  |   1.0 |  0.06
Modify  | 0.078293   | 0.12492    | 0.18197    |  10.2 |  4.41
Other   |            | 0.08178    |            |       |  2.89

Nlocal:        30.0625 ave          41 max          24 min
Histogram: 4 3 1 0 4 1 0 1 1 1
Nghost:        2365.94 ave        2386 max        2347 min
Histogram: 1 1 1 4 1 4 0 1 2 1
Neighs:              0 ave           0 max           0 min
Histogram: 16 0 0 0 0 0 0 0 0 0

Total # of neighbors = 0
Ave neighs/atom = 0
Ave special neighs/atom = 15.567568
Neighbor list builds = 21
Dangerous builds = 0
fix             myat1 all ave/time 100 10 1000 v_zave v_zdes file simulation_data/abpot/${cpt}.dat
fix             myat1 all ave/time 100 10 1000 v_zave v_zdes file simulation_data/abpot/10.dat
run             50000
Generated 0 of 1 mixed pair_coeff terms from geometric mixing rule
Per MPI rank memory allocation (min/avg/max) = 13.35 | 14.29 | 15 Mbytes
   Step          Temp          E_pair         E_mol          TotEng         Press     
    570000   299.78625      362.19941      18552.228      19343.358     -302.19148    
    580000   307.20064      375.0052       18523.1        19337.644      58.618595    
    590000   302.63172      370.67707      18484.75       19288.429      103.36004    
    600000   292.2414       368.23726      18511.099      19297.472     -51.202009    
    610000   316.12483      368.61851      18524.653      19345.579     -28.162108    
    620000   316.26182      379.97597      18518.594      19351.074      50.615169    
Loop time of 15.6091 on 16 procs for 50000 steps with 481 atoms

Performance: 13.838 ns/day, 1.734 hours/ns, 3203.267 timesteps/s, 1.541 Matom-step/s
100.0% CPU use with 16 MPI tasks x 1 OpenMP threads

MPI task timing breakdown:
Section |  min time  |  avg time  |  max time  |%varavg| %total
---------------------------------------------------------------
Pair    | 0.41262    | 2.0368     | 3.5875     |  57.6 | 13.05
Bond    | 1.6414     | 2.5901     | 3.1362     |  20.7 | 16.59
Neigh   | 0.030388   | 0.031039   | 0.031831   |   0.2 |  0.20
Comm    | 8.121      | 9.8147     | 11.705     |  32.4 | 62.88
Output  | 0.0072178  | 0.01029    | 0.012629   |   1.7 |  0.07
Modify  | 0.45962    | 0.69759    | 1.004      |  23.5 |  4.47
Other   |            | 0.4285     |            |       |  2.75

Nlocal:        30.0625 ave          36 max          22 min
Histogram: 1 0 1 2 3 2 1 1 3 2
Nghost:        2370.81 ave        2385 max        2356 min
Histogram: 1 2 3 0 0 3 2 3 0 2
Neighs:              0 ave           0 max           0 min
Histogram: 16 0 0 0 0 0 0 0 0 0

Total # of neighbors = 0
Ave neighs/atom = 0
Ave special neighs/atom = 15.567568
Neighbor list builds = 71
Dangerous builds = 0
unfix           myat1
next            cpt
jump            SELF loop
variable        zdes equal  -15+0.60*(${cpt}-1)
variable        zdes equal  -15+0.60*(11-1)
variable        zave equal xcm(H2,z)
fix             mytth2 H2 spring tether ${k1} 2.5 2.5 ${zdes} 0
fix             mytth2 H2 spring tether 1 2.5 2.5 ${zdes} 0
fix             mytth2 H2 spring tether 1 2.5 2.5 -9 0
run             10000
Generated 0 of 1 mixed pair_coeff terms from geometric mixing rule
Per MPI rank memory allocation (min/avg/max) = 13.35 | 14.29 | 15 Mbytes
   Step          Temp          E_pair         E_mol          TotEng         Press     
    620000   316.26182      379.97597      18518.594      19351.074      50.615169    
    630000   299.78507      368.75015      18500.988      19298.668     -288.98731    
Loop time of 3.32732 on 16 procs for 10000 steps with 481 atoms

Performance: 12.983 ns/day, 1.849 hours/ns, 3005.421 timesteps/s, 1.446 Matom-step/s
100.0% CPU use with 16 MPI tasks x 1 OpenMP threads

MPI task timing breakdown:
Section |  min time  |  avg time  |  max time  |%varavg| %total
---------------------------------------------------------------
Pair    | 0.073911   | 0.4215     | 0.72429    |  23.9 | 12.67
Bond    | 0.31596    | 0.53752    | 0.76082    |  13.4 | 16.15
Neigh   | 0.0046408  | 0.0048102  | 0.0049769  |   0.1 |  0.14
Comm    | 1.7868     | 2.118      | 2.5311     |  13.9 | 63.65
Output  | 0.0012926  | 0.0020409  | 0.0026072  |   0.9 |  0.06
Modify  | 0.1057     | 0.1565     | 0.19595    |   7.6 |  4.70
Other   |            | 0.08697    |            |       |  2.61

Nlocal:        30.0625 ave          36 max          22 min
Histogram: 2 1 1 0 0 2 2 5 1 2
Nghost:        2361.44 ave        2371 max        2341 min
Histogram: 1 1 0 1 1 2 1 1 1 7
Neighs:              0 ave           0 max           0 min
Histogram: 16 0 0 0 0 0 0 0 0 0

Total # of neighbors = 0
Ave neighs/atom = 0
Ave special neighs/atom = 15.567568
Neighbor list builds = 9
Dangerous builds = 0
fix             myat1 all ave/time 100 10 1000 v_zave v_zdes file simulation_data/abpot/${cpt}.dat
fix             myat1 all ave/time 100 10 1000 v_zave v_zdes file simulation_data/abpot/11.dat
run             50000
Generated 0 of 1 mixed pair_coeff terms from geometric mixing rule
Per MPI rank memory allocation (min/avg/max) = 13.35 | 14.3 | 15 Mbytes
   Step          Temp          E_pair         E_mol          TotEng         Press     
    630000   299.78507      368.75015      18500.988      19298.668     -288.98731    
    640000   294.70491      364.74762      18520.054      19306.462     -113.11889    
    650000   295.42647      373.10808      18528.823      19324.624     -84.43632     
    660000   298.48155      380.98642      18501.728      19309.779      89.528544    
    670000   285.16061      366.49519      18506.99       19281.49      -223.62665    
    680000   286.12179      376.51763      18514.086      19299.983      29.117499    
Loop time of 14.982 on 16 procs for 50000 steps with 481 atoms

Performance: 14.417 ns/day, 1.665 hours/ns, 3337.342 timesteps/s, 1.605 Matom-step/s
100.0% CPU use with 16 MPI tasks x 1 OpenMP threads

MPI task timing breakdown:
Section |  min time  |  avg time  |  max time  |%varavg| %total
---------------------------------------------------------------
Pair    | 0.4122     | 2.0048     | 3.6441     |  57.8 | 13.38
Bond    | 1.5409     | 2.5461     | 3.0071     |  21.4 | 16.99
Neigh   | 0.02408    | 0.024525   | 0.025076   |   0.2 |  0.16
Comm    | 7.3986     | 9.2849     | 11.238     |  32.9 | 61.97
Output  | 0.0066717  | 0.0093427  | 0.011519   |   1.6 |  0.06
Modify  | 0.43246    | 0.70045    | 0.97671    |  23.2 |  4.68
Other   |            | 0.4119     |            |       |  2.75

Nlocal:        30.0625 ave          40 max          20 min
Histogram: 1 1 2 1 0 5 3 1 0 2
Nghost:        2365.75 ave        2384 max        2347 min
Histogram: 1 2 3 0 1 3 2 1 1 2
Neighs:              0 ave           0 max           0 min
Histogram: 16 0 0 0 0 0 0 0 0 0

Total # of neighbors = 0
Ave neighs/atom = 0
Ave special neighs/atom = 15.567568
Neighbor list builds = 59
Dangerous builds = 0
unfix           myat1
next            cpt
jump            SELF loop
variable        zdes equal  -15+0.60*(${cpt}-1)
variable        zdes equal  -15+0.60*(12-1)
variable        zave equal xcm(H2,z)
fix             mytth2 H2 spring tether ${k1} 2.5 2.5 ${zdes} 0
fix             mytth2 H2 spring tether 1 2.5 2.5 ${zdes} 0
fix             mytth2 H2 spring tether 1 2.5 2.5 -8.4 0
run             10000
Generated 0 of 1 mixed pair_coeff terms from geometric mixing rule
Per MPI rank memory allocation (min/avg/max) = 13.35 | 14.3 | 15 Mbytes
   Step          Temp          E_pair         E_mol          TotEng         Press     
    680000   286.12179      376.51763      18514.086      19299.983      29.117499    
    690000   304.12133      376.89116      18518.982      19331.007      89.202358    
Loop time of 2.85155 on 16 procs for 10000 steps with 481 atoms

Performance: 15.150 ns/day, 1.584 hours/ns, 3506.862 timesteps/s, 1.687 Matom-step/s
100.0% CPU use with 16 MPI tasks x 1 OpenMP threads

MPI task timing breakdown:
Section |  min time  |  avg time  |  max time  |%varavg| %total
---------------------------------------------------------------
Pair    | 0.08384    | 0.39675    | 0.71467    |  26.1 | 13.91
Bond    | 0.30819    | 0.50361    | 0.61953    |   9.6 | 17.66
Neigh   | 0.0061598  | 0.006282   | 0.0064339  |   0.1 |  0.22
Comm    | 1.3873     | 1.7411     | 2.1315     |  15.2 | 61.06
Output  | 0.00098668 | 0.0016651  | 0.0023345  |   1.0 |  0.06
Modify  | 0.078362   | 0.12279    | 0.17183    |   9.3 |  4.31
Other   |            | 0.07938    |            |       |  2.78

Nlocal:        30.0625 ave          37 max          24 min
Histogram: 2 1 2 1 2 2 3 1 1 1
Nghost:        2365.19 ave        2386 max        2344 min
Histogram: 1 1 2 2 2 3 1 1 0 3
Neighs:              0 ave           0 max           0 min
Histogram: 16 0 0 0 0 0 0 0 0 0

Total # of neighbors = 0
Ave neighs/atom = 0
Ave special neighs/atom = 15.567568
Neighbor list builds = 15
Dangerous builds = 0
fix             myat1 all ave/time 100 10 1000 v_zave v_zdes file simulation_data/abpot/${cpt}.dat
fix             myat1 all ave/time 100 10 1000 v_zave v_zdes file simulation_data/abpot/12.dat
run             50000
Generated 0 of 1 mixed pair_coeff terms from geometric mixing rule
Per MPI rank memory allocation (min/avg/max) = 13.35 | 14.3 | 15 Mbytes
   Step          Temp          E_pair         E_mol          TotEng         Press     
    690000   304.12133      376.89116      18518.982      19331.007      89.202358    
    700000   294.61011      373.5784       18522.041      19317.145     -55.273908    
    710000   292.87175      366.69063      18516.238      19301.966     -130.39402    
    720000   303.77027      371.2808       18491.778      19297.69       82.902236    
    730000   299.998        367.18492      18520.049      19316.468     -171.0285     
    740000   304.38634      373.11589      18515.876      19324.504     -77.294005    
Loop time of 14.3996 on 16 procs for 50000 steps with 481 atoms

Performance: 15.000 ns/day, 1.600 hours/ns, 3472.311 timesteps/s, 1.670 Matom-step/s
100.0% CPU use with 16 MPI tasks x 1 OpenMP threads

MPI task timing breakdown:
Section |  min time  |  avg time  |  max time  |%varavg| %total
---------------------------------------------------------------
Pair    | 0.40239    | 2.0015     | 3.5176     |  59.0 | 13.90
Bond    | 1.6161     | 2.5368     | 3.0761     |  20.1 | 17.62
Neigh   | 0.023501   | 0.024024   | 0.024593   |   0.2 |  0.17
Comm    | 7.1141     | 8.7963     | 10.697     |  34.8 | 61.09
Output  | 0.0062773  | 0.0088935  | 0.010972   |   1.6 |  0.06
Modify  | 0.40683    | 0.62926    | 0.91349    |  22.4 |  4.37
Other   |            | 0.403      |            |       |  2.80

Nlocal:        30.0625 ave          41 max          19 min
Histogram: 2 1 2 1 1 3 1 1 2 2
Nghost:        2359.56 ave        2380 max        2336 min
Histogram: 1 1 0 3 3 2 1 2 2 1
Neighs:              0 ave           0 max           0 min
Histogram: 16 0 0 0 0 0 0 0 0 0

Total # of neighbors = 0
Ave neighs/atom = 0
Ave special neighs/atom = 15.567568
Neighbor list builds = 56
Dangerous builds = 0
unfix           myat1
next            cpt
jump            SELF loop
variable        zdes equal  -15+0.60*(${cpt}-1)
variable        zdes equal  -15+0.60*(13-1)
variable        zave equal xcm(H2,z)
fix             mytth2 H2 spring tether ${k1} 2.5 2.5 ${zdes} 0
fix             mytth2 H2 spring tether 1 2.5 2.5 ${zdes} 0
fix             mytth2 H2 spring tether 1 2.5 2.5 -7.8 0
run             10000
Generated 0 of 1 mixed pair_coeff terms from geometric mixing rule
Per MPI rank memory allocation (min/avg/max) = 13.35 | 14.3 | 15 Mbytes
   Step          Temp          E_pair         E_mol          TotEng         Press     
    740000   304.38634      373.11589      18515.876      19324.504     -77.294005    
    750000   304.87813      380.91869      18532.69       19349.824      46.583666    
Loop time of 2.95504 on 16 procs for 10000 steps with 481 atoms

Performance: 14.619 ns/day, 1.642 hours/ns, 3384.045 timesteps/s, 1.628 Matom-step/s
100.0% CPU use with 16 MPI tasks x 1 OpenMP threads

MPI task timing breakdown:
Section |  min time  |  avg time  |  max time  |%varavg| %total
---------------------------------------------------------------
Pair    | 0.077576   | 0.40091    | 0.6668     |  27.0 | 13.57
Bond    | 0.28457    | 0.50849    | 0.65922    |  11.5 | 17.21
Neigh   | 0.0054721  | 0.005593   | 0.0057106  |   0.1 |  0.19
Comm    | 1.456      | 1.8307     | 2.255      |  16.9 | 61.95
Output  | 0.0010071  | 0.0017465  | 0.0022855  |   1.0 |  0.06
Modify  | 0.084723   | 0.12565    | 0.17045    |   8.4 |  4.25
Other   |            | 0.08197    |            |       |  2.77

Nlocal:        30.0625 ave          39 max          20 min
Histogram: 1 1 2 1 2 1 4 2 1 1
Nghost:        2365.94 ave        2384 max        2343 min
Histogram: 1 1 0 1 1 5 3 1 2 1
Neighs:              0 ave           0 max           0 min
Histogram: 16 0 0 0 0 0 0 0 0 0

Total # of neighbors = 0
Ave neighs/atom = 0
Ave special neighs/atom = 15.567568
Neighbor list builds = 13
Dangerous builds = 0
fix             myat1 all ave/time 100 10 1000 v_zave v_zdes file simulation_data/abpot/${cpt}.dat
fix             myat1 all ave/time 100 10 1000 v_zave v_zdes file simulation_data/abpot/13.dat
run             50000
Generated 0 of 1 mixed pair_coeff terms from geometric mixing rule
Per MPI rank memory allocation (min/avg/max) = 13.35 | 14.3 | 15 Mbytes
   Step          Temp          E_pair         E_mol          TotEng         Press     
    750000   304.87813      380.91869      18532.69       19349.824      46.583666    
    760000   309.27944      367.961        18523.833      19334.308     -167.63719    
    770000   307.36558      368.58736      18513.972      19322.335     -146.28472    
    780000   286.03968      374.24544      18505.587      19289.095      23.978642    
    790000   292.67936      366.18361      18483.645      19268.591     -66.597213    
    800000   309.64903      369.94483      18524.3        19337.287     -29.567301    
Loop time of 15.452 on 16 procs for 50000 steps with 481 atoms

Performance: 13.979 ns/day, 1.717 hours/ns, 3235.818 timesteps/s, 1.556 Matom-step/s
100.0% CPU use with 16 MPI tasks x 1 OpenMP threads

MPI task timing breakdown:
Section |  min time  |  avg time  |  max time  |%varavg| %total
---------------------------------------------------------------
Pair    | 0.40368    | 2.0206     | 3.5873     |  59.3 | 13.08
Bond    | 1.4844     | 2.5689     | 3.0763     |  23.1 | 16.63
Neigh   | 0.022086   | 0.022581   | 0.023248   |   0.2 |  0.15
Comm    | 7.8939     | 9.6877     | 11.746     |  34.2 | 62.70
Output  | 0.0068468  | 0.0098325  | 0.012174   |   1.7 |  0.06
Modify  | 0.4481     | 0.7145     | 0.97196    |  21.8 |  4.62
Other   |            | 0.4279     |            |       |  2.77

Nlocal:        30.0625 ave          35 max          23 min
Histogram: 1 1 1 1 1 2 4 1 1 3
Nghost:        2364.44 ave        2381 max        2348 min
Histogram: 1 0 4 1 3 2 1 1 2 1
Neighs:              0 ave           0 max           0 min
Histogram: 16 0 0 0 0 0 0 0 0 0

Total # of neighbors = 0
Ave neighs/atom = 0
Ave special neighs/atom = 15.567568
Neighbor list builds = 53
Dangerous builds = 0
unfix           myat1
next            cpt
jump            SELF loop
variable        zdes equal  -15+0.60*(${cpt}-1)
variable        zdes equal  -15+0.60*(14-1)
variable        zave equal xcm(H2,z)
fix             mytth2 H2 spring tether ${k1} 2.5 2.5 ${zdes} 0
fix             mytth2 H2 spring tether 1 2.5 2.5 ${zdes} 0
fix             mytth2 H2 spring tether 1 2.5 2.5 -7.2 0
run             10000
Generated 0 of 1 mixed pair_coeff terms from geometric mixing rule
Per MPI rank memory allocation (min/avg/max) = 13.35 | 14.3 | 15 Mbytes
   Step          Temp          E_pair         E_mol          TotEng         Press     
    800000   309.64903      369.94483      18524.3        19337.287     -29.567301    
    810000   306.1551       363.06713      18541.31       19342.421     -197.55224    
Loop time of 3.16827 on 16 procs for 10000 steps with 481 atoms

Performance: 13.635 ns/day, 1.760 hours/ns, 3156.298 timesteps/s, 1.518 Matom-step/s
99.9% CPU use with 16 MPI tasks x 1 OpenMP threads

MPI task timing breakdown:
Section |  min time  |  avg time  |  max time  |%varavg| %total
---------------------------------------------------------------
Pair    | 0.07444    | 0.40487    | 0.68944    |  26.6 | 12.78
Bond    | 0.25689    | 0.5138     | 0.63508    |  12.6 | 16.22
Neigh   | 0.0050025  | 0.0051648  | 0.0052864  |   0.1 |  0.16
Comm    | 1.7145     | 2.0133     | 2.4805     |  15.9 | 63.55
Output  | 0.0010261  | 0.0017635  | 0.0023689  |   1.0 |  0.06
Modify  | 0.088704   | 0.14434    | 0.20863    |  11.4 |  4.56
Other   |            | 0.08498    |            |       |  2.68

Nlocal:        30.0625 ave          40 max          18 min
Histogram: 1 0 1 0 4 2 6 1 0 1
Nghost:        2364.06 ave        2381 max        2350 min
Histogram: 2 2 4 0 1 1 1 3 0 2
Neighs:              0 ave           0 max           0 min
Histogram: 16 0 0 0 0 0 0 0 0 0

Total # of neighbors = 0
Ave neighs/atom = 0
Ave special neighs/atom = 15.567568
Neighbor list builds = 12
Dangerous builds = 0
fix             myat1 all ave/time 100 10 1000 v_zave v_zdes file simulation_data/abpot/${cpt}.dat
fix             myat1 all ave/time 100 10 1000 v_zave v_zdes file simulation_data/abpot/14.dat
run             50000
Generated 0 of 1 mixed pair_coeff terms from geometric mixing rule
Per MPI rank memory allocation (min/avg/max) = 13.35 | 14.3 | 15 Mbytes
   Step          Temp          E_pair         E_mol          TotEng         Press     
    810000   306.1551       363.06713      18541.31       19342.421     -197.55224    
    820000   279.98956      374.005        18488.785      19263.396      110.0146     
    830000   293.48893      373.37389      18530.416      19323.711      74.110632    
    840000   296.13765      366.48115      18536.165      19326.356     -174.59694    
    850000   307.89849      374.59242      18531.619      19346.75      -37.003397    
    860000   314.83005      391.07469      18546.183      19387.713      257.81151    
Loop time of 15.0856 on 16 procs for 50000 steps with 481 atoms

Performance: 14.318 ns/day, 1.676 hours/ns, 3314.409 timesteps/s, 1.594 Matom-step/s
100.0% CPU use with 16 MPI tasks x 1 OpenMP threads

MPI task timing breakdown:
Section |  min time  |  avg time  |  max time  |%varavg| %total
---------------------------------------------------------------
Pair    | 0.39297    | 2.0024     | 3.507      |  59.6 | 13.27
Bond    | 1.4186     | 2.5406     | 3.1351     |  24.9 | 16.84
Neigh   | 0.03326    | 0.033955   | 0.034654   |   0.2 |  0.23
Comm    | 7.7163     | 9.4014     | 11.499     |  35.9 | 62.32
Output  | 0.0062851  | 0.00921    | 0.011439   |   1.7 |  0.06
Modify  | 0.42987    | 0.69066    | 0.94703    |  22.3 |  4.58
Other   |            | 0.4074     |            |       |  2.70

Nlocal:        30.0625 ave          40 max          20 min
Histogram: 1 1 1 2 1 4 2 2 0 2
Nghost:        2363.69 ave        2381 max        2347 min
Histogram: 1 3 1 1 3 0 2 2 1 2
Neighs:              0 ave           0 max           0 min
Histogram: 16 0 0 0 0 0 0 0 0 0

Total # of neighbors = 0
Ave neighs/atom = 0
Ave special neighs/atom = 15.567568
Neighbor list builds = 81
Dangerous builds = 0
unfix           myat1
next            cpt
jump            SELF loop
variable        zdes equal  -15+0.60*(${cpt}-1)
variable        zdes equal  -15+0.60*(15-1)
variable        zave equal xcm(H2,z)
fix             mytth2 H2 spring tether ${k1} 2.5 2.5 ${zdes} 0
fix             mytth2 H2 spring tether 1 2.5 2.5 ${zdes} 0
fix             mytth2 H2 spring tether 1 2.5 2.5 -6.6 0
run             10000
Generated 0 of 1 mixed pair_coeff terms from geometric mixing rule
Per MPI rank memory allocation (min/avg/max) = 13.35 | 14.3 | 15 Mbytes
   Step          Temp          E_pair         E_mol          TotEng         Press     
    860000   314.83005      391.07469      18546.183      19387.713      257.81151    
    870000   292.41819      371.06779      18526.372      19315.829     -130.32505    
Loop time of 2.96383 on 16 procs for 10000 steps with 481 atoms

Performance: 14.576 ns/day, 1.647 hours/ns, 3374.009 timesteps/s, 1.623 Matom-step/s
100.0% CPU use with 16 MPI tasks x 1 OpenMP threads

MPI task timing breakdown:
Section |  min time  |  avg time  |  max time  |%varavg| %total
---------------------------------------------------------------
Pair    | 0.086422   | 0.39987    | 0.68402    |  27.2 | 13.49
Bond    | 0.2927     | 0.50562    | 0.62124    |  11.2 | 17.06
Neigh   | 0.0055666  | 0.0056704  | 0.0057643  |   0.1 |  0.19
Comm    | 1.4648     | 1.848      | 2.2645     |  16.6 | 62.35
Output  | 0.00096462 | 0.0016052  | 0.0021344  |   0.9 |  0.05
Modify  | 0.07774    | 0.12391    | 0.17679    |   9.8 |  4.18
Other   |            | 0.07919    |            |       |  2.67

Nlocal:        30.0625 ave          35 max          26 min
Histogram: 1 3 2 0 2 2 4 1 0 1
Nghost:        2372.31 ave        2384 max        2358 min
Histogram: 2 0 2 4 0 1 0 0 3 4
Neighs:              0 ave           0 max           0 min
Histogram: 16 0 0 0 0 0 0 0 0 0

Total # of neighbors = 0
Ave neighs/atom = 0
Ave special neighs/atom = 15.567568
Neighbor list builds = 13
Dangerous builds = 0
fix             myat1 all ave/time 100 10 1000 v_zave v_zdes file simulation_data/abpot/${cpt}.dat
fix             myat1 all ave/time 100 10 1000 v_zave v_zdes file simulation_data/abpot/15.dat
run             50000
Generated 0 of 1 mixed pair_coeff terms from geometric mixing rule
Per MPI rank memory allocation (min/avg/max) = 13.35 | 14.3 | 15 Mbytes
   Step          Temp          E_pair         E_mol          TotEng         Press     
    870000   292.41819      371.06779      18526.372      19315.829     -130.32505    
    880000   311.9769       365.32464      18507.813      19319.511     -201.4902     
    890000   291.68979      373.95474      18518.566      19309.867     -10.993027    
    900000   289.53147      370.77166      18547.128      19332.158     -50.370757    
    910000   294.83934      370.46075      18506.95       19299.263     -43.444846    
    920000   289.54708      373.56868      18494.83       19282.68      -240.61362    
Loop time of 14.5045 on 16 procs for 50000 steps with 481 atoms

Performance: 14.892 ns/day, 1.612 hours/ns, 3447.194 timesteps/s, 1.658 Matom-step/s
100.0% CPU use with 16 MPI tasks x 1 OpenMP threads

MPI task timing breakdown:
Section |  min time  |  avg time  |  max time  |%varavg| %total
---------------------------------------------------------------
Pair    | 0.4106     | 2.0058     | 3.4303     |  58.9 | 13.83
Bond    | 1.4028     | 2.5421     | 3.1406     |  24.9 | 17.53
Neigh   | 0.035158   | 0.035858   | 0.036554   |   0.2 |  0.25
Comm    | 7.2938     | 8.867      | 10.998     |  36.6 | 61.13
Output  | 0.0064155  | 0.0092461  | 0.011392   |   1.6 |  0.06
Modify  | 0.40767    | 0.63823    | 0.89408    |  21.3 |  4.40
Other   |            | 0.4064     |            |       |  2.80

Nlocal:        30.0625 ave          39 max          22 min
Histogram: 1 1 2 2 2 3 2 2 0 1
Nghost:        2354.31 ave        2369 max        2339 min
Histogram: 1 2 3 1 1 2 0 2 1 3
Neighs:              0 ave           0 max           0 min
Histogram: 16 0 0 0 0 0 0 0 0 0

Total # of neighbors = 0
Ave neighs/atom = 0
Ave special neighs/atom = 15.567568
Neighbor list builds = 84
Dangerous builds = 0
unfix           myat1
next            cpt
jump            SELF loop
variable        zdes equal  -15+0.60*(${cpt}-1)
variable        zdes equal  -15+0.60*(16-1)
variable        zave equal xcm(H2,z)
fix             mytth2 H2 spring tether ${k1} 2.5 2.5 ${zdes} 0
fix             mytth2 H2 spring tether 1 2.5 2.5 ${zdes} 0
fix             mytth2 H2 spring tether 1 2.5 2.5 -6 0
run             10000
Generated 0 of 1 mixed pair_coeff terms from geometric mixing rule
Per MPI rank memory allocation (min/avg/max) = 13.35 | 14.31 | 15 Mbytes
   Step          Temp          E_pair         E_mol          TotEng         Press     
    920000   289.54708      373.56868      18494.83       19282.68      -240.61362    
    930000   309.99168      368.47548      18481.158      19293.167     -231.0729     
Loop time of 3.02943 on 16 procs for 10000 steps with 481 atoms

Performance: 14.260 ns/day, 1.683 hours/ns, 3300.956 timesteps/s, 1.588 Matom-step/s
100.0% CPU use with 16 MPI tasks x 1 OpenMP threads

MPI task timing breakdown:
Section |  min time  |  avg time  |  max time  |%varavg| %total
---------------------------------------------------------------
Pair    | 0.08888    | 0.4058     | 0.72853    |  26.6 | 13.40
Bond    | 0.27439    | 0.51406    | 0.61436    |  11.3 | 16.97
Neigh   | 0.0068247  | 0.0069912  | 0.0071699  |   0.1 |  0.23
Comm    | 1.5155     | 1.8861     | 2.3284     |  16.1 | 62.26
Output  | 0.0010519  | 0.0018     | 0.0023567  |   1.0 |  0.06
Modify  | 0.082217   | 0.13038    | 0.18963    |  10.4 |  4.30
Other   |            | 0.08427    |            |       |  2.78

Nlocal:        30.0625 ave          44 max          19 min
Histogram: 1 2 2 2 3 1 3 1 0 1
Nghost:        2356.94 ave        2380 max        2338 min
Histogram: 1 3 2 3 0 2 1 2 1 1
Neighs:              0 ave           0 max           0 min
Histogram: 16 0 0 0 0 0 0 0 0 0

Total # of neighbors = 0
Ave neighs/atom = 0
Ave special neighs/atom = 15.567568
Neighbor list builds = 16
Dangerous builds = 0
fix             myat1 all ave/time 100 10 1000 v_zave v_zdes file simulation_data/abpot/${cpt}.dat
fix             myat1 all ave/time 100 10 1000 v_zave v_zdes file simulation_data/abpot/16.dat
run             50000
Generated 0 of 1 mixed pair_coeff terms from geometric mixing rule
Per MPI rank memory allocation (min/avg/max) = 13.35 | 14.31 | 15 Mbytes
   Step          Temp          E_pair         E_mol          TotEng         Press     
    930000   309.99168      368.47548      18481.158      19293.167     -231.0729     
    940000   302.98665      372.10517      18496.731      19302.346     -64.22509     
    950000   296.70967      387.63587      18541.952      19354.117      152.12136    
    960000   310.73092      377.7201       18515.226      19337.536      26.424832    
    970000   300.9733       372.17507      18514.04       19316.844     -27.369814    
    980000   294.79253      369.69701      18533.133      19324.616     -158.95189    
Loop time of 15.3997 on 16 procs for 50000 steps with 481 atoms

Performance: 14.026 ns/day, 1.711 hours/ns, 3246.826 timesteps/s, 1.562 Matom-step/s
100.0% CPU use with 16 MPI tasks x 1 OpenMP threads

MPI task timing breakdown:
Section |  min time  |  avg time  |  max time  |%varavg| %total
---------------------------------------------------------------
Pair    | 0.41154    | 1.9648     | 3.412      |  59.4 | 12.76
Bond    | 1.2874     | 2.4934     | 3.0282     |  25.6 | 16.19
Neigh   | 0.035482   | 0.036238   | 0.037064   |   0.2 |  0.24
Comm    | 8.1582     | 9.7834     | 11.984     |  35.1 | 63.53
Output  | 0.0067764  | 0.0095853  | 0.011811   |   1.6 |  0.06
Modify  | 0.44621    | 0.69301    | 0.97693    |  22.4 |  4.50
Other   |            | 0.4192     |            |       |  2.72

Nlocal:        30.0625 ave          38 max          24 min
Histogram: 2 1 2 1 3 4 0 2 0 1
Nghost:        2355.81 ave        2369 max        2341 min
Histogram: 1 2 2 1 2 1 1 3 0 3
Neighs:              0 ave           0 max           0 min
Histogram: 16 0 0 0 0 0 0 0 0 0

Total # of neighbors = 0
Ave neighs/atom = 0
Ave special neighs/atom = 15.567568
Neighbor list builds = 86
Dangerous builds = 0
unfix           myat1
next            cpt
jump            SELF loop
variable        zdes equal  -15+0.60*(${cpt}-1)
variable        zdes equal  -15+0.60*(17-1)
variable        zave equal xcm(H2,z)
fix             mytth2 H2 spring tether ${k1} 2.5 2.5 ${zdes} 0
fix             mytth2 H2 spring tether 1 2.5 2.5 ${zdes} 0
fix             mytth2 H2 spring tether 1 2.5 2.5 -5.4 0
run             10000
Generated 0 of 1 mixed pair_coeff terms from geometric mixing rule
Per MPI rank memory allocation (min/avg/max) = 13.35 | 14.31 | 15 Mbytes
   Step          Temp          E_pair         E_mol          TotEng         Press     
    980000   294.79253      369.69701      18533.133      19324.616     -158.95189    
    990000   296.23117      370.6751       18532.234      19326.754     -141.63251    
Loop time of 2.81081 on 16 procs for 10000 steps with 481 atoms

Performance: 15.369 ns/day, 1.562 hours/ns, 3557.694 timesteps/s, 1.711 Matom-step/s
100.0% CPU use with 16 MPI tasks x 1 OpenMP threads

MPI task timing breakdown:
Section |  min time  |  avg time  |  max time  |%varavg| %total
---------------------------------------------------------------
Pair    | 0.072368   | 0.35573    | 0.61061    |  25.9 | 12.66
Bond    | 0.20575    | 0.44966    | 0.56168    |  13.0 | 16.00
Neigh   | 0.0058187  | 0.0060143  | 0.0061662  |   0.1 |  0.21
Comm    | 1.4618     | 1.7845     | 2.2047     |  15.7 | 63.49
Output  | 0.00093526 | 0.0016055  | 0.0021187  |   0.9 |  0.06
Modify  | 0.080052   | 0.13714    | 0.18677    |  10.1 |  4.88
Other   |            | 0.07611    |            |       |  2.71

Nlocal:        30.0625 ave          40 max          24 min
Histogram: 2 4 0 3 2 2 1 0 1 1
Nghost:        2355.44 ave        2372 max        2339 min
Histogram: 1 1 3 2 0 3 2 1 1 2
Neighs:              0 ave           0 max           0 min
[...]
100.0% CPU use with 16 MPI tasks x 1 OpenMP threads

MPI task timing breakdown:
Section |  min time  |  avg time  |  max time  |%varavg| %total
---------------------------------------------------------------
Pair    | 0.065211   | 0.31937    | 0.54396    |  24.5 | 13.27
Bond    | 0.23483    | 0.40383    | 0.50967    |   9.8 | 16.78
Neigh   | 0.0053783  | 0.0055031  | 0.0056102  |   0.1 |  0.23
Comm    | 1.2276     | 1.4982     | 1.8253     |  14.8 | 62.27
Output  | 0.00074831 | 0.0011938  | 0.0016089  |   0.8 |  0.05
Modify  | 0.069039   | 0.1105     | 0.1557     |   9.3 |  4.59
Other   |            | 0.06729    |            |       |  2.80

Nlocal:        30.0625 ave          39 max          18 min
Histogram: 1 1 1 0 3 3 2 2 0 3
Nghost:        2356.56 ave        2378 max        2340 min
Histogram: 3 1 2 0 2 4 2 0 0 2
Neighs:              0 ave           0 max           0 min
Histogram: 16 0 0 0 0 0 0 0 0 0

Total # of neighbors = 0
Ave neighs/atom = 0
Ave special neighs/atom = 15.567568
Neighbor list builds = 16
Dangerous builds = 0
fix             myat1 all ave/time 100 10 1000 v_zave v_zdes file simulation_data/abpot/${cpt}.dat
fix             myat1 all ave/time 100 10 1000 v_zave v_zdes file simulation_data/abpot/47.dat
run             50000
Generated 0 of 1 mixed pair_coeff terms from geometric mixing rule
Per MPI rank memory allocation (min/avg/max) = 13.36 | 14.4 | 15 Mbytes
   Step          Temp          E_pair         E_mol          TotEng         Press     
   2790000   305.28178      365.05247      18528.267      19330.114     -208.64527    
   2800000   313.29791      377.15448      18518.635      19344.053      48.222772    
   2810000   285.55875      372.2998       18532.518      19313.392     -103.6471     
   2820000   297.66096      369.81933      18512.095      19307.805     -127.62068    
   2830000   318.0888       375.73349      18516.118      19346.97       56.371757    
   2840000   295.21326      371.35357      18549.161      19342.902     -66.962629    
Loop time of 13.3687 on 16 procs for 50000 steps with 481 atoms

Performance: 16.157 ns/day, 1.485 hours/ns, 3740.083 timesteps/s, 1.799 Matom-step/s
100.0% CPU use with 16 MPI tasks x 1 OpenMP threads

MPI task timing breakdown:
Section |  min time  |  avg time  |  max time  |%varavg| %total
---------------------------------------------------------------
Pair    | 0.35732    | 1.8236     | 3.0101     |  56.9 | 13.64
Bond    | 1.4303     | 2.305      | 2.8354     |  21.0 | 17.24
Neigh   | 0.026459   | 0.026958   | 0.02748    |   0.2 |  0.20
Comm    | 6.8683     | 8.2498     | 9.9821     |  33.4 | 61.71
Output  | 0.0053231  | 0.0076487  | 0.009498   |   1.5 |  0.06
Modify  | 0.38396    | 0.58496    | 0.79784    |  19.2 |  4.38
Other   |            | 0.3708     |            |       |  2.77

Nlocal:        30.0625 ave          40 max          19 min
Histogram: 1 0 1 2 3 5 1 0 2 1
Nghost:        2371.19 ave        2400 max        2357 min
Histogram: 4 3 1 0 4 3 0 0 0 1
Neighs:              0 ave           0 max           0 min
Histogram: 16 0 0 0 0 0 0 0 0 0

Total # of neighbors = 0
Ave neighs/atom = 0
Ave special neighs/atom = 15.567568
Neighbor list builds = 68
Dangerous builds = 0
unfix           myat1
next            cpt
jump            SELF loop
variable        zdes equal  -15+0.60*(${cpt}-1)
variable        zdes equal  -15+0.60*(48-1)
variable        zave equal xcm(H2,z)
fix             mytth2 H2 spring tether ${k1} 2.5 2.5 ${zdes} 0
fix             mytth2 H2 spring tether 1 2.5 2.5 ${zdes} 0
fix             mytth2 H2 spring tether 1 2.5 2.5 13.2 0
run             10000
Generated 0 of 1 mixed pair_coeff terms from geometric mixing rule
Per MPI rank memory allocation (min/avg/max) = 13.36 | 14.4 | 15 Mbytes
   Step          Temp          E_pair         E_mol          TotEng         Press     
   2840000   295.21326      371.35357      18549.161      19342.902     -66.962629    
   2850000   312.44883      359.70971      18523.294      19330.052     -338.27909    
Loop time of 2.81603 on 16 procs for 10000 steps with 481 atoms

Performance: 15.341 ns/day, 1.564 hours/ns, 3551.098 timesteps/s, 1.708 Matom-step/s
100.0% CPU use with 16 MPI tasks x 1 OpenMP threads

MPI task timing breakdown:
Section |  min time  |  avg time  |  max time  |%varavg| %total
---------------------------------------------------------------
Pair    | 0.077643   | 0.40004    | 0.71118    |  27.3 | 14.21
Bond    | 0.29898    | 0.50471    | 0.63883    |  10.4 | 17.92
Neigh   | 0.0063304  | 0.0064544  | 0.006586   |   0.1 |  0.23
Comm    | 1.3653     | 1.7084     | 2.1049     |  16.6 | 60.67
Output  | 0.00097686 | 0.0016417  | 0.0021717  |   1.0 |  0.06
Modify  | 0.080886   | 0.11598    | 0.14662    |   7.0 |  4.12
Other   |            | 0.07882    |            |       |  2.80

Nlocal:        30.0625 ave          40 max          20 min
Histogram: 1 0 1 4 2 3 1 2 1 1
Nghost:        2361.44 ave        2383 max        2350 min
Histogram: 5 2 0 3 1 1 3 0 0 1
Neighs:              0 ave           0 max           0 min
Histogram: 16 0 0 0 0 0 0 0 0 0

Total # of neighbors = 0
Ave neighs/atom = 0
Ave special neighs/atom = 15.567568
Neighbor list builds = 15
Dangerous builds = 0
fix             myat1 all ave/time 100 10 1000 v_zave v_zdes file simulation_data/abpot/${cpt}.dat
fix             myat1 all ave/time 100 10 1000 v_zave v_zdes file simulation_data/abpot/48.dat
run             50000
Generated 0 of 1 mixed pair_coeff terms from geometric mixing rule
Per MPI rank memory allocation (min/avg/max) = 13.36 | 14.4 | 15 Mbytes
   Step          Temp          E_pair         E_mol          TotEng         Press     
   2850000   312.44883      359.70971      18523.294      19330.052     -338.27909    
   2860000   281.80199      369.63636      18538.162      19310.998     -65.773075    
   2870000   313.55919      373.55972      18538.033      19360.23       4.8280041    
   2880000   306.42962      370.00433      18533.95       19342.39      -182.14811    
   2890000   309.5087       370.71833      18504.778      19318.338     -15.884878    
   2900000   304.62548      369.22895      18498.608      19303.691     -143.26759    
Loop time of 14.2792 on 16 procs for 50000 steps with 481 atoms

Performance: 15.127 ns/day, 1.587 hours/ns, 3501.607 timesteps/s, 1.684 Matom-step/s
100.0% CPU use with 16 MPI tasks x 1 OpenMP threads

MPI task timing breakdown:
Section |  min time  |  avg time  |  max time  |%varavg| %total
---------------------------------------------------------------
Pair    | 0.3977     | 1.994      | 3.2064     |  58.2 | 13.96
Bond    | 1.5746     | 2.5238     | 3.0007     |  20.8 | 17.67
Neigh   | 0.025729   | 0.026199   | 0.02668    |   0.2 |  0.18
Comm    | 7.3746     | 8.7367     | 10.601     |  33.8 | 61.18
Output  | 0.0061371  | 0.0090777  | 0.011218   |   1.7 |  0.06
Modify  | 0.4147     | 0.59504    | 0.78763    |  17.3 |  4.17
Other   |            | 0.3944     |            |       |  2.76

Nlocal:        30.0625 ave          46 max          16 min
Histogram: 1 2 3 1 0 4 1 1 1 2
Nghost:        2368.94 ave        2387 max        2350 min
Histogram: 1 2 4 1 1 0 0 1 4 2
Neighs:              0 ave           0 max           0 min
Histogram: 16 0 0 0 0 0 0 0 0 0

Total # of neighbors = 0
Ave neighs/atom = 0
Ave special neighs/atom = 15.567568
Neighbor list builds = 61
Dangerous builds = 0
unfix           myat1
next            cpt
jump            SELF loop
variable        zdes equal  -15+0.60*(${cpt}-1)
variable        zdes equal  -15+0.60*(49-1)
variable        zave equal xcm(H2,z)
fix             mytth2 H2 spring tether ${k1} 2.5 2.5 ${zdes} 0
fix             mytth2 H2 spring tether 1 2.5 2.5 ${zdes} 0
fix             mytth2 H2 spring tether 1 2.5 2.5 13.8 0
run             10000
Generated 0 of 1 mixed pair_coeff terms from geometric mixing rule
Per MPI rank memory allocation (min/avg/max) = 13.36 | 14.4 | 15 Mbytes
   Step          Temp          E_pair         E_mol          TotEng         Press     
   2900000   304.62548      369.22895      18498.608      19303.691     -143.26759    
   2910000   300.91199      361.01704      18517.923      19309.481     -251.60725    
Loop time of 3.12411 on 16 procs for 10000 steps with 481 atoms

Performance: 13.828 ns/day, 1.736 hours/ns, 3200.907 timesteps/s, 1.540 Matom-step/s
100.0% CPU use with 16 MPI tasks x 1 OpenMP threads

MPI task timing breakdown:
Section |  min time  |  avg time  |  max time  |%varavg| %total
---------------------------------------------------------------
Pair    | 0.094857   | 0.40212    | 0.64473    |  26.2 | 12.87
Bond    | 0.33063    | 0.50985    | 0.61746    |   9.7 | 16.32
Neigh   | 0.0053305  | 0.0054759  | 0.0056149  |   0.1 |  0.18
Comm    | 1.698      | 1.9952     | 2.3645     |  14.5 | 63.87
Output  | 0.0010275  | 0.0017497  | 0.0022808  |   0.9 |  0.06
Modify  | 0.087708   | 0.12653    | 0.17853    |   9.2 |  4.05
Other   |            | 0.08316    |            |       |  2.66

Nlocal:        30.0625 ave          44 max          19 min
Histogram: 3 2 2 0 2 1 2 1 1 2
Nghost:        2358.06 ave        2383 max        2336 min
Histogram: 1 0 3 3 3 1 3 0 1 1
Neighs:              0 ave           0 max           0 min
Histogram: 16 0 0 0 0 0 0 0 0 0

Total # of neighbors = 0
Ave neighs/atom = 0
Ave special neighs/atom = 15.567568
Neighbor list builds = 12
Dangerous builds = 0
fix             myat1 all ave/time 100 10 1000 v_zave v_zdes file simulation_data/abpot/${cpt}.dat
fix             myat1 all ave/time 100 10 1000 v_zave v_zdes file simulation_data/abpot/49.dat
run             50000
Generated 0 of 1 mixed pair_coeff terms from geometric mixing rule
Per MPI rank memory allocation (min/avg/max) = 13.36 | 14.4 | 15 Mbytes
   Step          Temp          E_pair         E_mol          TotEng         Press     
   2910000   300.91199      361.01704      18517.923      19309.481     -251.60725    
   2920000   304.59152      378.13753      18520.619      19334.562      120.68728    
   2930000   300.49146      376.13425      18526.806      19332.88       21.675302    
   2940000   304.19106      357.87261      18508.604      19301.71      -345.10893    
   2950000   292.20851      375.07857      18494.882      19288.049      176.51416    
   2960000   302.3252       366.25766      18540.294      19339.115     -192.13681    
Loop time of 14.6124 on 16 procs for 50000 steps with 481 atoms

Performance: 14.782 ns/day, 1.624 hours/ns, 3421.745 timesteps/s, 1.646 Matom-step/s
100.0% CPU use with 16 MPI tasks x 1 OpenMP threads

MPI task timing breakdown:
Section |  min time  |  avg time  |  max time  |%varavg| %total
---------------------------------------------------------------
Pair    | 0.43427    | 2.0015     | 3.3259     |  59.8 | 13.70
Bond    | 1.6921     | 2.5351     | 3.1805     |  21.6 | 17.35
Neigh   | 0.04191    | 0.042712   | 0.043426   |   0.2 |  0.29
Comm    | 7.4322     | 9.0212     | 10.761     |  35.5 | 61.74
Output  | 0.006307   | 0.0090818  | 0.01118    |   1.6 |  0.06
Modify  | 0.40738    | 0.60562    | 0.82437    |  19.0 |  4.14
Other   |            | 0.3971     |            |       |  2.72

Nlocal:        30.0625 ave          39 max          25 min
Histogram: 3 3 4 2 0 0 0 2 0 2
Nghost:        2367.06 ave        2390 max        2351 min
Histogram: 2 2 2 3 1 2 2 1 0 1
Neighs:              0 ave           0 max           0 min
Histogram: 16 0 0 0 0 0 0 0 0 0

Total # of neighbors = 0
Ave neighs/atom = 0
Ave special neighs/atom = 15.567568
Neighbor list builds = 96
Dangerous builds = 0
unfix           myat1
next            cpt
jump            SELF loop
variable        zdes equal  -15+0.60*(${cpt}-1)
variable        zdes equal  -15+0.60*(50-1)
variable        zave equal xcm(H2,z)
fix             mytth2 H2 spring tether ${k1} 2.5 2.5 ${zdes} 0
fix             mytth2 H2 spring tether 1 2.5 2.5 ${zdes} 0
fix             mytth2 H2 spring tether 1 2.5 2.5 14.4 0
run             10000
Generated 0 of 1 mixed pair_coeff terms from geometric mixing rule
Per MPI rank memory allocation (min/avg/max) = 13.36 | 14.4 | 15 Mbytes
   Step          Temp          E_pair         E_mol          TotEng         Press     
   2960000   302.3252       366.25766      18540.294      19339.115     -192.13681    
   2970000   305.99081      361.53984      18544.085      19343.433     -221.84695    
Loop time of 2.87891 on 16 procs for 10000 steps with 481 atoms

Performance: 15.006 ns/day, 1.599 hours/ns, 3473.531 timesteps/s, 1.671 Matom-step/s
100.0% CPU use with 16 MPI tasks x 1 OpenMP threads

MPI task timing breakdown:
Section |  min time  |  avg time  |  max time  |%varavg| %total
---------------------------------------------------------------
Pair    | 0.085313   | 0.39832    | 0.66011    |  26.0 | 13.84
Bond    | 0.27502    | 0.50477    | 0.62758    |  10.8 | 17.53
Neigh   | 0.0059311  | 0.0060521  | 0.0061743  |   0.1 |  0.21
Comm    | 1.4699     | 1.7667     | 2.1925     |  15.7 | 61.37
Output  | 0.00097861 | 0.0016193  | 0.0021254  |   0.9 |  0.06
Modify  | 0.076799   | 0.12208    | 0.18191    |  10.7 |  4.24
Other   |            | 0.07933    |            |       |  2.76

Nlocal:        30.0625 ave          46 max          16 min
Histogram: 2 0 1 3 2 3 2 0 2 1
Nghost:        2351.69 ave        2376 max        2327 min
Histogram: 1 2 0 1 5 1 3 0 1 2
Neighs:              0 ave           0 max           0 min
Histogram: 16 0 0 0 0 0 0 0 0 0

Total # of neighbors = 0
Ave neighs/atom = 0
Ave special neighs/atom = 15.567568
Neighbor list builds = 14
Dangerous builds = 0
fix             myat1 all ave/time 100 10 1000 v_zave v_zdes file simulation_data/abpot/${cpt}.dat
fix             myat1 all ave/time 100 10 1000 v_zave v_zdes file simulation_data/abpot/50.dat
run             50000
Generated 0 of 1 mixed pair_coeff terms from geometric mixing rule
Per MPI rank memory allocation (min/avg/max) = 13.36 | 14.4 | 15 Mbytes
   Step          Temp          E_pair         E_mol          TotEng         Press     
   2970000   305.99081      361.53984      18544.085      19343.433     -221.84695    
   2980000   303.7027       381.49709      18495.158      19311.189      316.93051    
   2990000   307.5041       360.2524       18514.826      19315.052     -210.47454    
   3000000   299.75788      367.84952      18535.587      19332.326     -255.97789    
   3010000   288.97246      378.74753      18525.107      19317.313      167.30805    
   3020000   294.01124      361.86499      18519.063      19301.596     -167.27701    
Loop time of 14.8329 on 16 procs for 50000 steps with 481 atoms

Performance: 14.562 ns/day, 1.648 hours/ns, 3370.891 timesteps/s, 1.621 Matom-step/s
100.0% CPU use with 16 MPI tasks x 1 OpenMP threads

MPI task timing breakdown:
Section |  min time  |  avg time  |  max time  |%varavg| %total
---------------------------------------------------------------
Pair    | 0.43073    | 2.0007     | 3.2803     |  58.9 | 13.49
Bond    | 1.397      | 2.5356     | 3.1215     |  25.2 | 17.09
Neigh   | 0.039408   | 0.040129   | 0.040898   |   0.2 |  0.27
Comm    | 7.7915     | 9.2193     | 11.304     |  34.8 | 62.15
Output  | 0.0064753  | 0.0092291  | 0.011338   |   1.6 |  0.06
Modify  | 0.42337    | 0.62804    | 0.82325    |  18.1 |  4.23
Other   |            | 0.3999     |            |       |  2.70

Nlocal:        30.0625 ave          41 max          21 min
Histogram: 2 1 1 2 4 1 1 0 3 1
Nghost:        2359.75 ave        2376 max        2339 min
Histogram: 1 2 3 0 1 2 1 0 3 3
Neighs:              0 ave           0 max           0 min
Histogram: 16 0 0 0 0 0 0 0 0 0

Total # of neighbors = 0
Ave neighs/atom = 0
Ave special neighs/atom = 15.567568
Neighbor list builds = 90
Dangerous builds = 0
unfix           myat1
next            cpt
jump            SELF loop
variable        zdes equal  -15+0.60*(${cpt}-1)
variable        zdes equal  -15+0.60*(51-1)
variable        zave equal xcm(H2,z)
fix             mytth2 H2 spring tether ${k1} 2.5 2.5 ${zdes} 0
fix             mytth2 H2 spring tether 1 2.5 2.5 ${zdes} 0
fix             mytth2 H2 spring tether 1 2.5 2.5 15 0
run             10000
Generated 0 of 1 mixed pair_coeff terms from geometric mixing rule
Per MPI rank memory allocation (min/avg/max) = 13.36 | 14.46 | 15 Mbytes
   Step          Temp          E_pair         E_mol          TotEng         Press     
   3020000   294.01124      361.86499      18519.063      19301.596     -167.27701    
   3030000   308.78475      362.03127      18539.132      19342.969     -313.15132    
Loop time of 2.92834 on 16 procs for 10000 steps with 481 atoms

Performance: 14.752 ns/day, 1.627 hours/ns, 3414.906 timesteps/s, 1.643 Matom-step/s
100.0% CPU use with 16 MPI tasks x 1 OpenMP threads

MPI task timing breakdown:
Section |  min time  |  avg time  |  max time  |%varavg| %total
---------------------------------------------------------------
Pair    | 0.07667    | 0.40164    | 0.737      |  27.5 | 13.72
Bond    | 0.27518    | 0.50766    | 0.65138    |  12.1 | 17.34
Neigh   | 0.009054   | 0.0092407  | 0.0094135  |   0.1 |  0.32
Comm    | 1.3819     | 1.8129     | 2.2549     |  17.1 | 61.91
Output  | 0.00097388 | 0.0016728  | 0.0023122  |   1.0 |  0.06
Modify  | 0.080521   | 0.11595    | 0.1658     |   9.1 |  3.96
Other   |            | 0.07931    |            |       |  2.71

Nlocal:        30.0625 ave          39 max          22 min
Histogram: 1 2 1 3 4 0 1 2 0 2
Nghost:        2355.25 ave        2382 max        2332 min
Histogram: 1 0 4 1 3 2 2 2 0 1
Neighs:              0 ave           0 max           0 min
Histogram: 16 0 0 0 0 0 0 0 0 0

Total # of neighbors = 0
Ave neighs/atom = 0
Ave special neighs/atom = 15.567568
Neighbor list builds = 21
Dangerous builds = 0
fix             myat1 all ave/time 100 10 1000 v_zave v_zdes file simulation_data/abpot/${cpt}.dat
fix             myat1 all ave/time 100 10 1000 v_zave v_zdes file simulation_data/abpot/51.dat
run             50000
Generated 0 of 1 mixed pair_coeff terms from geometric mixing rule
Per MPI rank memory allocation (min/avg/max) = 13.36 | 14.46 | 15 Mbytes
   Step          Temp          E_pair         E_mol          TotEng         Press     
   3030000   308.78475      362.03127      18539.132      19342.969     -313.15132    
   3040000   291.22888      377.95827      18523.485      19318.13       136.37133    
   3050000   280.88513      372.29055      18527.791      19301.969     -16.111114    
   3060000   286.85242      361.8983       18513.831      19286.154     -105.65173    
   3070000   312.51756      371.79981      18498.107      19317.054      81.544191    
   3080000   305.71979      365.94915      18526.811      19330.181     -117.13936    
Loop time of 14.9133 on 16 procs for 50000 steps with 481 atoms

Performance: 14.484 ns/day, 1.657 hours/ns, 3352.711 timesteps/s, 1.613 Matom-step/s
100.0% CPU use with 16 MPI tasks x 1 OpenMP threads

MPI task timing breakdown:
Section |  min time  |  avg time  |  max time  |%varavg| %total
---------------------------------------------------------------
Pair    | 0.44912    | 1.9908     | 3.2324     |  59.3 | 13.35
Bond    | 1.4507     | 2.5297     | 3.2644     |  26.6 | 16.96
Neigh   | 0.035188   | 0.03578    | 0.036422   |   0.2 |  0.24
Comm    | 7.5671     | 9.3291     | 11.364     |  35.7 | 62.56
Output  | 0.0064108  | 0.0092978  | 0.011416   |   1.6 |  0.06
Modify  | 0.41507    | 0.62281    | 0.84553    |  19.4 |  4.18
Other   |            | 0.3957     |            |       |  2.65

Nlocal:        30.0625 ave          44 max          15 min
Histogram: 1 1 1 2 3 2 3 1 1 1
Nghost:        2368.94 ave        2400 max        2339 min
Histogram: 2 1 0 2 3 2 2 3 0 1
Neighs:              0 ave           0 max           0 min
Histogram: 16 0 0 0 0 0 0 0 0 0

Total # of neighbors = 0
Ave neighs/atom = 0
Ave special neighs/atom = 15.567568
Neighbor list builds = 78
Dangerous builds = 0
unfix           myat1
next            cpt
jump            SELF loop

Total wall time: 0:14:34
