# --- log file ---

variable pre equal 112 # desired pressure (Atm)
variable tem equal 300 # desired temperature (K)

variable k1 equal 0.5 # spring constant
variable k2 equal 2.5 # spring constant

units real
atom_style molecular
boundary p p p
neighbor 1.0 bin
neigh_modify delay 3 one 6000
bond_style harmonic
angle_style harmonic
dihedral_style opls
improper_style harmonic
pair_style hybrid lj/cut 14 sg 15 cb 30 # Fluid-fluid interactions have a cutoff of 15 Å, fluid-solid interactions have a cutoff of 30 Å
# *--* C-C parameters *--*
bond_style harmonic
angle_style harmonic
dihedral_style opls
improper_style harmonic
# *--* C-C parameters *--*


# 2. Read the graphite platelet data file and define potentials parameters
read_data       ../geometry/carbonPlatelets/simulation_data/abpot_sys.data  extra/atom/types 1
Reading data file ...
  orthogonal box = (-30 -30 -30) to (30 30 30)
  3 by 4 by 4 MPI processor grid
  reading atoms ...
  480 atoms
  reading velocities ...
  480 velocities
  scanning bonds ...
  2 = max bonds/atom
  scanning angles ...
  3 = max angles/atom
  scanning dihedrals ...
  8 = max dihedrals/atom
  scanning impropers ...
  2 = max impropers/atom
  orthogonal box = (-30 -30 -30) to (30 30 30)
  3 by 4 by 4 MPI processor grid
  reading bonds ...
  676 bonds
  reading angles ...
  1268 angles
  reading dihedrals ...
  2394 dihedrals
  reading impropers ...
  396 impropers
Finding 1-2 1-3 1-4 neighbors ...
  special bond factors lj:    0        0        0       
  special bond factors coul:  0        0        0       
     3 = max # of 1-2 neighbors
     6 = max # of 1-3 neighbors
    18 = max # of 1-4 neighbors
    18 = max # of special neighbors
  special bonds CPU = 0.003 seconds
  read_data CPU = 0.051 seconds
include         PARM.lammps

#////////////////////////////////////////////////////////////////////////////////////////////////////////////////////////////////
#//     Filename: PARM.lammps
#//     File Type: LAMMPS input script
#//     Description: This script defines the parameters for the simulation of hydrogen absorption in graphite platelets.
#//     Author: Edoardo Cabiati
#//     Date: 2024-07-27
#////////////////////////////////////////////////////////////////////////////////////////////////////////////////////////////////

mass 2 2.016 # For now at least, in accordance with the paper by Wang and Johnson,
             # 1998, the hydrogen atoms are regarded as simple spherical atoms

# //////////////////////////////////////    C-C potentials    //////////////////////////////////////
pair_coeff 1 1 lj/cut 0.066 3.4
bond_coeff 1 469 1.4
angle_coeff 1 63 120
dihedral_coeff 1 0 7.25 0 0
improper_coeff 1 5 180
special_bonds lj 0.0 0.0 0.5
Finding 1-2 1-3 1-4 neighbors ...
  special bond factors lj:    0        0        0.5     
  special bond factors coul:  0        0        0       
     3 = max # of 1-2 neighbors
     6 = max # of 1-3 neighbors
    18 = max # of 1-4 neighbors
    18 = max # of special neighbors
  special bonds CPU = 0.001 seconds
# //////////////////////////////////////    C-C potentials    //////////////////////////////////////
# -------------------------------------------------------------------------------------------------
# //////////////////////////////////////    H-H potentials    //////////////////////////////////////
variable alpha equal 1.713          #|
variable sigma equal 1.567          #|
variable gamma equal 0.00993        #|
variable c6 equal 12.14             #|      The parameters are all in atomic units, the conversion to kcal/mol
variable c8 equal 215.2             #|      is performed in the pair_sg.cpp file
variable c9 equal 143.1             #|
variable c10 equal 4813.9           #|
variable rc equal 8.321             #|
pair_coeff 2 2 sg ${alpha} ${sigma} ${gamma} ${c6} ${c8} ${c9} ${c10} ${rc} # H-H potentials
pair_coeff 2 2 sg 1.713 ${sigma} ${gamma} ${c6} ${c8} ${c9} ${c10} ${rc} 
pair_coeff 2 2 sg 1.713 1.567 ${gamma} ${c6} ${c8} ${c9} ${c10} ${rc} 
pair_coeff 2 2 sg 1.713 1.567 0.00993 ${c6} ${c8} ${c9} ${c10} ${rc} 
pair_coeff 2 2 sg 1.713 1.567 0.00993 12.14 ${c8} ${c9} ${c10} ${rc} 
pair_coeff 2 2 sg 1.713 1.567 0.00993 12.14 215.2 ${c9} ${c10} ${rc} 
pair_coeff 2 2 sg 1.713 1.567 0.00993 12.14 215.2 143.1 ${c10} ${rc} 
pair_coeff 2 2 sg 1.713 1.567 0.00993 12.14 215.2 143.1 4813.9 ${rc} 
pair_coeff 2 2 sg 1.713 1.567 0.00993 12.14 215.2 143.1 4813.9 8.321 
#pair_coeff 2 2 sg 1.713 1.567 0.00993 12.14 215.2 143.1 4813.9 8.321 # H-H potentials
# //////////////////////////////////////    H-H potentials    //////////////////////////////////////
# -------------------------------------------------------------------------------------------------
# //////////////////////////////////////    C-H potentials    //////////////////////////////////////
variable sigma_CC equal 3.43 # Å
variable sigma_HH equal 3.075 # Å
variable sigma_CH_geo equal sqrt(${sigma_CC}*${sigma_HH}) # Å
variable sigma_CH_geo equal sqrt(3.43*${sigma_HH}) 
variable sigma_CH_geo equal sqrt(3.43*3.075) 
variable sigma_CH_arit equal 0.5*(${sigma_CC}+${sigma_HH}) # Å
variable sigma_CH_arit equal 0.5*(3.43+${sigma_HH}) 
variable sigma_CH_arit equal 0.5*(3.43+3.075) 

variable P_par equal 0.57 # Å^3
variable P_perp equal 1.995 # Å^3
variable P_h equal 0.81 # Å^3
variable E_h equal 2.337e5*(1/503.23) # K * 1/503.23 kcal/mol/K = kcal/mol
variable E_c equal 1.39254e5*(1/503.23) # K * 1/503.23 kcal/mol/K = kcal/mol

variable epsilon equal 4*v_E_h*v_E_c*v_P_h*(v_P_par+v_P_perp/2)/(v_sigma_CH_geo^6*(v_E_h+v_E_c)) # kcal/mol

pair_coeff 1 2 cb ${epsilon} ${sigma_CH_geo} ${P_par} ${P_perp} # C-H potential
pair_coeff 1 2 cb 0.750549668586509 ${sigma_CH_geo} ${P_par} ${P_perp} 
pair_coeff 1 2 cb 0.750549668586509 3.24765299870537 ${P_par} ${P_perp} 
pair_coeff 1 2 cb 0.750549668586509 3.24765299870537 0.57 ${P_perp} 
pair_coeff 1 2 cb 0.750549668586509 3.24765299870537 0.57 1.995 
#pair_coeff 1 2 lj/cut 0.3025 2.065
# //////////////////////////////////////    C-H potentials    //////////////////////////////////////

# 3. Add a single hydrogen molecule to the system, close to the center of the first platelet
create_atoms    2 single 0 0 -2
Created 1 atoms
  using lattice units in orthogonal box = (-30 -30 -30) to (30 30 30)
  create_atoms CPU = 0.000 seconds

group           C type 1
480 atoms in group C
group           H2 type 2
1 atoms in group H2

# 4. Equilibration
timestep        0.05
fix             mytth1 C spring/self ${k2} # Apply a spring force to the carbon atoms
fix             mytth1 C spring/self 2.5 
velocity        all create ${tem} 48 rot yes mom yes dist gaussian # Initialize velocities
velocity        all create 300 48 rot yes mom yes dist gaussian 
fix             mynpt all npt temp ${tem} ${tem} 100 x ${pre} ${pre} 1000 y ${pre} ${pre} 1000 # Apply NPT ensemble to the system
fix             mynpt all npt temp 300 ${tem} 100 x ${pre} ${pre} 1000 y ${pre} ${pre} 1000 
fix             mynpt all npt temp 300 300 100 x ${pre} ${pre} 1000 y ${pre} ${pre} 1000 
fix             mynpt all npt temp 300 300 100 x 112 ${pre} 1000 y ${pre} ${pre} 1000 
fix             mynpt all npt temp 300 300 100 x 112 112 1000 y ${pre} ${pre} 1000 
fix             mynpt all npt temp 300 300 100 x 112 112 1000 y 112 ${pre} 1000 
fix             mynpt all npt temp 300 300 100 x 112 112 1000 y 112 112 1000 

thermo          1000
dump            dump all atom 1000 simulation_data/absorption_pot.lammpstrj

run             20000

CITE-CITE-CITE-CITE-CITE-CITE-CITE-CITE-CITE-CITE-CITE-CITE-CITE

Your simulation uses code contributions which should be cited:

- Type Label Framework: https://doi.org/10.1021/acs.jpcb.3c08419

@Article{Gissinger24,
 author = {Jacob R. Gissinger, Ilia Nikiforov, Yaser Afshar, Brendon Waters, Moon-ki Choi, Daniel S. Karls, Alexander Stukowski, Wonpil Im, Hendrik Heinz, Axel Kohlmeyer, and Ellad B. Tadmor},
 title = {Type Label Framework for Bonded Force Fields in LAMMPS},
 journal = {J. Phys. Chem. B},
 year =    2024,
 volume =  128,
 number =  13,
 pages =   {3282–-3297}
}

CITE-CITE-CITE-CITE-CITE-CITE-CITE-CITE-CITE-CITE-CITE-CITE-CITE

Generated 0 of 1 mixed pair_coeff terms from geometric mixing rule
Neighbor list info ...
  update: every = 1 steps, delay = 3 steps, check = yes
  max neighbors/atom: 6000, page size: 100000
  master list distance cutoff = 31
  ghost atom cutoff = 31
  binsize = 15.5, bins = 4 4 4
  4 neighbor lists, perpetual/occasional/extra = 4 0 0
  (1) pair lj/cut, perpetual, skip trim from (4)
      attributes: half, newton on, cut 15
      pair build: skip/trim
      stencil: none
      bin: none
  (2) pair sg, perpetual, skip trim from (4)
      attributes: half, newton on, cut 16
      pair build: skip/trim
      stencil: none
      bin: none
  (3) pair cb, perpetual, skip from (4)
      attributes: half, newton on
      pair build: skip
      stencil: none
      bin: none
  (4) neighbor class addition, perpetual
      attributes: half, newton on
      pair build: half/bin/newton
      stencil: half/bin/3d
      bin: standard
Per MPI rank memory allocation (min/avg/max) = 13.28 | 13.37 | 13.93 Mbytes
   Step          Temp          E_pair         E_mol          TotEng         Press          Volume    
         0   300            308.43814      19603.922      20341.597     -432.48369      216000       
      1000   539.28481      474.90214      18930.511      20177.016      925.57319      208246.51    
      2000   513.66516      379.35657      18927.781      20042.084     -577.21644      210322.3     
      3000   452.10534      365.12872      18882.276      19894.272     -553.80306      208897.53    
      4000   398.49888      451.16491      18776.444      19797.776      785.85309      202473.36    
      5000   404.82323      350.66871      18776.756      19706.641     -950.31081      202441.87    
      6000   355.22541      415.01872      18660.894      19584.166      222.34687      195846.89    
      7000   371.94161      396.35915      18621.877      19550.406      136.66262      191938.7     
      8000   320.30518      372.897        18632.833      19464.019     -348.5597       188292.93    
      9000   318.0402       410.79969      18553.518      19419.366      287.58463      182099.95    
     10000   316.19925      372.43749      18560.777      19385.629     -429.95184      178677.27    
     11000   290.1828       392.27167      18528.721      19336.183     -27.470332      173262.06    
     12000   291.25999      389.62663      18522.665      19329.023      84.370129      168839.25    
     13000   274.27332      379.755        18534.843      19307.025     -245.02251      164556.51    
     14000   274.4512       387.95403      18528.256      19308.891     -182.93138      159750.89    
     15000   287.30796      380.23765      18528.43       19319.745     -321.83411      155731.85    
     16000   285.60361      387.39269      18529.507      19325.538     -210.05173      151090.25    
     17000   293.98181      385.79879      18551.823      19358.248     -204.48285      146928.26    
     18000   307.10723      378.3826       18557.936      19375.725     -399.49253      142955.49    
     19000   308.31113      388.42374      18550.442      19379.994     -212.93328      138612.54    
     20000   321.12375      376.41763      18551.171      19387.049     -319.26564      135000.31    
Loop time of 8.14585 on 48 procs for 20000 steps with 481 atoms

Performance: 10.607 ns/day, 2.263 hours/ns, 2455.238 timesteps/s, 1.181 Matom-step/s
99.8% CPU use with 48 MPI tasks x 1 OpenMP threads

MPI task timing breakdown:
Section |  min time  |  avg time  |  max time  |%varavg| %total
---------------------------------------------------------------
Pair    | 0.12211    | 0.46333    | 2.4567     |  83.7 |  5.69
Bond    | 0.003876   | 0.42928    | 2.5951     | 117.3 |  5.27
Neigh   | 0.021495   | 0.023477   | 0.025554   |   0.8 |  0.29
Comm    | 2.2273     | 4.4815     | 6.7195     |  76.4 | 55.02
Output  | 0.0048165  | 0.0095028  | 0.014866   |   3.4 |  0.12
Modify  | 0.7295     | 2.4587     | 5.132      | 113.4 | 30.18
Other   |            | 0.28       |            |       |  3.44

Nlocal:        10.0208 ave          48 max           0 min
Histogram: 22 12 6 0 0 0 2 2 2 2
Nghost:        1818.35 ave        2346 max        1176 min
Histogram: 8 0 0 0 24 0 0 0 0 16
Neighs:              0 ave           0 max           0 min
Histogram: 48 0 0 0 0 0 0 0 0 0

Total # of neighbors = 0
Ave neighs/atom = 0
Ave special neighs/atom = 15.567568
Neighbor list builds = 53
Dangerous builds = 0
unfix           mynpt
unfix           mytth1

# 5. Umbrella sampling
fix             mynvt all nvt temp ${tem} ${tem} 100
fix             mynvt all nvt temp 300 ${tem} 100
fix             mynvt all nvt temp 300 300 100
fix             mytth1 C spring/self ${k2}
fix             mytth1 C spring/self 2.5

variable        cpt loop 51
label           loop
variable        zdes equal  -15+0.30*(${cpt}-1)
variable        zdes equal  -15+0.30*(1-1)
variable        zave equal xcm(H2,z)
fix             mytth2 H2 spring tether ${k1} 2.5 2.5 ${zdes} 0
fix             mytth2 H2 spring tether 0.5 2.5 2.5 ${zdes} 0
fix             mytth2 H2 spring tether 0.5 2.5 2.5 -15 0
run             10000
Generated 0 of 1 mixed pair_coeff terms from geometric mixing rule
Per MPI rank memory allocation (min/avg/max) = 13.32 | 13.7 | 14.98 Mbytes
   Step          Temp          E_pair         E_mol          TotEng         Press     
     20000   321.12375      376.41763      18551.171      19387.049     -319.26564    
     21000   280.33241      327.69598      18643.075      19371.868     -1618.717     
     22000   325.73737      367.06917      18548.632      19381.763     -223.49408    
     23000   283.12995      451.22137      18508.92       19365.24       1624.8853    
     24000   307.95906      404.8415       18512.775      19358.24       656.90208    
     25000   277.96822      334.9992       18602.964      19335.677     -1190.7793    
     26000   282.46753      344.35911      18579.118      19327.629     -921.97814    
     27000   288.78242      406.93204      18507.152      19327.271      649.63162    
     28000   293.03508      428.37123      18490.407      19338.049      1186.1083    
     29000   320.67642      361.92644      18549.47       19370.217     -482.69165    
     30000   299.15881      337.71042      18611.289      19377.032     -1123.4729    
Loop time of 3.22647 on 48 procs for 10000 steps with 481 atoms

Performance: 13.389 ns/day, 1.792 hours/ns, 3099.365 timesteps/s, 1.491 Matom-step/s
100.0% CPU use with 48 MPI tasks x 1 OpenMP threads

MPI task timing breakdown:
Section |  min time  |  avg time  |  max time  |%varavg| %total
---------------------------------------------------------------
Pair    | 0.0034954  | 0.14583    | 0.84093    |  59.6 |  4.52
Bond    | 0.0010193  | 0.18414    | 1.0311     |  66.7 |  5.71
Neigh   | 0.020328   | 0.022349   | 0.023905   |   0.6 |  0.69
Comm    | 1.0906     | 2.3297     | 2.9013     |  40.4 | 72.20
Output  | 0.0017522  | 0.0035947  | 0.005668   |   2.1 |  0.11
Modify  | 0.13767    | 0.422      | 1.6834     |  82.9 | 13.08
Other   |            | 0.1189     |            |       |  3.69

Nlocal:        10.0208 ave          52 max           0 min
Histogram: 23 10 6 1 2 1 2 0 2 1
Nghost:        1818.35 ave        2347 max        1171 min
Histogram: 8 0 0 0 24 0 0 0 0 16
Neighs:              0 ave           0 max           0 min
Histogram: 48 0 0 0 0 0 0 0 0 0

Total # of neighbors = 0
Ave neighs/atom = 0
Ave special neighs/atom = 15.567568
Neighbor list builds = 60
Dangerous builds = 0
fix             myat1 all ave/time 1000 10 10000 v_zave v_zdes file simulation_data/abpot/${cpt}.dat
fix             myat1 all ave/time 1000 10 10000 v_zave v_zdes file simulation_data/abpot/1.dat
run             50000
Generated 0 of 1 mixed pair_coeff terms from geometric mixing rule
Per MPI rank memory allocation (min/avg/max) = 13.32 | 13.71 | 14.98 Mbytes
   Step          Temp          E_pair         E_mol          TotEng         Press     
     30000   299.15881      337.71042      18611.289      19377.032     -1123.4729    
     31000   324.75959      382.61103      18534.039      19381.313      30.562612    
     32000   288.59392      429.37945      18530.105      19372.402      1062.5242    
     33000   294.78643      390.39277      18564.13       19376.3        253.22216    
     34000   296.14487      337.53138      18618.38       19379.632     -1086.8961    
     35000   310.08523      349.55512      18589.373      19382.595     -664.88781    
     36000   295.05769      413.32403      18532.431      19367.92       831.58578    
     37000   275.72341      409.55828      18539.986      19344.046      640.598      
     38000   284.60431      368.87741      18556.724      19332.81      -300.94613    
     39000   277.12284      338.96421      18595.365      19330.834     -919.57697    
     40000   286.96182      382.87041      18545.931      19339.383      153.34487    
     41000   288.63261      406.50568      18535.447      19354.925      639.97342    
     42000   294.89174      386.77162      18565.797      19374.496      111.69569    
     43000   313.64332      357.70809      18582.178      19388.643     -524.14535    
     44000   308.45978      360.19794      18588.049      19389.588     -497.55566    
     45000   311.56635      398.35212      18545.204      19389.342      516.19531    
     46000   301.47519      391.1786       18558.863      19381.389      232.18194    
     47000   303.10395      363.8315       18574.323      19371.832     -498.24192    
     48000   303.89552      360.5712       18567.905      19363.287     -513.25513    
     49000   295.54251      380.07749      18546.654      19349.59       82.240614    
     50000   299.10426      400.34292      18516.8        19345.098      566.326      
     51000   290.79624      372.02992      18560.866      19348.964     -371.26899    
     52000   299.67345      364.88664      18563.939      19357.595     -520.15649    
     53000   290.52236      368.1785       18570.581      19354.436     -223.58926    
     54000   297.39696      388.56578      18541.885      19355.963      223.32811    
     55000   302.22029      384.41975      18546.164      19362.997      147.53534    
     56000   307.6428       363.33594      18566.817      19370.325     -436.48681    
     57000   290.55861      372.19751      18589.186      19377.111     -26.08714     
     58000   307.84146      377.27128      18563.643      19381.371      25.827723    
     59000   307.70061      382.66711      18563.556      19386.477      141.04188    
     60000   301.45641      381.79103      18582.606      19395.718      66.696869    
     61000   315.56809      371.32646      18586.811      19409.649     -207.3457     
     62000   311.3075       373.36653      18593.708      19412.49      -155.1958     
     63000   306.68635      376.84703      18587.704      19403.354     -136.48641    
     64000   306.01521      381.9987       18560.136      19379.978      76.093667    
     65000   301.33725      378.0003       18555.641      19364.792      15.315025    
     66000   297.65503      372.51307      18556.404      19354.799     -203.18381    
     67000   268.49862      374.46439      18590.936      19349.565     -145.14649    
     68000   308.24585      371.11246      18538.84       19350.987     -158.82689    
     69000   273.9668       382.59693      18575.964      19350.55       112.5826     
     70000   294.82444      375.96224      18562.708      19360.501     -83.113134    
     71000   309.06071      369.03154      18562.498      19373.73      -190.16593    
     72000   297.69364      376.32543      18590.068      19392.33      -60.362565    
     73000   312.5381       377.67049      18581.379      19406.226      10.308272    
     74000   309.27272      385.08033      18584.163      19411.747      112.3979     
     75000   328.7558       373.22052      18562.427      19406.028      12.171777    
     76000   299.33363      370.45519      18593.05       19391.788     -209.55529    
     77000   313.54194      378.30345      18557.573      19384.488      25.944099    
     78000   323.44807      381.91738      18531.225      19375.928      176.0529     
     79000   301.84471      379.62388      18557.742      19369.242      12.931287    
     80000   314.77219      372.18826      18536.477      19359.038     -83.801564    
Loop time of 16.0713 on 48 procs for 50000 steps with 481 atoms

Performance: 13.440 ns/day, 1.786 hours/ns, 3111.137 timesteps/s, 1.496 Matom-step/s
100.0% CPU use with 48 MPI tasks x 1 OpenMP threads

MPI task timing breakdown:
Section |  min time  |  avg time  |  max time  |%varavg| %total
---------------------------------------------------------------
Pair    | 0.017417   | 0.72869    | 4.1762     | 136.3 |  4.53
Bond    | 0.0050439  | 0.92162    | 5.0547     | 150.7 |  5.73
Neigh   | 0.043938   | 0.048209   | 0.051757   |   1.0 |  0.30
Comm    | 5.5524     | 11.569     | 14.311     |  91.4 | 71.99
Output  | 0.0087274  | 0.015829   | 0.023318   |   3.7 |  0.10
Modify  | 0.64445    | 2.1954     | 8.7549     | 185.6 | 13.66
Other   |            | 0.5925     |            |       |  3.69

Nlocal:        10.0208 ave          44 max           0 min
Histogram: 22 10 7 1 0 0 0 3 1 4
Nghost:        1818.35 ave        2347 max        1179 min
Histogram: 8 0 0 0 24 0 0 0 0 16
Neighs:              0 ave           0 max           0 min
Histogram: 48 0 0 0 0 0 0 0 0 0

Total # of neighbors = 0
Ave neighs/atom = 0
Ave special neighs/atom = 15.567568
Neighbor list builds = 129
Dangerous builds = 0
unfix           myat1
next            cpt
jump            SELF loop
variable        zdes equal  -15+0.30*(${cpt}-1)
variable        zdes equal  -15+0.30*(2-1)
variable        zave equal xcm(H2,z)
fix             mytth2 H2 spring tether ${k1} 2.5 2.5 ${zdes} 0
fix             mytth2 H2 spring tether 0.5 2.5 2.5 ${zdes} 0
fix             mytth2 H2 spring tether 0.5 2.5 2.5 -14.7 0
run             10000
Generated 0 of 1 mixed pair_coeff terms from geometric mixing rule
Per MPI rank memory allocation (min/avg/max) = 13.32 | 13.72 | 14.98 Mbytes
   Step          Temp          E_pair         E_mol          TotEng         Press     
     80000   314.77219      372.18826      18536.477      19359.038     -83.801564    
     81000   300.84119      372.12015      18542.033      19344.593     -26.20941     
     82000   298.46843      370.15504      18536.437      19333.638     -231.82611    
     83000   289.53271      386.4096       18527.594      19328.264      231.90673    
     84000   296.9813       379.34074      18530.678      19334.937      133.14471    
     85000   307.29205      369.38775      18540.513      19349.571     -111.81608    
     86000   290.86313      355.84436      18604.473      19376.481     -605.01346    
     87000   307.24826      385.97409      18568.624      19394.206      120.34284    
     88000   298.05994      403.12313      18562.332      19391.916      631.98851    
     89000   293.4797       367.3824       18596.817      19384.107     -277.40647    
     90000   302.195        356.12405      18590.715      19379.216     -519.41108    
Loop time of 3.17442 on 48 procs for 10000 steps with 481 atoms

Performance: 13.609 ns/day, 1.764 hours/ns, 3150.182 timesteps/s, 1.515 Matom-step/s
100.0% CPU use with 48 MPI tasks x 1 OpenMP threads

MPI task timing breakdown:
Section |  min time  |  avg time  |  max time  |%varavg| %total
---------------------------------------------------------------
Pair    | 0.0033449  | 0.14526    | 0.85342    |  61.2 |  4.58
Bond    | 0.0010035  | 0.18411    | 0.96218    |  67.1 |  5.80
Neigh   | 0.0070115  | 0.0076855  | 0.0082478  |   0.4 |  0.24
Comm    | 1.0842     | 2.2989     | 2.8564     |  41.2 | 72.42
Output  | 0.0016447  | 0.002856   | 0.0040969  |   1.5 |  0.09
Modify  | 0.12624    | 0.4182     | 1.7277     |  84.3 | 13.17
Other   |            | 0.1175     |            |       |  3.70

Nlocal:        10.0208 ave          47 max           0 min
Histogram: 24 9 7 0 0 0 1 4 0 3
Nghost:        1818.88 ave        2348 max        1178 min
Histogram: 8 0 0 0 24 0 0 0 0 16
Neighs:              0 ave           0 max           0 min
Histogram: 48 0 0 0 0 0 0 0 0 0

Total # of neighbors = 0
Ave neighs/atom = 0
Ave special neighs/atom = 15.567568
Neighbor list builds = 20
Dangerous builds = 0
fix             myat1 all ave/time 1000 10 10000 v_zave v_zdes file simulation_data/abpot/${cpt}.dat
fix             myat1 all ave/time 1000 10 10000 v_zave v_zdes file simulation_data/abpot/2.dat
run             50000
Generated 0 of 1 mixed pair_coeff terms from geometric mixing rule
Per MPI rank memory allocation (min/avg/max) = 13.32 | 13.72 | 14.98 Mbytes
   Step          Temp          E_pair         E_mol          TotEng         Press     
     90000   302.195        356.12405      18590.715      19379.216     -519.41108    
     91000   306.02758      367.02757      18572.576      19377.465     -253.31193    
     92000   295.39908      384.88224      18552.968      19360.504      134.07194    
     93000   292.70591      394.79269      18526.943      19340.536      371.35882    
     94000   301.60269      365.75807      18530.657      19327.945     -302.8363     
     95000   286.69127      362.16487      18552.436      19324.796     -390.28967    
     96000   282.17301      374.44577      18550.968      19329.143     -136.62619    
     97000   293.45687      389.42251      18535.462      19344.76       367.72185    
     98000   293.78924      384.08866      18560.693      19365.132      263.38977    
     99000   302.11156      358.77243      18592.038      19383.069     -487.41865    
    100000   316.54427      373.09936      18564.344      19390.351     -95.727815    
    101000   308.03839      390.29746      18553.513      19384.548      294.84605    
    102000   313.65225      382.37042      18542.073      19373.214      223.54071    
    103000   301.8457       377.93923      18551.938      19361.754     -2.345485     
    104000   295.35561      360.99433      18564.963      19348.549     -385.59921    
    105000   299.77844      373.85388      18535.87       19338.643     -109.66371    
    106000   301.89441      390.69971      18510.955      19333.602      238.36229    
    107000   292.62108      380.29179      18531.694      19330.665      256.96675    
    108000   300.90368      368.12604      18537.375      19336.031     -243.57313    
    109000   315.20725      368.86458      18526.279      19346.138     -152.20696    
    110000   296.30858      383.38959      18546.327      19353.672      115.171      
    111000   305.24796      388.03613      18533.208      19357.989      138.15887    
    112000   303.22167      375.03083      18547.894      19356.771     -62.105394    
    113000   294.37632      363.60068      18569.87       19354.661     -275.7297     
    114000   289.75354      376.85745      18559.178      19350.612     -96.001709    
    115000   294.43359      382.01926      18547.685      19350.977      176.29094    
    116000   303.00654      380.19297      18539.859      19353.59      -35.084236    
    117000   285.28172      360.34154      18590.631      19359.15      -313.55869    
    118000   312.06973      370.11187      18546.878      19363.496     -230.20216    
    119000   309.1937       375.15637      18553.941      19371.489      9.1878497    
    120000   305.28638      387.76423      18549.591      19374.156      158.01316    
    121000   299.57618      367.14707      18580.184      19375.961     -228.66767    
    122000   298.48921      367.64237      18582.522      19377.24      -166.37541    
    123000   303.81507      382.46784      18555.274      19372.437      148.03364    
    124000   309.23165      379.13303      18540.134      19361.712      106.47426    
    125000   309.30831      369.45098      18532.624      19344.63      -186.78114    
    126000   281.28619      370.34231      18555.94       19328.743     -198.23894    
    127000   297.40312      370.40895      18529.458      19325.388     -19.447668    
    128000   294.12959      381.27882      18527.147      19329.263      193.33258    
    129000   290.26807      368.26943      18558.553      19342.135     -92.919636    
    130000   296.07634      368.6225       18570.432      19362.677     -177.94984    
    131000   310.1971       374.97898      18553.122      19371.927     -121.241      
    132000   307.07856      383.67063      18545.81       19368.845      100.6855     
    133000   324.93882      386.14216      18519.279      19370.34       221.73314    
    134000   302.79739      365.54331      18568.939      19367.721     -336.18806    
    135000   291.5518       363.24793      18577.816      19358.213     -249.11391    
    136000   288.96836      376.28508      18557.742      19347.48       142.85923    
    137000   287.61593      383.90177      18542.414      19337.834      205.90801    
    138000   290.75547      377.70547      18539.465      19333.18       6.9825873    
    139000   299.85031      367.2346       18532.202      19328.459     -137.41604    
    140000   290.18007      372.87718      18538.149      19326.212      23.427881    
Loop time of 16.2525 on 48 procs for 50000 steps with 481 atoms

Performance: 13.290 ns/day, 1.806 hours/ns, 3076.446 timesteps/s, 1.480 Matom-step/s
100.0% CPU use with 48 MPI tasks x 1 OpenMP threads

MPI task timing breakdown:
Section |  min time  |  avg time  |  max time  |%varavg| %total
---------------------------------------------------------------
Pair    | 0.017287   | 0.72834    | 4.4709     | 138.5 |  4.48
Bond    | 0.0050328  | 0.92205    | 5.0868     | 151.3 |  5.67
Neigh   | 0.031582   | 0.034666   | 0.037114   |   0.8 |  0.21
Comm    | 5.3727     | 11.774     | 14.7       |  92.8 | 72.44
Output  | 0.0084817  | 0.014239   | 0.019728   |   3.0 |  0.09
Modify  | 0.63288    | 2.1912     | 8.9275     | 190.6 | 13.48
Other   |            | 0.5885     |            |       |  3.62

Nlocal:        10.0208 ave          54 max           0 min
Histogram: 26 10 4 0 0 3 0 2 1 2
Nghost:        1818.35 ave        2348 max        1169 min
Histogram: 8 0 0 0 24 0 0 0 0 16
Neighs:              0 ave           0 max           0 min
Histogram: 48 0 0 0 0 0 0 0 0 0

Total # of neighbors = 0
Ave neighs/atom = 0
Ave special neighs/atom = 15.567568
Neighbor list builds = 90
Dangerous builds = 0
unfix           myat1
next            cpt
jump            SELF loop
variable        zdes equal  -15+0.30*(${cpt}-1)
variable        zdes equal  -15+0.30*(3-1)
variable        zave equal xcm(H2,z)
fix             mytth2 H2 spring tether ${k1} 2.5 2.5 ${zdes} 0
fix             mytth2 H2 spring tether 0.5 2.5 2.5 ${zdes} 0
fix             mytth2 H2 spring tether 0.5 2.5 2.5 -14.4 0
run             10000
Generated 0 of 1 mixed pair_coeff terms from geometric mixing rule
Per MPI rank memory allocation (min/avg/max) = 13.32 | 13.73 | 14.98 Mbytes
   Step          Temp          E_pair         E_mol          TotEng         Press     
    140000   290.18007      372.87718      18538.149      19326.212      23.427881    
    141000   290.12498      387.33774      18532.905      19335.35       180.53109    
    142000   311.37024      378.73927      18530.144      19354.388      139.70502    
    143000   311.78137      365.51938      18557.495      19369.108     -343.39896    
    144000   306.8286       373.07556      18566.716      19378.798     -159.1617     
    145000   311.99903      376.6151       18558.974      19381.994      27.24026     
    146000   302.65638      379.14353      18565.85       19378.031     -30.522505    
    147000   308.30282      371.95853      18553.148      19366.223     -43.244685    
    148000   292.13694      367.8718       18561.909      19347.767     -239.17356    
    149000   293.32906      376.60537      18535.05       19331.347     -57.150335    
    150000   290.3725       381.60256      18528.359      19325.423      178.09824    
Loop time of 3.23533 on 48 procs for 10000 steps with 481 atoms

Performance: 13.353 ns/day, 1.797 hours/ns, 3090.872 timesteps/s, 1.487 Matom-step/s
100.0% CPU use with 48 MPI tasks x 1 OpenMP threads

MPI task timing breakdown:
Section |  min time  |  avg time  |  max time  |%varavg| %total
---------------------------------------------------------------
Pair    | 0.0034319  | 0.14555    | 0.88924    |  62.4 |  4.50
Bond    | 0.0010183  | 0.18436    | 1.0166     |  67.9 |  5.70
Neigh   | 0.0054173  | 0.0059454  | 0.0063203  |   0.3 |  0.18
Comm    | 1.0114     | 2.3554     | 2.9356     |  42.0 | 72.80
Output  | 0.0016952  | 0.0027627  | 0.0038199  |   1.3 |  0.09
Modify  | 0.12504    | 0.42377    | 1.7869     |  86.5 | 13.10
Other   |            | 0.1176     |            |       |  3.63

Nlocal:        10.0208 ave          48 max           0 min
Histogram: 22 11 7 0 0 1 1 1 2 3
Nghost:        1818.35 ave        2347 max        1175 min
Histogram: 8 0 0 0 24 0 0 0 0 16
Neighs:              0 ave           0 max           0 min
Histogram: 48 0 0 0 0 0 0 0 0 0

Total # of neighbors = 0
Ave neighs/atom = 0
Ave special neighs/atom = 15.567568
Neighbor list builds = 15
Dangerous builds = 0
fix             myat1 all ave/time 1000 10 10000 v_zave v_zdes file simulation_data/abpot/${cpt}.dat
fix             myat1 all ave/time 1000 10 10000 v_zave v_zdes file simulation_data/abpot/3.dat
run             50000
Generated 0 of 1 mixed pair_coeff terms from geometric mixing rule
Per MPI rank memory allocation (min/avg/max) = 13.32 | 13.73 | 14.98 Mbytes
   Step          Temp          E_pair         E_mol          TotEng         Press     
    150000   290.3725       381.60256      18528.359      19325.423      178.09824    
    151000   280.96893      374.49297      18547.923      19324.423     -213.77867    
    152000   274.51815      377.53499      18561.154      19331.466      47.071208    
    153000   288.4748       378.50174      18553.23       19344.478      11.053782    
    154000   290.7819       373.82152      18565.663      19355.532     -94.621235    
    155000   304.44583      374.94872      18547.213      19357.759     -17.630695    
    156000   304.28338      379.04434      18547.488      19361.897      29.548887    
    157000   305.59805      381.09325      18546.946      19365.285      136.8831     
    158000   298.22476      371.61307      18565.059      19363.368     -53.790898    
    159000   297.96067      377.82459      18546.654      19350.798     -23.485052    
    160000   299.50435      377.00985      18518.665      19324.202      33.435945    
    161000   289.4767       372.4394       18522.702      19309.321     -77.159294    
    162000   283.71414      373.51309      18527.837      19307.286     -80.178002    
    163000   289.20274      375.8796       18528.138      19317.806     -47.402897    
    164000   299.53746      370.6783       18538.56       19337.813     -28.74711     
    165000   303.27834      373.08411      18543.335      19350.346     -93.224378    
    166000   313.35905      378.56446      18531.945      19358.86       44.522735    
    167000   307.09113      376.82715      18546.908      19363.118      99.467962    
    168000   291.08349      367.22366      18578.781      19362.483     -170.99792    
    169000   299.30954      371.00433      18562.745      19361.998     -105.07232    
    170000   293.69159      378.08448      18558.039      19356.334      74.959522    
    171000   298.1327       376.93397      18543.916      19347.415      64.615357    
    172000   297.66378      378.6108       18525.281      19329.786      136.68967    
    173000   286.34451      369.62468      18535.975      19315.299     -170.64655    
    174000   288.97071      375.34587      18518.85       19307.652      54.599256    
    175000   290.15554      380.47874      18519.145      19314.775      74.67374     
    176000   296.15277      382.35329      18527.165      19333.251      145.94743    
    177000   283.39332      377.74904      18567.156      19350.381     -106.82208    
    178000   303.63021      373.95333      18550.255      19358.639     -158.11844    
    179000   303.00888      372.7885       18551.769      19358.099     -103.15282    
    180000   321.17184      381.37226      18515.919      19356.82       152.6477     
    181000   283.61795      376.94365      18570.255      19352.996     -26.956034    
    182000   299.43171      370.36386      18554.238      19353.026     -52.088681    
    183000   298.86504      366.34641      18550.519      19344.478     -138.41481    
    184000   304.3697       375.65908      18516.128      19327.276      120.1834     
    185000   270.8018       376.79367      18542.937      19307.191      49.166744    
    186000   288.46208      369.2354       18516.82       19298.784     -99.211049    
    187000   297.13457      369.38683      18508.26       19302.783     -46.987452    
    188000   292.92116      375.28701      18524.294      19318.689      17.496225    
    189000   285.81284      376.48662      18555.448      19340.872      38.478131    
    190000   319.95166      375.76585      18520.586      19354.135      38.406082    
    191000   303.09029      364.32022      18556.964      19354.942     -373.3366     
    192000   299.88155      375.22877      18548.478      19352.774      17.957634    
    193000   313.27258      378.09619      18521.39       19347.713      76.030909    
    194000   301.4316       381.02981      18525.716      19338.031      116.44485    
    195000   289.38767      370.52169      18543.26       19327.834     -183.94161    
    196000   300.40731      369.96183      18521.353      19321.134     -43.302132    
    197000   297.10977      377.76976      18508.171      19311.042      11.184296    
    198000   288.41907      376.22575      18517.165      19306.058     -24.07502     
    199000   295.91885      370.05326      18513.407      19306.858     -91.685328    
    200000   296.89436      371.99182      18522.629      19319.414     -67.641322    
Loop time of 15.9267 on 48 procs for 50000 steps with 481 atoms

Performance: 13.562 ns/day, 1.770 hours/ns, 3139.386 timesteps/s, 1.510 Matom-step/s
100.0% CPU use with 48 MPI tasks x 1 OpenMP threads

MPI task timing breakdown:
Section |  min time  |  avg time  |  max time  |%varavg| %total
---------------------------------------------------------------
Pair    | 0.017144   | 0.7268     | 4.2513     | 136.7 |  4.56
Bond    | 0.005032   | 0.91983    | 4.6128     | 149.6 |  5.78
Neigh   | 0.025907   | 0.028404   | 0.03038    |   0.7 |  0.18
Comm    | 5.7192     | 11.503     | 14.342     |  91.4 | 72.22
Output  | 0.0083659  | 0.013656   | 0.018931   |   2.8 |  0.09
Modify  | 0.64096    | 2.1456     | 8.7166     | 186.1 | 13.47
Other   |            | 0.5898     |            |       |  3.70

Nlocal:        10.0208 ave          46 max           0 min
Histogram: 23 11 5 1 0 0 0 3 2 3
Nghost:        1818.35 ave        2347 max        1181 min
Histogram: 8 0 0 0 24 0 0 0 0 16
Neighs:              0 ave           0 max           0 min
Histogram: 48 0 0 0 0 0 0 0 0 0

Total # of neighbors = 0
Ave neighs/atom = 0
Ave special neighs/atom = 15.567568
Neighbor list builds = 75
Dangerous builds = 0
unfix           myat1
next            cpt
jump            SELF loop
variable        zdes equal  -15+0.30*(${cpt}-1)
variable        zdes equal  -15+0.30*(4-1)
variable        zave equal xcm(H2,z)
fix             mytth2 H2 spring tether ${k1} 2.5 2.5 ${zdes} 0
fix             mytth2 H2 spring tether 0.5 2.5 2.5 ${zdes} 0
fix             mytth2 H2 spring tether 0.5 2.5 2.5 -14.1 0
run             10000
Generated 0 of 1 mixed pair_coeff terms from geometric mixing rule
Per MPI rank memory allocation (min/avg/max) = 13.32 | 13.74 | 14.98 Mbytes
   Step          Temp          E_pair         E_mol          TotEng         Press     
    200000   296.89436      371.99182      18522.629      19319.414     -67.641322    
    201000   302.42659      372.58622      18536.184      19341.479     -77.257604    
    202000   310.216        388.4125       18524.426      19356.692      305.56456    
    203000   317.25961      370.93975      18540.797      19365.668     -237.59011    
    204000   317.69345      372.40128      18536.093      19363.047     -133.8854     
    205000   307.4306       376.61395      18531.483      19347.965     -70.958391    
    206000   315.87302      375.04273      18506.771      19333.761     -22.78725     
    207000   289.14221      382.21601      18524.273      19320.191      185.21586    
    208000   293.28578      376.6948       18518.137      19314.462     -9.6779024    
    209000   292.21178      371.9395       18525.403      19315.436     -370.44832    
    210000   291.20801      374.34218      18523.254      19314.253     -28.332395    
Loop time of 3.17427 on 48 procs for 10000 steps with 481 atoms

Performance: 13.609 ns/day, 1.763 hours/ns, 3150.335 timesteps/s, 1.515 Matom-step/s
100.0% CPU use with 48 MPI tasks x 1 OpenMP threads

MPI task timing breakdown:
Section |  min time  |  avg time  |  max time  |%varavg| %total
---------------------------------------------------------------
Pair    | 0.0034603  | 0.14552    | 0.8851     |  61.5 |  4.58
Bond    | 0.0010024  | 0.18394    | 0.9587     |  67.0 |  5.79
Neigh   | 0.0057256  | 0.006288   | 0.0066941  |   0.4 |  0.20
Comm    | 1.0714     | 2.2769     | 2.8643     |  40.1 | 71.73
Output  | 0.0016605  | 0.0026746  | 0.0037083  |   1.3 |  0.08
Modify  | 0.12557    | 0.44142    | 1.7053     |  80.4 | 13.91
Other   |            | 0.1175     |            |       |  3.70

Nlocal:        10.0208 ave          44 max           0 min
Histogram: 22 10 8 0 0 0 0 3 1 4
Nghost:        1818.35 ave        2348 max        1179 min
Histogram: 8 0 0 0 24 0 0 0 0 16
Neighs:              0 ave           0 max           0 min
Histogram: 48 0 0 0 0 0 0 0 0 0

Total # of neighbors = 0
Ave neighs/atom = 0
Ave special neighs/atom = 15.567568
Neighbor list builds = 17
Dangerous builds = 0
fix             myat1 all ave/time 1000 10 10000 v_zave v_zdes file simulation_data/abpot/${cpt}.dat
fix             myat1 all ave/time 1000 10 10000 v_zave v_zdes file simulation_data/abpot/4.dat
run             50000
Generated 0 of 1 mixed pair_coeff terms from geometric mixing rule
Per MPI rank memory allocation (min/avg/max) = 13.32 | 13.74 | 14.98 Mbytes
   Step          Temp          E_pair         E_mol          TotEng         Press     
    210000   291.20801      374.34218      18523.254      19314.253     -28.332395    
    211000   287.7978       375.37309      18528.51       19315.661     -109.14744    
    212000   308.11898      379.10915      18507.218      19327.18       67.696213    
    213000   301.69958      373.25799      18530.336      19335.263     -133.95601    
    214000   292.66463      372.89145      18546.907      19338.539     -135.92173    
    215000   308.71359      379.09995      18519.194      19339.998      52.747651    
    216000   309.9131       374.92922      18521.094      19339.443     -37.490298    
    217000   302.95062      379.47507      18521.981      19334.914      54.03964     
    218000   309.01145      373.36057      18516.68       19332.17      -106.73926    
    219000   308.33931      375.02986      18510.29       19326.488      69.266466    
    220000   297.32588      372.70903      18518.972      19317.091      18.371845    
    221000   295.23714      371.25655      18517.373      19311.051     -105.643      
    222000   287.60103      371.64669      18525.511      19308.654     -154.57363    
    223000   285.60381      378.15654      18527.213      19314.008      65.473707    
    224000   292.83213      376.12568      18528.551      19323.657     -57.405254    
    225000   301.11491      368.87931      18537.042      19336.754     -101.61308    
    226000   312.10309      379.54531      18523.42       19349.519     -27.524247    
    227000   309.46471      383.188        18530.125      19356.091      64.141808    
    228000   304.5547       371.60187      18549.261      19356.617     -57.15375     
    229000   303.14133      370.69083      18539.975      19344.397     -36.10485     
    230000   292.22663      365.50571      18544.274      19327.894     -142.43746    
    231000   289.05234      375.57728      18516.447      19305.597     -45.477677    
    232000   290.99788      375.93174      18501.712      19294          16.258252    
    233000   290.73881      375.96495      18502.297      19294.247      23.806605    
    234000   294.94079      371.0316       18511.976      19305.006     -54.35008     
    235000   298.14439      371.26337      18520.703      19318.548     -145.52873    
    236000   296.39193      371.4224       18534.698      19330.194     -67.025591    
    237000   304.06313      376.08529      18530.572      19341.708      6.6053492    
    238000   303.95548      380.02014      18536.187      19351.104      168.86518    
    239000   298.78961      372.77035      18556.472      19356.747     -92.053667    
    240000   302.82487      371.18476      18553.954      19358.417     -83.305572    
    241000   306.36948      376.09771      18539.819      19354.267      63.00003     
    242000   306.46198      377.83776      18520.367      19336.688      54.190984    
    243000   283.9671       372.60545      18530.279      19309.181     -174.84259    
    244000   273.15677      365.83403      18539.844      19296.507     -253.81785    
    245000   279.80103      373.65739      18523.04       19297.033     -45.66608     
    246000   298.02159      374.39637      18506.301      19307.103      21.226043    
    247000   276.07377      370.02325      18552.334      19317.36      -180.29778    
    248000   292.47135      375.78619      18538.237      19332.488     -88.838937    
    249000   305.84767      368.04814      18532.904      19338.555     -162.47765    
    250000   304.19895      381.83209      18526.042      19343.119      141.1804     
    251000   289.18783      375.2162       18554.401      19343.384      91.564028    
    252000   296.07814      371.96064      18547.246      19342.832     -130.76374    
    253000   314.66934      376.49817      18518.881      19345.604      158.94664    
    254000   305.45268      374.22741      18528.882      19340.148     -15.408633    
    255000   300.89038      372.7984       18522.374      19325.683     -9.5273447    
    256000   293.71625      377.38799      18505.362      19302.996      6.7086435    
    257000   296.41038      369.695        18489.577      19283.373     -8.0570074    
    258000   276.91374      367.0973       18516.169      19279.471     -135.80809    
    259000   285.77856      375.62377      18504.321      19288.833      91.248984    
    260000   294.29321      370.27195      18516.716      19308.06      -201.59279    
Loop time of 15.9184 on 48 procs for 50000 steps with 481 atoms

Performance: 13.569 ns/day, 1.769 hours/ns, 3141.013 timesteps/s, 1.511 Matom-step/s
100.0% CPU use with 48 MPI tasks x 1 OpenMP threads

MPI task timing breakdown:
Section |  min time  |  avg time  |  max time  |%varavg| %total
---------------------------------------------------------------
Pair    | 0.017385   | 0.72582    | 4.2654     | 137.0 |  4.56
Bond    | 0.0050595  | 0.91875    | 4.714      | 149.5 |  5.77
Neigh   | 0.030409   | 0.033361   | 0.035697   |   0.8 |  0.21
Comm    | 5.4536     | 11.454     | 14.385     |  90.0 | 71.95
Output  | 0.0080963  | 0.013121   | 0.01853    |   2.8 |  0.08
Modify  | 0.63464    | 2.1838     | 8.6457     | 181.6 | 13.72
Other   |            | 0.5899     |            |       |  3.71

Nlocal:        10.0208 ave          54 max           0 min
Histogram: 24 11 5 0 1 0 3 2 1 1
Nghost:        1818.35 ave        2346 max        1169 min
Histogram: 8 0 0 0 24 0 0 0 0 16
Neighs:              0 ave           0 max           0 min
Histogram: 48 0 0 0 0 0 0 0 0 0

Total # of neighbors = 0
Ave neighs/atom = 0
Ave special neighs/atom = 15.567568
Neighbor list builds = 89
Dangerous builds = 0
unfix           myat1
next            cpt
jump            SELF loop
variable        zdes equal  -15+0.30*(${cpt}-1)
variable        zdes equal  -15+0.30*(5-1)
variable        zave equal xcm(H2,z)
fix             mytth2 H2 spring tether ${k1} 2.5 2.5 ${zdes} 0
fix             mytth2 H2 spring tether 0.5 2.5 2.5 ${zdes} 0
fix             mytth2 H2 spring tether 0.5 2.5 2.5 -13.8 0
run             10000
Generated 0 of 1 mixed pair_coeff terms from geometric mixing rule
Per MPI rank memory allocation (min/avg/max) = 13.32 | 13.74 | 14.98 Mbytes
   Step          Temp          E_pair         E_mol          TotEng         Press     
    260000   294.29321      370.27195      18516.716      19308.06      -201.59279    
    261000   292.17425      372.08295      18534.351      19324.473     -122.11501    
    262000   291.93934      374.72245      18540.994      19333.42      -136.87139    
    263000   283.14237      377.68455      18558.99       19341.792      86.25217     
    264000   299.6527       378.49573      18539.329      19346.565     -44.459501    
    265000   303.54695      371.93436      18542.474      19348.72      -140.28637    
    266000   303.74398      371.24742      18546.764      19352.605     -152.68927    
    267000   309.29168      372.45149      18537.426      19352.408     -30.90968     
    268000   301.2164       382.75588      18529.832      19343.565      211.60947    
    269000   297.22534      371.13789      18533.588      19329.993     -275.47629    
    270000   293.78239      368.64524      18523.289      19312.275     -190.52864    
Loop time of 3.08623 on 48 procs for 10000 steps with 481 atoms

Performance: 13.998 ns/day, 1.715 hours/ns, 3240.203 timesteps/s, 1.559 Matom-step/s
100.0% CPU use with 48 MPI tasks x 1 OpenMP threads

MPI task timing breakdown:
Section |  min time  |  avg time  |  max time  |%varavg| %total
---------------------------------------------------------------
Pair    | 0.0034473  | 0.14546    | 0.81214    |  60.8 |  4.71
Bond    | 0.0010047  | 0.18363    | 0.90806    |  66.6 |  5.95
Neigh   | 0.0059948  | 0.0065963  | 0.0070618  |   0.4 |  0.21
Comm    | 1.0562     | 2.2023     | 2.7811     |  39.5 | 71.36
Output  | 0.0016321  | 0.0026634  | 0.0037232  |   1.3 |  0.09
Modify  | 0.12655    | 0.42733    | 1.6479     |  77.4 | 13.85
Other   |            | 0.1183     |            |       |  3.83

Nlocal:        10.0208 ave          49 max           0 min
Histogram: 23 10 7 0 0 0 3 1 3 1
Nghost:        1818.35 ave        2347 max        1174 min
Histogram: 8 0 0 0 24 0 0 0 0 16
Neighs:              0 ave           0 max           0 min
Histogram: 48 0 0 0 0 0 0 0 0 0

Total # of neighbors = 0
Ave neighs/atom = 0
Ave special neighs/atom = 15.567568
Neighbor list builds = 18
Dangerous builds = 0
fix             myat1 all ave/time 1000 10 10000 v_zave v_zdes file simulation_data/abpot/${cpt}.dat
fix             myat1 all ave/time 1000 10 10000 v_zave v_zdes file simulation_data/abpot/5.dat
run             50000
Generated 0 of 1 mixed pair_coeff terms from geometric mixing rule
Per MPI rank memory allocation (min/avg/max) = 13.32 | 13.74 | 14.98 Mbytes
   Step          Temp          E_pair         E_mol          TotEng         Press     
    270000   293.78239      368.64524      18523.289      19312.275     -190.52864    
    271000   304.21692      377.23481      18490.408      19302.913     -42.442541    
    272000   265.63297      376.87929      18542.563      19299.507     -41.312047    
    273000   280.67367      375.23209      18530.206      19307.023      56.680103    
    274000   297.30604      368.30915      18529.298      19322.989     -115.67759    
    275000   305.26947      370.31321      18536.511      19343.6       -239.43847    
    276000   305.79022      377.75711      18539.396      19354.674      44.301622    
    277000   310.503        382.76821      18523.871      19350.903      211.54918    
    278000   292.58349      373.64099      18557.272      19349.539     -39.160001    
    279000   309.05131      368.68938      18538.739      19349.615     -252.69588    
    280000   311.74262      371.31568      18524.655      19342.009     -34.136154    
    281000   307.37226      381.35579      18510.812      19331.952      37.705413    
    282000   308.65697      378.88251      18500.695      19321.201      148.86652    
    283000   296.42826      372.904        18516.027      19313.057      48.604075    
    284000   277.66247      368.03751      18537.094      19302.408     -289.45368    
    285000   288.1235       374.53383      18505.034      19291.812      52.087475    
    286000   283.93337      390.14268      18489.725      19286.117      397.24431    
    287000   285.58021      371.62135      18505.98       19286.206     -148.45727    
    288000   263.70857      361.26468      18563.54       19302.116     -313.40178    
    289000   303.06626      374.89127      18517.369      19325.884      138.08984    
    290000   309.44798      376.81558      18519.109      19338.68       12.023812    
    291000   308.64262      379.77385      18524.306      19345.683      49.829461    
    292000   307.74915      370.7466       18538.272      19349.342     -86.383037    
    293000   303.73267      362.89534      18554.235      19351.707     -305.8174     
    294000   308.23171      375.60767      18534.787      19351.409      119.51099    
    295000   300.86064      377.4418       18535.828      19343.738      243.49614    
    296000   304.83457      370.52755      18525.033      19331.714     -143.73776    
    297000   309.42605      371.62994      18506.652      19321.006     -17.065565    
    298000   295.47327      370.26932      18516.059      19309.088      15.091052    
    299000   292.36084      375.22068      18513.763      19307.291      62.350566    
    300000   284.98219      379.61796      18529.371      19316.738      89.814412    
    301000   289.74189      379.25395      18543.157      19336.97       49.073376    
    302000   279.55755      372.42224      18582.733      19355.143     -140.10319    
    303000   295.93643      374.57441      18566.441      19364.438     -35.785438    
    304000   305.06817      377.30863      18554.205      19368.002     -51.36845     
    305000   286.57046      375.53192      18583.697      19369.251     -111.01205    
    306000   315.84276      373.56874      18539.657      19365.13      -169.6555     
    307000   306.52315      375.47707      18535.822      19349.869     -70.770255    
    308000   296.74903      372.59914      18536.576      19333.76      -17.252233    
    309000   290.60431      369.06015      18534.413      19319.267     -54.779655    
    310000   302.83757      371.76258      18508.063      19313.123     -62.671341    
    311000   275.73997      373.52875      18544.308      19312.363     -71.031721    
    312000   282.40967      376.5341       18541.009      19321.612     -10.73562     
    313000   294.44371      380.64455      18528.293      19330.224      160.96016    
    314000   299.28571      364.33494      18544.544      19337.093     -271.11555    
    315000   295.88156      368.03237      18552.217      19343.593     -134.77732    
    316000   289.83293      378.41047      18555.05       19348.15       26.221801    
    317000   295.11914      380.29555      18550.076      19352.625      92.574494    
    318000   302.1686       377.48651      18551.371      19361.196     -19.939031    
    319000   313.67335      368.0554       18551.488      19368.343     -181.26164    
    320000   308.75252      371.28081      18559.739      19372.78      -82.176181    
Loop time of 15.7408 on 48 procs for 50000 steps with 481 atoms

Performance: 13.722 ns/day, 1.749 hours/ns, 3176.454 timesteps/s, 1.528 Matom-step/s
100.0% CPU use with 48 MPI tasks x 1 OpenMP threads

MPI task timing breakdown:
Section |  min time  |  avg time  |  max time  |%varavg| %total
---------------------------------------------------------------
Pair    | 0.017317   | 0.72543    | 4.3784     | 136.2 |  4.61
Bond    | 0.005009   | 0.91846    | 4.4779     | 148.9 |  5.83
Neigh   | 0.024015   | 0.026395   | 0.028361   |   0.7 |  0.17
Comm    | 5.884      | 11.283     | 14.224     |  89.2 | 71.68
Output  | 0.0079935  | 0.01297    | 0.018197   |   2.8 |  0.08
Modify  | 0.63021    | 2.183      | 8.5204     | 178.9 | 13.87
Other   |            | 0.5913     |            |       |  3.76

Nlocal:        10.0208 ave          50 max           0 min
Histogram: 21 12 7 0 0 1 2 1 2 2
Nghost:        1818.35 ave        2347 max        1173 min
Histogram: 8 0 0 0 24 0 0 0 0 16
Neighs:              0 ave           0 max           0 min
Histogram: 48 0 0 0 0 0 0 0 0 0

Total # of neighbors = 0
Ave neighs/atom = 0
Ave special neighs/atom = 15.567568
Neighbor list builds = 71
Dangerous builds = 0
unfix           myat1
next            cpt
jump            SELF loop
variable        zdes equal  -15+0.30*(${cpt}-1)
variable        zdes equal  -15+0.30*(6-1)
variable        zave equal xcm(H2,z)
fix             mytth2 H2 spring tether ${k1} 2.5 2.5 ${zdes} 0
fix             mytth2 H2 spring tether 0.5 2.5 2.5 ${zdes} 0
fix             mytth2 H2 spring tether 0.5 2.5 2.5 -13.5 0
run             10000
Generated 0 of 1 mixed pair_coeff terms from geometric mixing rule
Per MPI rank memory allocation (min/avg/max) = 13.32 | 13.74 | 14.98 Mbytes
   Step          Temp          E_pair         E_mol          TotEng         Press     
    320000   308.75252      371.28081      18559.739      19372.78      -82.176181    
    321000   318.52317      374.69973      18538.499      19368.938      8.9421032    
    322000   295.97734      382.7292       18548.895      19355.105      198.05583    
    323000   291.50666      366.51725      18555.406      19339.008     -371.16243    
    324000   285.93435      370.85568      18544.466      19324.434     -35.919701    
    325000   290.60666      378.93748      18522.52       19317.255      89.479517    
    326000   300.22505      377.21024      18512.733      19319.502     -37.078832    
    327000   295.20069      376.72156      18521.279      19320.37       54.282836    
    328000   283.67313      374.8273       18549.579      19330.283     -39.196095    
    329000   305.58721      375.40904      18541.931      19354.57      -38.42148     
    330000   306.98529      371.44295      18561.438      19372.112     -72.906578    
Loop time of 3.17247 on 48 procs for 10000 steps with 481 atoms

Performance: 13.617 ns/day, 1.762 hours/ns, 3152.115 timesteps/s, 1.516 Matom-step/s
100.0% CPU use with 48 MPI tasks x 1 OpenMP threads

MPI task timing breakdown:
Section |  min time  |  avg time  |  max time  |%varavg| %total
---------------------------------------------------------------
Pair    | 0.0034606  | 0.14502    | 0.89593    |  61.0 |  4.57
Bond    | 0.0010012  | 0.18386    | 0.95666    |  67.1 |  5.80
Neigh   | 0.0072129  | 0.0078961  | 0.0084354  |   0.4 |  0.25
Comm    | 1.132      | 2.2823     | 2.8649     |  40.2 | 71.94
Output  | 0.0016492  | 0.0026862  | 0.0038076  |   1.3 |  0.08
Modify  | 0.12495    | 0.43213    | 1.7304     |  81.5 | 13.62
Other   |            | 0.1186     |            |       |  3.74

Nlocal:        10.0208 ave          45 max           0 min
Histogram: 25 5 9 1 0 0 1 2 1 4
Nghost:        1818.35 ave        2347 max        1178 min
Histogram: 8 0 0 0 24 0 0 0 0 16
Neighs:              0 ave           0 max           0 min
Histogram: 48 0 0 0 0 0 0 0 0 0

Total # of neighbors = 0
Ave neighs/atom = 0
Ave special neighs/atom = 15.567568
Neighbor list builds = 21
Dangerous builds = 0
fix             myat1 all ave/time 1000 10 10000 v_zave v_zdes file simulation_data/abpot/${cpt}.dat
fix             myat1 all ave/time 1000 10 10000 v_zave v_zdes file simulation_data/abpot/6.dat
run             50000
Generated 0 of 1 mixed pair_coeff terms from geometric mixing rule
Per MPI rank memory allocation (min/avg/max) = 13.32 | 13.74 | 14.98 Mbytes
   Step          Temp          E_pair         E_mol          TotEng         Press     
    330000   306.98529      371.44295      18561.438      19372.112     -72.906578    
    331000   288.08214      379.79844      18580.261      19372.244      63.548683    
    332000   312.80596      373.97756      18550.348      19371.885      43.806647    
    333000   315.15572      369.88724      18544.25       19365.059     -88.518185    
    334000   298.63748      373.34439      18553.102      19353.734     -112.8445     
    335000   310.40281      367.94455      18529.851      19341.916     -133.04677    
    336000   311.8861       377.72266      18507.395      19331.361      222.36158    
    337000   293.52715      374.91121      18529.43       19324.316     -57.937479    
    338000   305.54074      364.73706      18523.144      19325.045     -110.86449    
    339000   304.71352      371.57819      18517.695      19325.254     -18.361836    
    340000   297.64802      369.46502      18530.09       19325.426     -167.70044    
    341000   307.49143      381.74688      18505.712      19327.414      267.9754     
    342000   295.22914      374.64286      18531.976      19329.03      -66.232418    
    343000   297.48175      366.63036      18537.749      19330.013     -61.400753    
    344000   294.38535      368.9836       18541.719      19331.906     -182.80119    
    345000   294.11654      379.08963      18535.779      19335.687      108.98275    
    346000   298.02001      377.69983      18535.924      19340.027      155.05255    
    347000   281.68889      367.92713      18575.635      19346.6       -240.29806    
    348000   304.9317       362.71116      18557.249      19356.253     -387.54568    
    349000   318.16036      375.98677      18536.443      19367.65      -30.459292    
    350000   311.23846      384.37076      18544.223      19373.91       291.56756    
    351000   315.06699      373.02673      18553.375      19377.196     -99.477225    
    352000   308.36139      365.70632      18560.438      19367.344     -338.20104    
    353000   294.01942      368.77999      18554.567      19344.027     -153.47202    
    354000   300.33966      378.86054      18519.557      19328.14      -13.146062    
    355000   300.22875      392.17766      18499.876      19321.618      429.28588    
    356000   302.00735      363.84251      18525.407      19321.358     -265.05107    
    357000   312.46291      369.70923      18512.733      19329.511     -89.616932    
    358000   296.83881      375.7989       18538.056      19338.569     -5.7452882    
    359000   298.40447      380.50031      18541          19348.454      154.86458    
    360000   309.4389       379.38514      18541.613      19363.74       68.102576    
    361000   319.92446      374.02357      18550.953      19382.721     -76.771007    
    362000   307.84336      369.97148      18582.194      19392.624     -75.185417    
    363000   316.46556      375.21748      18564.103      19392.116     -148.05199    
    364000   307.16725      381.9656       18542.606      19364.063      172.22306    
    365000   293.78106      378.91716      18535.198      19334.454      51.989276    
    366000   299.27422      369.81603      18528.545      19326.559     -81.982744    
    367000   301.53884      370.92326      18524.09       19326.451     -97.943062    
    368000   306.54352      376.77727      18510.391      19325.767     -20.390067    
    369000   281.04894      375.30141      18552.541      19329.965      76.227467    
    370000   290.38858      380.50837      18542.489      19338.483      42.59593     
    371000   322.02155      366.81841      18526.382      19353.945     -131.41419    
    372000   313.15843      362.79774      18549.681      19360.543     -342.57999    
    373000   310.1282       381.49265      18538.238      19363.459      96.916485    
    374000   306.65794      378.36664      18548.447      19365.577     -37.773759    
    375000   299.24601      374.5048       18559.603      19362.266     -70.566819    
    376000   300.58731      369.99119      18557.509      19357.577     -35.884236    
    377000   294.95966      370.4295       18551.787      19344.242     -211.11533    
    378000   290.0595       376.51577      18538.297      19329.827      88.59697     
    379000   273.35865      383.37444      18541.546      19316.039      119.43623    
    380000   291.53202      362.84204      18534.007      19313.97      -359.4051     
Loop time of 15.9147 on 48 procs for 50000 steps with 481 atoms

Performance: 13.572 ns/day, 1.768 hours/ns, 3141.759 timesteps/s, 1.511 Matom-step/s
100.0% CPU use with 48 MPI tasks x 1 OpenMP threads

MPI task timing breakdown:
Section |  min time  |  avg time  |  max time  |%varavg| %total
---------------------------------------------------------------
Pair    | 0.017425   | 0.72402    | 4.2832     | 135.6 |  4.55
Bond    | 0.0050147  | 0.91959    | 4.5889     | 149.4 |  5.78
Neigh   | 0.024928   | 0.027361   | 0.029354   |   0.7 |  0.17
Comm    | 6.1282     | 11.438     | 14.399     |  90.2 | 71.87
Output  | 0.0081181  | 0.013066   | 0.01818    |   2.8 |  0.08
Modify  | 0.63014    | 2.1998     | 8.7317     | 183.2 | 13.82
Other   |            | 0.593      |            |       |  3.73

Nlocal:        10.0208 ave          47 max           0 min
Histogram: 25 7 7 1 0 2 0 1 1 4
Nghost:        1818.35 ave        2347 max        1178 min
Histogram: 8 0 0 0 24 0 0 0 0 16
Neighs:              0 ave           0 max           0 min
Histogram: 48 0 0 0 0 0 0 0 0 0

Total # of neighbors = 0
Ave neighs/atom = 0
Ave special neighs/atom = 15.567568
Neighbor list builds = 72
Dangerous builds = 0
unfix           myat1
next            cpt
jump            SELF loop
variable        zdes equal  -15+0.30*(${cpt}-1)
variable        zdes equal  -15+0.30*(7-1)
variable        zave equal xcm(H2,z)
fix             mytth2 H2 spring tether ${k1} 2.5 2.5 ${zdes} 0
fix             mytth2 H2 spring tether 0.5 2.5 2.5 ${zdes} 0
fix             mytth2 H2 spring tether 0.5 2.5 2.5 -13.2 0
run             10000
Generated 0 of 1 mixed pair_coeff terms from geometric mixing rule
Per MPI rank memory allocation (min/avg/max) = 13.32 | 13.74 | 14.98 Mbytes
   Step          Temp          E_pair         E_mol          TotEng         Press     
    380000   291.53202      362.84204      18534.007      19313.97      -359.4051     
    381000   287.84122      370.70487      18538.097      19320.642     -23.369832    
    382000   284.60697      378.17027      18550.821      19336.204      32.460379    
    383000   304.89191      375.65046      18542.635      19354.521      71.243398    
    384000   299.00144      373.8017       18560.121      19361.731     -93.430766    
    385000   311.69454      370.70712      18543.82       19360.496     -238.18011    
    386000   299.28806      370.7629       18560.326      19359.307      1.9158352    
    387000   293.68822      383.56394      18550.454      19354.223      43.831214    
    388000   296.42532      372.91808      18552.889      19349.929     -61.363107    
    389000   309.08416      369.22266      18535.054      19346.511     -42.996573    
    390000   295.65663      373.77731      18536.801      19333.6       -52.856985    
Loop time of 3.19673 on 48 procs for 10000 steps with 481 atoms

Performance: 13.514 ns/day, 1.776 hours/ns, 3128.196 timesteps/s, 1.505 Matom-step/s
100.0% CPU use with 48 MPI tasks x 1 OpenMP threads

MPI task timing breakdown:
Section |  min time  |  avg time  |  max time  |%varavg| %total
---------------------------------------------------------------
Pair    | 0.0034727  | 0.14518    | 0.88593    |  61.3 |  4.54
Bond    | 0.0010052  | 0.18365    | 0.94024    |  66.6 |  5.75
Neigh   | 0.004208   | 0.0046065  | 0.0049362  |   0.3 |  0.14
Comm    | 1.1666     | 2.2992     | 2.9041     |  40.9 | 71.92
Output  | 0.0016392  | 0.0026397  | 0.0036805  |   1.3 |  0.08
Modify  | 0.12286    | 0.44342    | 1.7611     |  83.3 | 13.87
Other   |            | 0.1181     |            |       |  3.69

Nlocal:        10.0208 ave          50 max           0 min
Histogram: 22 10 8 0 0 2 0 2 2 2
Nghost:        1818.35 ave        2347 max        1173 min
Histogram: 8 0 0 0 24 0 0 0 0 16
Neighs:              0 ave           0 max           0 min
Histogram: 48 0 0 0 0 0 0 0 0 0

Total # of neighbors = 0
Ave neighs/atom = 0
Ave special neighs/atom = 15.567568
Neighbor list builds = 12
Dangerous builds = 0
fix             myat1 all ave/time 1000 10 10000 v_zave v_zdes file simulation_data/abpot/${cpt}.dat
fix             myat1 all ave/time 1000 10 10000 v_zave v_zdes file simulation_data/abpot/7.dat
run             50000
Generated 0 of 1 mixed pair_coeff terms from geometric mixing rule
Per MPI rank memory allocation (min/avg/max) = 13.32 | 13.74 | 14.98 Mbytes
   Step          Temp          E_pair         E_mol          TotEng         Press     
    390000   295.65663      373.77731      18536.801      19333.6       -52.856985    
    391000   291.65483      376.65861      18519.334      19313.29      -16.338911    
    392000   282.37679      376.49017      18517.259      19297.771      27.79341     
    393000   286.1318       371.64618      18514.571      19295.611     -133.52125    
    394000   295.02309      370.16783      18515.36       19307.643     -30.96874     
    395000   285.87442      372.25364      18546.43       19327.71      -198.35483    
    396000   293.05583      378.54752      18545.318      19343.167      108.78165    
    397000   297.32385      377.01719      18542.795      19345.22      -40.88394     
    398000   302.73224      366.12041      18543.11       19342.376     -268.81397    
    399000   299.41246      378.7938       18535.957      19343.147      57.769924    
    400000   292.91296      381.34334      18545.245      19345.684      21.165282    
    401000   302.7546       377.78958      18536.763      19347.73       94.041616    
    402000   303.84663      371.58393      18543.674      19349.999     -185.87893    
    403000   289.89335      369.81269      18563.014      19347.603     -103.32433    
    404000   298.5872       375.68809      18540.341      19343.244     -58.462001    
    405000   300.13251      380.64546      18526.915      19336.987      98.326422    
    406000   280.85176      379.48167      18550.391      19331.712      126.92202    
    407000   293.29757      367.57745      18537.931      19325.155     -149.1105     
    408000   284.58946      375.92492      18538.862      19321.974      52.684969    
    409000   308.97873      376.35425      18509.033      19327.47       108.60838    
    410000   305.5289       376.19945      18528.542      19341.889      77.970614    
    411000   307.76114      374.04461      18545.276      19359.661     -64.92142     
    412000   299.98649      368.60762      18576.04       19373.865     -177.2919     
    413000   318.47973      377.47734      18545.416      19378.571      83.19256     
    414000   301.99372      380.1786       18558.453      19370.721      66.716359    
    415000   293.91488      373.30395      18570.47       19364.304     -199.6985     
    416000   315.69601      369.30929      18532.579      19353.583     -216.42256    
    417000   298.59111      373.48601      18542.029      19342.736     -56.212717    
    418000   286.03296      375.03667      18547.42       19331.71      -12.28299     
    419000   306.90796      375.98224      18510.231      19325.334      21.237866    
    420000   271.89404      374.91177      18562.257      19326.191     -159.43941    
    421000   289.32755      373.13782      18542.443      19329.547     -68.321781    
    422000   290.32112      375.4144       18541.461      19332.264     -62.70955     
    423000   288.17088      374.70039      18551.943      19338.956      28.080783    
    424000   292.58675      377.19969      18548.604      19344.433     -79.185272    
    425000   305.73199      371.2894       18543.918      19352.645      66.107737    
    426000   304.02909      375.05436      18549.651      19359.707      26.704996    
    427000   301.23671      374.96061      18559.81       19365.776     -29.704317    
    428000   313.47512      379.72439      18540.024      19368.265      114.86379    
    429000   316.33924      374.59897      18532.4        19359.613      43.484104    
    430000   293.87179      372.6708       18547.89       19341.029     -154.45109    
    431000   290.58269      373.33216      18533.739      19322.833      23.609125    
    432000   288.90129      375.84157      18525.468      19314.666      38.952116    
    433000   284.16068      376.1212       18531.188      19313.883      52.712538    
    434000   282.86478      374.81453      18539.602      19319.137     -97.646047    
    435000   306.71801      368.38371      18525.769      19333.002     -116.51498    
    436000   298.42703      372.58503      18547.166      19346.737     -41.073073    
    437000   298.72048      375.51102      18557.971      19360.888      8.6760454    
    438000   321.6537       373.86627      18530.326      19364.411     -90.686438    
    439000   305.9648       379.33756      18544.357      19361.466      58.873968    
    440000   304.12446      373.33246      18547.658      19356.128     -100.11068    
Loop time of 15.8208 on 48 procs for 50000 steps with 481 atoms

Performance: 13.653 ns/day, 1.758 hours/ns, 3160.391 timesteps/s, 1.520 Matom-step/s
100.0% CPU use with 48 MPI tasks x 1 OpenMP threads

MPI task timing breakdown:
Section |  min time  |  avg time  |  max time  |%varavg| %total
---------------------------------------------------------------
Pair    | 0.017493   | 0.72379    | 4.243      | 136.5 |  4.57
Bond    | 0.0050182  | 0.91928    | 4.5405     | 149.4 |  5.81
Neigh   | 0.025528   | 0.027936   | 0.029932   |   0.7 |  0.18
Comm    | 5.5977     | 11.439     | 14.299     |  90.4 | 72.30
Output  | 0.0080367  | 0.013028   | 0.018312   |   2.8 |  0.08
Modify  | 0.63631    | 2.107      | 8.5727     | 183.4 | 13.32
Other   |            | 0.5911     |            |       |  3.74

Nlocal:        10.0208 ave          45 max           0 min
Histogram: 22 7 11 0 0 0 1 2 3 2
Nghost:        1818.35 ave        2347 max        1178 min
Histogram: 8 0 0 0 24 0 0 0 0 16
Neighs:              0 ave           0 max           0 min
Histogram: 48 0 0 0 0 0 0 0 0 0

Total # of neighbors = 0
Ave neighs/atom = 0
Ave special neighs/atom = 15.567568
Neighbor list builds = 72
Dangerous builds = 0
unfix           myat1
next            cpt
jump            SELF loop
variable        zdes equal  -15+0.30*(${cpt}-1)
variable        zdes equal  -15+0.30*(8-1)
variable        zave equal xcm(H2,z)
fix             mytth2 H2 spring tether ${k1} 2.5 2.5 ${zdes} 0
fix             mytth2 H2 spring tether 0.5 2.5 2.5 ${zdes} 0
fix             mytth2 H2 spring tether 0.5 2.5 2.5 -12.9 0
run             10000
Generated 0 of 1 mixed pair_coeff terms from geometric mixing rule
Per MPI rank memory allocation (min/avg/max) = 13.32 | 13.74 | 14.98 Mbytes
   Step          Temp          E_pair         E_mol          TotEng         Press     
    440000   304.12446      373.33246      18547.658      19356.128     -100.11068    
    441000   293.02546      377.91572      18552.131      19349.305     -56.064069    
    442000   297.87725      374.34114      18541.996      19342.536      36.34776     
    443000   301.23554      371.57935      18532.359      19334.943     -162.66395    
    444000   290.31546      371.90723      18538.525      19325.812     -143.53267    
    445000   279.56737      376.19838      18539.31       19315.511      68.964686    
    446000   290.79961      374.68598      18522.437      19313.196      76.284918    
    447000   298.94144      366.81646      18524.145      19318.684     -214.02687    
    448000   285.06233      376.40622      18546.664      19330.934      32.077619    
    449000   296.94983      376.3452       18548.647      19349.865     -43.016636    
    450000   308.45995      384.64154      18539.784      19365.767      222.01893    
Loop time of 3.20277 on 48 procs for 10000 steps with 481 atoms

Performance: 13.488 ns/day, 1.779 hours/ns, 3122.294 timesteps/s, 1.502 Matom-step/s
100.0% CPU use with 48 MPI tasks x 1 OpenMP threads

MPI task timing breakdown:
Section |  min time  |  avg time  |  max time  |%varavg| %total
---------------------------------------------------------------
Pair    | 0.0034826  | 0.14522    | 0.87823    |  61.1 |  4.53
Bond    | 0.0010299  | 0.18419    | 0.9849     |  67.1 |  5.75
Neigh   | 0.0075205  | 0.0082363  | 0.0088312  |   0.4 |  0.26
Comm    | 1.1231     | 2.3163     | 2.894      |  41.0 | 72.32
Output  | 0.0016156  | 0.0026371  | 0.0036867  |   1.3 |  0.08
Modify  | 0.12511    | 0.4287     | 1.7609     |  84.1 | 13.39
Other   |            | 0.1175     |            |       |  3.67

Nlocal:        10.0208 ave          51 max           0 min
Histogram: 21 18 1 0 0 1 3 1 1 2
Nghost:        1818.35 ave        2347 max        1172 min
Histogram: 8 0 0 0 24 0 0 0 0 16
Neighs:              0 ave           0 max           0 min
Histogram: 48 0 0 0 0 0 0 0 0 0

Total # of neighbors = 0
Ave neighs/atom = 0
Ave special neighs/atom = 15.567568
Neighbor list builds = 22
Dangerous builds = 0
fix             myat1 all ave/time 1000 10 10000 v_zave v_zdes file simulation_data/abpot/${cpt}.dat
fix             myat1 all ave/time 1000 10 10000 v_zave v_zdes file simulation_data/abpot/8.dat
run             50000
Generated 0 of 1 mixed pair_coeff terms from geometric mixing rule
Per MPI rank memory allocation (min/avg/max) = 13.32 | 13.74 | 14.98 Mbytes
   Step          Temp          E_pair         E_mol          TotEng         Press     
    450000   308.45995      384.64154      18539.784      19365.767      222.01893    
    451000   320.70226      374.86712      18537.122      19370.846      45.601356    
    452000   323.63374      370.63869      18533.422      19367.112     -142.20415    
    453000   315.14014      372.54304      18533.071      19356.513     -125.8788     
    454000   299.51759      384.3115       18525.162      19338.02       209.3635     
    455000   291.62452      372.91236      18528.317      19318.483     -35.436044    
    456000   298.61629      370.37879      18514.992      19312.627     -205.70058    
    457000   282.18784      369.3199       18542.981      19316.052     -165.36905    
    458000   297.68249      377.45881      18516.451      19319.831      232.12392    
    459000   298.24093      372.45383      18524.803      19323.976     -119.93733    
    460000   301.37973      368.46669      18534.751      19334.428     -122.99851    
    461000   302.18901      373.11569      18538.467      19343.951      38.654036    
    462000   319.38291      371.15063      18523.056      19351.176     -59.403261    
    463000   308.54311      377.70471      18534.828      19353.993      63.928063    
    464000   310.44881      374.49125      18534.645      19353.323     -5.9782327    
    465000   291.79274      368.4098       18565.224      19351.127     -99.702348    
    466000   307.99895      371.10688      18540.761      19352.55      -108.42923    
    467000   306.56757      375.03109      18537.058      19350.722      34.155798    
    468000   292.8552       372.21786      18553.251      19344.482     -130.84398    
[...]
   2951000   297.15653      373.63196      18489.968      19288.768      17.853262    
   2952000   287.17087      372.08984      18524.266      19307.237     -101.48902    
   2953000   293.88098      362.15273      18539.089      19321.724     -285.77718    
   2954000   305.81537      373.11135      18516.738      19327.407      68.746019    
   2955000   301.7054       379.45511      18512.125      19323.256      110.90968    
   2956000   316.6295       375.10962      18491.655      19319.794      104.21494    
   2957000   297.61968      362.62854      18528.218      19316.678     -289.52113    
   2958000   307.51592      371.31091      18499.845      19311.146      59.268718    
   2959000   289.98325      374.20346      18513.429      19302.538      142.30567    
   2960000   305.58927      369.03751      18482.889      19289.16       2.289841     
Loop time of 16.0188 on 48 procs for 50000 steps with 481 atoms

Performance: 13.484 ns/day, 1.780 hours/ns, 3121.323 timesteps/s, 1.501 Matom-step/s
100.0% CPU use with 48 MPI tasks x 1 OpenMP threads

MPI task timing breakdown:
Section |  min time  |  avg time  |  max time  |%varavg| %total
---------------------------------------------------------------
Pair    | 0.016707   | 0.71033    | 4.7196     | 135.3 |  4.43
Bond    | 0.0048864  | 0.89493    | 4.2351     | 146.2 |  5.59
Neigh   | 0.021723   | 0.023791   | 0.025686   |   0.7 |  0.15
Comm    | 5.8978     | 11.635     | 14.468     |  88.4 | 72.63
Output  | 0.0079883  | 0.013533   | 0.01864    |   2.9 |  0.08
Modify  | 0.66476    | 2.1594     | 8.532      | 182.9 | 13.48
Other   |            | 0.5818     |            |       |  3.63

Nlocal:        10.0208 ave          50 max           0 min
Histogram: 26 7 7 0 1 0 1 3 2 1
Nghost:        1818.35 ave        2347 max        1181 min
Histogram: 8 0 0 0 24 0 0 0 0 16
Neighs:              0 ave           0 max           0 min
Histogram: 48 0 0 0 0 0 0 0 0 0

Total # of neighbors = 0
Ave neighs/atom = 0
Ave special neighs/atom = 15.567568
Neighbor list builds = 66
Dangerous builds = 0
unfix           myat1
next            cpt
jump            SELF loop
variable        zdes equal  -15+0.30*(${cpt}-1)
variable        zdes equal  -15+0.30*(50-1)
variable        zave equal xcm(H2,z)
fix             mytth2 H2 spring tether ${k1} 2.5 2.5 ${zdes} 0
fix             mytth2 H2 spring tether 0.5 2.5 2.5 ${zdes} 0
fix             mytth2 H2 spring tether 0.5 2.5 2.5 -0.300000000000001 0
run             10000
Generated 0 of 1 mixed pair_coeff terms from geometric mixing rule
Per MPI rank memory allocation (min/avg/max) = 13.32 | 13.8 | 14.98 Mbytes
   Step          Temp          E_pair         E_mol          TotEng         Press     
   2960000   305.58927      369.03751      18482.889      19289.16       2.289841     
   2961000   287.43194      366.8769       18500.712      19278.844     -100.8785     
   2962000   271.46594      367.48051      18516.998      19272.889     -163.41747    
   2963000   284.93605      370.83812      18499.347      19277.868      54.945419    
   2964000   291.49523      378.87994      18499.987      19295.936      221.24675    
   2965000   303.51962      355.65193      18531.295      19321.219     -467.80001    
   2966000   305.25241      372.43502      18525.131      19334.317     -27.29772     
   2967000   310.60279      371.0462       18523.046      19338.499      12.861918    
   2968000   295.63491      375.23332      18537.061      19335.285      87.372677    
   2969000   294.79247      369.13558      18536.189      19327.11      -79.761101    
   2970000   309.00693      364.30973      18510.549      19316.982     -190.32544    
Loop time of 3.31203 on 48 procs for 10000 steps with 481 atoms

Performance: 13.043 ns/day, 1.840 hours/ns, 3019.293 timesteps/s, 1.452 Matom-step/s
100.0% CPU use with 48 MPI tasks x 1 OpenMP threads

MPI task timing breakdown:
Section |  min time  |  avg time  |  max time  |%varavg| %total
---------------------------------------------------------------
Pair    | 0.0033197  | 0.14193    | 0.95949    |  61.0 |  4.29
Bond    | 0.00098827 | 0.17924    | 0.85644    |  65.6 |  5.41
Neigh   | 0.0042136  | 0.0046006  | 0.0049571  |   0.3 |  0.14
Comm    | 1.2439     | 2.4213     | 3.0082     |  40.9 | 73.11
Output  | 0.0016503  | 0.0027099  | 0.0036887  |   1.2 |  0.08
Modify  | 0.12981    | 0.44581    | 1.8045     |  87.0 | 13.46
Other   |            | 0.1165     |            |       |  3.52

Nlocal:        10.0208 ave          60 max           0 min
Histogram: 25 13 2 2 0 2 0 1 2 1
Nghost:        1818.88 ave        2346 max        1163 min
Histogram: 8 0 0 0 24 0 0 0 0 16
Neighs:              0 ave           0 max           0 min
Histogram: 48 0 0 0 0 0 0 0 0 0

Total # of neighbors = 0
Ave neighs/atom = 0
Ave special neighs/atom = 15.567568
Neighbor list builds = 12
Dangerous builds = 0
fix             myat1 all ave/time 1000 10 10000 v_zave v_zdes file simulation_data/abpot/${cpt}.dat
fix             myat1 all ave/time 1000 10 10000 v_zave v_zdes file simulation_data/abpot/50.dat
run             50000
Generated 0 of 1 mixed pair_coeff terms from geometric mixing rule
Per MPI rank memory allocation (min/avg/max) = 13.32 | 13.8 | 14.98 Mbytes
   Step          Temp          E_pair         E_mol          TotEng         Press     
   2970000   309.00693      364.30973      18510.549      19316.982     -190.32544    
   2971000   303.20172      371.26344      18493.479      19298.561     -82.572493    
   2972000   297.9065       378.24085      18477.825      19282.308      158.72593    
   2973000   294.24673      368.43044      18485.872      19275.307      10.468152    
   2974000   298.89115      362.45628      18490.135      19280.242     -144.04897    
   2975000   297.29107      372.65676      18494.166      19292.184     -23.324736    
   2976000   294.03113      371.71602      18516.237      19308.649      42.35161     
   2977000   305.30682      382.49869      18503.199      19322.527      131.31466    
   2978000   303.48564      371.09988      18519.725      19325.048      54.737801    
   2979000   303.82611      363.35322      18520.477      19318.541     -158.28495    
   2980000   305.97453      369.88863      18508.652      19316.325     -80.81094     
   2981000   286.91072      387.20597      18518.276      19315.991      384.58749    
   2982000   292.96943      371.81446      18523.008      19314         -65.924699    
   2983000   290.96221      367.17897      18523.988      19307.473     -168.86122    
   2984000   303.77949      366.8262       18502.321      19303.791     -89.17016     
   2985000   294.21216      375.62733      18495.236      19291.818      7.8270957    
   2986000   295.93328      379.36704      18480.384      19283.169      48.219606    
   2987000   287.78558      367.75915      18504.985      19284.505     -92.16679     
   2988000   293.92985      362.91382      18508.898      19292.363     -220.60987    
   2989000   291.30764      367.50241      18517.712      19302.014     -95.997709    
   2990000   298.58042      379.40884      18512.838      19319.453      248.30961    
   2991000   301.81414      371.84026      18533.213      19336.886     -61.684103    
   2992000   313.15897      371.68172      18525.575      19345.322     -74.523355    
   2993000   319.00936      362.42688      18520.325      19339.187     -240.05407    
   2994000   307.95314      369.40507      18520.594      19330.615     -70.946458    
   2995000   298.15438      384.14655      18506.127      19316.869      283.1708     
   2996000   299.48727      368.46696      18508.477      19305.447     -50.584042    
   2997000   288.87136      365.03706      18515.665      19294.016     -237.27741    
   2998000   295.8917       369.94859      18497.869      19291.176      29.355356    
   2999000   288.34487      372.78223      18509.802      19295.145     -31.131594    
   3000000   294.78157      381.48612      18498.301      19301.557      142.32391    
   3001000   305.58713      364.52313      18503.558      19305.312     -219.92491    
   3002000   294.31558      367.69649      18521.028      19309.828     -154.75104    
   3003000   317.53121      385.44541      18481.336      19321.101      173.61448    
   3004000   300.7282       368.78667      18524.821      19323.886     -55.607525    
   3005000   307.11525      375.01145      18515.928      19330.357      42.015541    
   3006000   313.21929      366.03037      18523.493      19337.674     -201.46567    
   3007000   313.51732      376.83486      18524.727      19350.139      166.97837    
   3008000   318.96242      377.40838      18516.003      19349.779      118.14658    
   3009000   302.371        373.54972      18538.118      19344.297     -129.69351    
   3010000   300.24152      368.89218      18520.942      19319.416     -68.723552    
   3011000   288.77359      369.3779       18520.354      19302.906     -121.88271    
   3012000   309.85768      382.62268      18472.268      19298.232      134.72218    
   3013000   282.11364      371.885        18518.243      19293.773     -2.8288872    
   3014000   299.2782       367.18291      18500.473      19295.86      -129.27374    
   3015000   302.54285      368.83823      18505.256      19306.969     -74.167325    
   3016000   299.78668      375.9916       18517.319      19322.242      134.41243    
   3017000   324.78112      378.28469      18501.587      19344.565      229.96576    
   3018000   302.45827      359.96802      18564.226      19356.948     -331.83085    
   3019000   325.29343      367.47974      18522.037      19354.943     -170.91118    
   3020000   302.11169      376.77052      18540.867      19349.895     -43.094897    
Loop time of 16.4265 on 48 procs for 50000 steps with 481 atoms

Performance: 13.150 ns/day, 1.825 hours/ns, 3043.871 timesteps/s, 1.464 Matom-step/s
100.0% CPU use with 48 MPI tasks x 1 OpenMP threads

MPI task timing breakdown:
Section |  min time  |  avg time  |  max time  |%varavg| %total
---------------------------------------------------------------
Pair    | 0.016795   | 0.71169    | 4.7627     | 135.1 |  4.33
Bond    | 0.0049168  | 0.89602    | 4.267      | 146.1 |  5.45
Neigh   | 0.028702   | 0.031343   | 0.033729   |   0.8 |  0.19
Comm    | 6.3738     | 11.962     | 14.9       |  89.7 | 72.82
Output  | 0.0084278  | 0.013731   | 0.018808   |   2.8 |  0.08
Modify  | 0.6385     | 2.2295     | 8.8671     | 189.7 | 13.57
Other   |            | 0.5823     |            |       |  3.55

Nlocal:        10.0208 ave          51 max           0 min
Histogram: 27 6 7 0 0 0 4 1 1 2
Nghost:        1818.35 ave        2347 max        1173 min
Histogram: 8 0 0 0 24 0 0 0 0 16
Neighs:              0 ave           0 max           0 min
Histogram: 48 0 0 0 0 0 0 0 0 0

Total # of neighbors = 0
Ave neighs/atom = 0
Ave special neighs/atom = 15.567568
Neighbor list builds = 83
Dangerous builds = 0
unfix           myat1
next            cpt
jump            SELF loop
variable        zdes equal  -15+0.30*(${cpt}-1)
variable        zdes equal  -15+0.30*(51-1)
variable        zave equal xcm(H2,z)
fix             mytth2 H2 spring tether ${k1} 2.5 2.5 ${zdes} 0
fix             mytth2 H2 spring tether 0.5 2.5 2.5 ${zdes} 0
fix             mytth2 H2 spring tether 0.5 2.5 2.5 0 0
run             10000
Generated 0 of 1 mixed pair_coeff terms from geometric mixing rule
Per MPI rank memory allocation (min/avg/max) = 13.32 | 13.8 | 14.98 Mbytes
   Step          Temp          E_pair         E_mol          TotEng         Press     
   3020000   302.11169      376.77052      18540.867      19349.895     -43.094897    
   3021000   304.42957      381.39207      18519.665      19336.632      151.44503    
   3022000   291.98743      371.3677       18533.4        19322.54      -12.96697     
   3023000   298.81233      362.38379      18527.114      19317.036     -281.29304    
   3024000   298.35552      372.11876      18508.519      19307.522      43.904341    
   3025000   289.8193       381.39252      18502.725      19298.788      200.21625    
   3026000   297.80435      376.53747      18493.12       19295.753      199.99777    
   3027000   301.35123      369.05569      18497.746      19297.971     -85.517504    
   3028000   302.66553      363.40783      18512.748      19309.206     -333.59329    
   3029000   304.47815      375.34086      18527.976      19338.961      96.738186    
   3030000   310.7156       384.20737      18527.502      19356.278      269.20753    
Loop time of 3.20365 on 48 procs for 10000 steps with 481 atoms

Performance: 13.485 ns/day, 1.780 hours/ns, 3121.443 timesteps/s, 1.501 Matom-step/s
100.0% CPU use with 48 MPI tasks x 1 OpenMP threads

MPI task timing breakdown:
Section |  min time  |  avg time  |  max time  |%varavg| %total
---------------------------------------------------------------
Pair    | 0.0033173  | 0.14241    | 0.97826    |  60.7 |  4.45
Bond    | 0.00098935 | 0.17908    | 0.89174    |  65.5 |  5.59
Neigh   | 0.0047516  | 0.0052447  | 0.0056934  |   0.3 |  0.16
Comm    | 1.1431     | 2.3219     | 2.886      |  39.1 | 72.48
Output  | 0.001725   | 0.0027007  | 0.0038104  |   1.2 |  0.08
Modify  | 0.12378    | 0.43557    | 1.6905     |  80.6 | 13.60
Other   |            | 0.1167     |            |       |  3.64

Nlocal:        10.0208 ave          46 max           0 min
Histogram: 23 12 3 2 0 0 1 2 2 3
Nghost:        1818.35 ave        2347 max        1178 min
Histogram: 8 0 0 0 24 0 0 0 0 16
Neighs:              0 ave           0 max           0 min
Histogram: 48 0 0 0 0 0 0 0 0 0

Total # of neighbors = 0
Ave neighs/atom = 0
Ave special neighs/atom = 15.567568
Neighbor list builds = 15
Dangerous builds = 0
fix             myat1 all ave/time 1000 10 10000 v_zave v_zdes file simulation_data/abpot/${cpt}.dat
fix             myat1 all ave/time 1000 10 10000 v_zave v_zdes file simulation_data/abpot/51.dat
run             50000
Generated 0 of 1 mixed pair_coeff terms from geometric mixing rule
Per MPI rank memory allocation (min/avg/max) = 13.32 | 13.8 | 14.98 Mbytes
   Step          Temp          E_pair         E_mol          TotEng         Press     
   3030000   310.7156       384.20737      18527.502      19356.278      269.20753    
   3031000   315.53317      369.2796       18536.345      19357.086     -20.216105    
   3032000   308.63785      364.08684      18541.4        19347.083     -163.07987    
   3033000   306.17053      373.41592      18518.97       19330.451     -50.662052    
   3034000   303.31664      376.15701      18505.626      19315.765      80.762028    
   3035000   301.83642      375.80535      18500.356      19308.025      52.381547    
   3036000   297.75631      370.62442      18508.566      19305.217     -90.492196    
   3037000   299.77867      363.73037      18516.633      19309.284     -199.17339    
   3038000   296.47592      376.40106      18511.47       19312.066      86.835227    
   3039000   292.29317      374.2503       18522.313      19314.773      37.201867    
   3040000   292.44561      372.26577      18532.772      19323.466      55.611185    
   3041000   328.47123      366.05982      18511.282      19347.314     -188.03151    
   3042000   318.07859      366.73705      18549.133      19370.973      14.208769    
   3043000   317.21391      381.53323      18544.306      19379.706      123.15342    
   3044000   318.19547      375.3685       18546.196      19376.835     -84.606399    
   3045000   296.94285      370.75447      18563.722      19359.339     -112.70296    
   3046000   297.09666      374.38331      18545.872      19345.338     -109.2504     
   3047000   292.22531      370.14582      18541.107      19329.365     -121.24427    
   3048000   298.83021      378.06232      18517.412      19323.037      211.95324    
   3049000   311.77443      369.85928      18504.691      19320.634     -62.301841    
   3050000   304.62816      368.93097      18506.773      19311.562     -130.42923    
   3051000   288.16697      366.80732      18519.292      19298.405      6.1619085    
   3052000   311.64716      375.08631      18474.451      19295.439      67.939843    
   3053000   279.28947      374.79966      18524.062      19298.466      41.991565    
   3054000   297.97708      362.6548       18522.518      19311.515     -351.44086    
   3055000   318.50647      365.80283      18512.433      19333.951     -97.513379    
   3056000   303.362        378.70468      18537.043      19349.794      83.21026     
   3057000   320.31406      371.38425      18519.434      19349.12      -22.056188    
   3058000   317.48315      367.84947      18519.533      19341.634     -35.528386    
   3059000   304.14914      362.7145       18525.003      19322.89      -259.28118    
   3060000   290.5671       372.25065      18523.435      19311.426     -56.668534    
   3061000   289.53605      372.3331       18515.173      19301.771      56.643922    
   3062000   285.14201      363.1864       18530.597      19301.761     -255.01153    
   3063000   298.67083      369.58032      18504.384      19301.299     -157.82853    
   3064000   282.34346      371.95508      18524.91       19300.839     -7.1197667    
   3065000   291.64387      372.33799      18516.222      19305.84      -76.788515    
   3066000   306.15491      368.37359      18513.648      19320.064     -73.274799    
   3067000   301.46059      365.91656      18541.411      19338.654     -152.93852    
   3068000   333.71197      367.31676      18520.633      19365.421     -32.095493    
   3069000   322.35415      373.00625      18540.821      19375.048     -75.416596    
   3070000   327.235        379.84069      18520.827      19368.872      139.55532    
   3071000   315.61604      370.08316      18533.936      19355.599     -116.4062     
   3072000   297.68372      366.95442      18548.635      19341.512     -279.78302    
   3073000   308.9338       369.75674      18514.684      19326.46      -6.0465767    
   3074000   296.37052      375.36844      18517.158      19316.57       69.096962    
   3075000   297.13874      378.57043      18507.959      19311.673      174.48733    
   3076000   276.91763      368.20283      18539.426      19303.84      -191.83101    
   3077000   297.3966       359.13787      18509.895      19294.544     -300.75023    
   3078000   284.25571      377.14739      18506.388      19290.246      204.9048     
   3079000   301.63357      379.01685      18481.49       19292.081      105.93187    
   3080000   297.76031      366.58638      18512.212      19304.831     -119.3857     
Loop time of 16.1441 on 48 procs for 50000 steps with 481 atoms

Performance: 13.380 ns/day, 1.794 hours/ns, 3097.109 timesteps/s, 1.490 Matom-step/s
100.0% CPU use with 48 MPI tasks x 1 OpenMP threads

MPI task timing breakdown:
Section |  min time  |  avg time  |  max time  |%varavg| %total
---------------------------------------------------------------
Pair    | 0.016694   | 0.71087    | 4.6833     | 135.3 |  4.40
Bond    | 0.0048678  | 0.89428    | 4.1155     | 146.2 |  5.54
Neigh   | 0.028479   | 0.031376   | 0.033962   |   0.8 |  0.19
Comm    | 6.1039     | 11.751     | 14.559     |  88.5 | 72.79
Output  | 0.0085528  | 0.013566   | 0.018896   |   2.7 |  0.08
Modify  | 0.65737    | 2.1596     | 8.5567     | 184.1 | 13.38
Other   |            | 0.5834     |            |       |  3.61

Nlocal:        10.0208 ave          50 max           0 min
Histogram: 25 7 8 0 0 1 2 1 1 3
Nghost:        1818.35 ave        2347 max        1173 min
Histogram: 8 0 0 0 24 0 0 0 0 16
Neighs:              0 ave           0 max           0 min
Histogram: 48 0 0 0 0 0 0 0 0 0

Total # of neighbors = 0
Ave neighs/atom = 0
Ave special neighs/atom = 15.567568
Neighbor list builds = 89
Dangerous builds = 0
unfix           myat1
next            cpt
jump            SELF loop

Total wall time: 0:16:43
