# --- log file ---

variable pre equal 112 # desired pressure (Atm)
variable tem equal 300 # desired temperature (K)

variable k1 equal 5 # spring constant
variable k2 equal 3.5 # spring constant

units real
atom_style molecular
boundary p p p
neighbor 1.0 bin
neigh_modify delay 3 one 6000
bond_style harmonic
angle_style harmonic
dihedral_style opls
improper_style harmonic
pair_style hybrid lj/cut 14 sg 15 cb 30 # Fluid-fluid interactions have a cutoff of 15 Å, fluid-solid interactions have a cutoff of 30 Å
# *--* C-C parameters *--*
bond_style harmonic
angle_style harmonic
dihedral_style opls
improper_style harmonic
# *--* C-C parameters *--*


# 2. Read the graphite platelet data file and define potentials parameters
read_data       ../geometry/carbonPlatelets/simulation_data/abpot_sys.data  extra/atom/types 1
Reading data file ...
  orthogonal box = (-30 -30 -30) to (30 30 30)
  3 by 4 by 4 MPI processor grid
  reading atoms ...
  480 atoms
  reading velocities ...
  480 velocities
  scanning bonds ...
  2 = max bonds/atom
  scanning angles ...
  3 = max angles/atom
  scanning dihedrals ...
  8 = max dihedrals/atom
  scanning impropers ...
  2 = max impropers/atom
  orthogonal box = (-30 -30 -30) to (30 30 30)
  3 by 4 by 4 MPI processor grid
  reading bonds ...
  676 bonds
  reading angles ...
  1268 angles
  reading dihedrals ...
  2394 dihedrals
  reading impropers ...
  396 impropers
Finding 1-2 1-3 1-4 neighbors ...
  special bond factors lj:    0        0        0       
  special bond factors coul:  0        0        0       
     3 = max # of 1-2 neighbors
     6 = max # of 1-3 neighbors
    18 = max # of 1-4 neighbors
    18 = max # of special neighbors
  special bonds CPU = 0.002 seconds
  read_data CPU = 0.048 seconds
include         PARM.lammps

#////////////////////////////////////////////////////////////////////////////////////////////////////////////////////////////////
#//     Filename: PARM.lammps
#//     File Type: LAMMPS input script
#//     Description: This script defines the parameters for the simulation of hydrogen absorption in graphite platelets.
#//     Author: Edoardo Cabiati
#//     Date: 2024-07-27
#////////////////////////////////////////////////////////////////////////////////////////////////////////////////////////////////

mass 2 2.016 # For now at least, in accordance with the paper by Wang and Johnson,
             # 1998, the hydrogen atoms are regarded as simple spherical atoms

# //////////////////////////////////////    C-C potentials    //////////////////////////////////////
pair_coeff 1 1 lj/cut 0.066 3.4
bond_coeff 1 469 1.4
angle_coeff 1 63 120
dihedral_coeff 1 0 7.25 0 0
improper_coeff 1 5 180
special_bonds lj 0.0 0.0 0.5
Finding 1-2 1-3 1-4 neighbors ...
  special bond factors lj:    0        0        0.5     
  special bond factors coul:  0        0        0       
     3 = max # of 1-2 neighbors
     6 = max # of 1-3 neighbors
    18 = max # of 1-4 neighbors
    18 = max # of special neighbors
  special bonds CPU = 0.001 seconds
# //////////////////////////////////////    C-C potentials    //////////////////////////////////////
# -------------------------------------------------------------------------------------------------
# //////////////////////////////////////    H-H potentials    //////////////////////////////////////
variable alpha equal 1.713          #|
variable sigma equal 1.567          #|
variable gamma equal 0.00993        #|
variable c6 equal 12.14             #|      The parameters are all in atomic units, the conversion to kcal/mol
variable c8 equal 215.2             #|      is performed in the pair_sg.cpp file
variable c9 equal 143.1             #|
variable c10 equal 4813.9           #|
variable rc equal 8.321             #|
pair_coeff 2 2 sg ${alpha} ${sigma} ${gamma} ${c6} ${c8} ${c9} ${c10} ${rc} # H-H potentials
pair_coeff 2 2 sg 1.713 ${sigma} ${gamma} ${c6} ${c8} ${c9} ${c10} ${rc} 
pair_coeff 2 2 sg 1.713 1.567 ${gamma} ${c6} ${c8} ${c9} ${c10} ${rc} 
pair_coeff 2 2 sg 1.713 1.567 0.00993 ${c6} ${c8} ${c9} ${c10} ${rc} 
pair_coeff 2 2 sg 1.713 1.567 0.00993 12.14 ${c8} ${c9} ${c10} ${rc} 
pair_coeff 2 2 sg 1.713 1.567 0.00993 12.14 215.2 ${c9} ${c10} ${rc} 
pair_coeff 2 2 sg 1.713 1.567 0.00993 12.14 215.2 143.1 ${c10} ${rc} 
pair_coeff 2 2 sg 1.713 1.567 0.00993 12.14 215.2 143.1 4813.9 ${rc} 
pair_coeff 2 2 sg 1.713 1.567 0.00993 12.14 215.2 143.1 4813.9 8.321 
#pair_coeff 2 2 sg 1.713 1.567 0.00993 12.14 215.2 143.1 4813.9 8.321 # H-H potentials
# //////////////////////////////////////    H-H potentials    //////////////////////////////////////
# -------------------------------------------------------------------------------------------------
# //////////////////////////////////////    C-H potentials    //////////////////////////////////////
variable sigma_CC equal 3.43 # Å
variable sigma_HH equal 3.075 # Å
variable sigma_CH_geo equal sqrt(${sigma_CC}*${sigma_HH}) # Å
variable sigma_CH_geo equal sqrt(3.43*${sigma_HH}) 
variable sigma_CH_geo equal sqrt(3.43*3.075) 
variable sigma_CH_arit equal 0.5*(${sigma_CC}+${sigma_HH}) # Å
variable sigma_CH_arit equal 0.5*(3.43+${sigma_HH}) 
variable sigma_CH_arit equal 0.5*(3.43+3.075) 

variable P_par equal 0.57 # Å^3
variable P_perp equal 1.995 # Å^3
variable P_h equal 0.81 # Å^3
variable E_h equal 2.337e5*(1/503.23) # K * 1/503.23 kcal/mol/K = kcal/mol
variable E_c equal 1.39254e5*(1/503.23) # K * 1/503.23 kcal/mol/K = kcal/mol

variable epsilon equal 4*v_E_h*v_E_c*v_P_h*(v_P_par+v_P_perp/2)/(v_sigma_CH_geo^6*(v_E_h+v_E_c)) # kcal/mol

pair_coeff 1 2 cb ${epsilon} ${sigma_CH_geo} ${P_par} ${P_perp} # C-H potential
pair_coeff 1 2 cb 0.750549668586509 ${sigma_CH_geo} ${P_par} ${P_perp} 
pair_coeff 1 2 cb 0.750549668586509 3.24765299870537 ${P_par} ${P_perp} 
pair_coeff 1 2 cb 0.750549668586509 3.24765299870537 0.57 ${P_perp} 
pair_coeff 1 2 cb 0.750549668586509 3.24765299870537 0.57 1.995 
#pair_coeff 1 2 lj/cut 0.3025 2.065
# //////////////////////////////////////    C-H potentials    //////////////////////////////////////

# 3. Add a single hydrogen molecule to the system, close to the center of the first platelet
create_atoms    2 single 0 0 -2
Created 1 atoms
  using lattice units in orthogonal box = (-30 -30 -30) to (30 30 30)
  create_atoms CPU = 0.000 seconds

group           C type 1
480 atoms in group C
group           H2 type 2
1 atoms in group H2

# 4. Equilibration
timestep        0.05
fix             mytth1 C spring/self ${k2} # Apply a spring force to the carbon atoms
fix             mytth1 C spring/self 3.5 
velocity        all create ${tem} 48 rot yes mom yes dist gaussian # Initialize velocities
velocity        all create 300 48 rot yes mom yes dist gaussian 
fix             mynpt all npt temp ${tem} ${tem} 100 x ${pre} ${pre} 1000 y ${pre} ${pre} 1000 # Apply NPT ensemble to the system
fix             mynpt all npt temp 300 ${tem} 100 x ${pre} ${pre} 1000 y ${pre} ${pre} 1000 
fix             mynpt all npt temp 300 300 100 x ${pre} ${pre} 1000 y ${pre} ${pre} 1000 
fix             mynpt all npt temp 300 300 100 x 112 ${pre} 1000 y ${pre} ${pre} 1000 
fix             mynpt all npt temp 300 300 100 x 112 112 1000 y ${pre} ${pre} 1000 
fix             mynpt all npt temp 300 300 100 x 112 112 1000 y 112 ${pre} 1000 
fix             mynpt all npt temp 300 300 100 x 112 112 1000 y 112 112 1000 

thermo          10000
dump            dump all atom 1000 simulation_data/absorption_pot.lammpstrj

run             20000

CITE-CITE-CITE-CITE-CITE-CITE-CITE-CITE-CITE-CITE-CITE-CITE-CITE

Your simulation uses code contributions which should be cited:

- Type Label Framework: https://doi.org/10.1021/acs.jpcb.3c08419

@Article{Gissinger24,
 author = {Jacob R. Gissinger, Ilia Nikiforov, Yaser Afshar, Brendon Waters, Moon-ki Choi, Daniel S. Karls, Alexander Stukowski, Wonpil Im, Hendrik Heinz, Axel Kohlmeyer, and Ellad B. Tadmor},
 title = {Type Label Framework for Bonded Force Fields in LAMMPS},
 journal = {J. Phys. Chem. B},
 year =    2024,
 volume =  128,
 number =  13,
 pages =   {3282–-3297}
}

CITE-CITE-CITE-CITE-CITE-CITE-CITE-CITE-CITE-CITE-CITE-CITE-CITE

Generated 0 of 1 mixed pair_coeff terms from geometric mixing rule
Neighbor list info ...
  update: every = 1 steps, delay = 3 steps, check = yes
  max neighbors/atom: 6000, page size: 100000
  master list distance cutoff = 31
  ghost atom cutoff = 31
  binsize = 15.5, bins = 4 4 4
  4 neighbor lists, perpetual/occasional/extra = 4 0 0
  (1) pair lj/cut, perpetual, skip trim from (4)
      attributes: half, newton on, cut 15
      pair build: skip/trim
      stencil: none
      bin: none
  (2) pair sg, perpetual, skip trim from (4)
      attributes: half, newton on, cut 16
      pair build: skip/trim
      stencil: none
      bin: none
  (3) pair cb, perpetual, skip from (4)
      attributes: half, newton on
      pair build: skip
      stencil: none
      bin: none
  (4) neighbor class addition, perpetual
      attributes: half, newton on
      pair build: half/bin/newton
      stencil: half/bin/3d
      bin: standard
Per MPI rank memory allocation (min/avg/max) = 13.28 | 13.37 | 13.93 Mbytes
   Step          Temp          E_pair         E_mol          TotEng         Press          Volume    
         0   300            308.43814      19603.922      20341.597     -432.48369      216000       
     10000   308.72719      373.58236      18568.419      19383.724     -313.9945       172136.64    
     20000   322.02648      371.05675      18538.378      19370.187     -418.66256      126544.33    
Loop time of 8.32671 on 48 procs for 20000 steps with 481 atoms

Performance: 10.376 ns/day, 2.313 hours/ns, 2401.908 timesteps/s, 1.155 Matom-step/s
99.8% CPU use with 48 MPI tasks x 1 OpenMP threads

MPI task timing breakdown:
Section |  min time  |  avg time  |  max time  |%varavg| %total
---------------------------------------------------------------
Pair    | 0.12212    | 0.46297    | 2.48       |  80.9 |  5.56
Bond    | 0.0036271  | 0.42361    | 2.4905     | 113.0 |  5.09
Neigh   | 0.021752   | 0.02378    | 0.026145   |   0.8 |  0.29
Comm    | 2.4578     | 4.7979     | 6.9337     |  71.5 | 57.62
Output  | 0.0033893  | 0.0082321  | 0.013628   |   3.8 |  0.10
Modify  | 0.70484    | 2.3274     | 5.0076     | 112.2 | 27.95
Other   |            | 0.2828     |            |       |  3.40

Nlocal:        10.0208 ave          42 max           0 min
Histogram: 21 4 10 5 0 1 0 3 3 1
Nghost:        1907.85 ave        2370 max        1332 min
Histogram: 8 0 0 0 24 0 0 0 0 16
Neighs:              0 ave           0 max           0 min
Histogram: 48 0 0 0 0 0 0 0 0 0

Total # of neighbors = 0
Ave neighs/atom = 0
Ave special neighs/atom = 15.567568
Neighbor list builds = 55
Dangerous builds = 0
unfix           mynpt
unfix           mytth1

# 5. Umbrella sampling
fix             mynvt all nvt temp ${tem} ${tem} 100
fix             mynvt all nvt temp 300 ${tem} 100
fix             mynvt all nvt temp 300 300 100
fix             mytth1 C spring/self ${k2}
fix             mytth1 C spring/self 3.5

variable        cpt loop 51
label           loop
variable        zdes equal  -15+0.60*(${cpt}-1)
variable        zdes equal  -15+0.60*(1-1)
variable        zave equal xcm(H2,z)
fix             mytth2 H2 spring tether ${k1} 2.5 2.5 ${zdes} 0
fix             mytth2 H2 spring tether 5 2.5 2.5 ${zdes} 0
fix             mytth2 H2 spring tether 5 2.5 2.5 -15 0
run             10000
Generated 0 of 1 mixed pair_coeff terms from geometric mixing rule
Per MPI rank memory allocation (min/avg/max) = 13.32 | 13.74 | 14.98 Mbytes
   Step          Temp          E_pair         E_mol          TotEng         Press     
     20000   322.02648      371.05675      18538.378      19370.187     -418.66256    
     30000   260.1875       334.40239      18585.442      19292.118     -1129.7179    
Loop time of 3.28086 on 48 procs for 10000 steps with 481 atoms

Performance: 13.167 ns/day, 1.823 hours/ns, 3047.982 timesteps/s, 1.466 Matom-step/s
100.0% CPU use with 48 MPI tasks x 1 OpenMP threads

MPI task timing breakdown:
Section |  min time  |  avg time  |  max time  |%varavg| %total
---------------------------------------------------------------
Pair    | 0.0033441  | 0.14465    | 0.80472    |  55.2 |  4.41
Bond    | 0.0010458  | 0.18117    | 0.75199    |  55.6 |  5.52
Neigh   | 0.044859   | 0.048727   | 0.052984   |   1.0 |  1.49
Comm    | 1.4707     | 2.4225     | 2.9461     |  33.5 | 73.84
Output  | 0.0011682  | 0.0029677  | 0.0049484  |   2.2 |  0.09
Modify  | 0.11923    | 0.3673     | 1.4997     |  79.0 | 11.20
Other   |            | 0.1135     |            |       |  3.46

Nlocal:        10.0208 ave          42 max           0 min
Histogram: 22 6 5 6 1 1 2 1 2 2
Nghost:         1913.5 ave        2384 max        1331 min
Histogram: 8 0 0 0 24 0 0 0 0 16
Neighs:              0 ave           0 max           0 min
Histogram: 48 0 0 0 0 0 0 0 0 0

Total # of neighbors = 0
Ave neighs/atom = 0
Ave special neighs/atom = 15.567568
Neighbor list builds = 137
Dangerous builds = 0
fix             myat1 all ave/time 1000 10 10000 v_zave v_zdes file simulation_data/abpot/${cpt}.dat
fix             myat1 all ave/time 1000 10 10000 v_zave v_zdes file simulation_data/abpot/1.dat
run             50000
Generated 0 of 1 mixed pair_coeff terms from geometric mixing rule
Per MPI rank memory allocation (min/avg/max) = 13.32 | 13.79 | 14.98 Mbytes
   Step          Temp          E_pair         E_mol          TotEng         Press     
     30000   260.1875       334.40239      18585.442      19292.118     -1129.7179    
     40000   271.4519       397.64189      18525.936      19311.968      435.7683     
     50000   294.79998      385.58352      18579.696      19387.076     -117.98823    
     60000   316.1303       362.0575       18585.823      19400.196     -381.2631     
     70000   295.95656      365.69285      18573.775      19362.919     -442.97243    
     80000   294.63067      388.87885      18517.742      19328.176      355.7688     
Loop time of 15.7664 on 48 procs for 50000 steps with 481 atoms

Performance: 13.700 ns/day, 1.752 hours/ns, 3171.305 timesteps/s, 1.525 Matom-step/s
100.0% CPU use with 48 MPI tasks x 1 OpenMP threads

MPI task timing breakdown:
Section |  min time  |  avg time  |  max time  |%varavg| %total
---------------------------------------------------------------
Pair    | 0.016775   | 0.72117    | 3.8571     | 121.5 |  4.57
Bond    | 0.0051179  | 0.90741    | 3.7239     | 124.5 |  5.76
Neigh   | 0.070046   | 0.076025   | 0.082965   |   1.3 |  0.48
Comm    | 7.0152     | 11.694     | 14.213     |  73.3 | 74.17
Output  | 0.0055721  | 0.012761   | 0.020246   |   4.2 |  0.08
Modify  | 0.58237    | 1.7819     | 7.0218     | 168.9 | 11.30
Other   |            | 0.5732     |            |       |  3.64

Nlocal:        10.0208 ave          42 max           0 min
Histogram: 20 6 9 5 0 1 1 3 1 2
Nghost:        1931.85 ave        2409 max        1332 min
Histogram: 8 0 0 0 24 0 0 0 0 16
Neighs:              0 ave           0 max           0 min
Histogram: 48 0 0 0 0 0 0 0 0 0

Total # of neighbors = 0
Ave neighs/atom = 0
Ave special neighs/atom = 15.567568
Neighbor list builds = 209
Dangerous builds = 0
unfix           myat1
next            cpt
jump            SELF loop
variable        zdes equal  -15+0.60*(${cpt}-1)
variable        zdes equal  -15+0.60*(2-1)
variable        zave equal xcm(H2,z)
fix             mytth2 H2 spring tether ${k1} 2.5 2.5 ${zdes} 0
fix             mytth2 H2 spring tether 5 2.5 2.5 ${zdes} 0
fix             mytth2 H2 spring tether 5 2.5 2.5 -14.4 0
run             10000
Generated 0 of 1 mixed pair_coeff terms from geometric mixing rule
Per MPI rank memory allocation (min/avg/max) = 13.32 | 13.83 | 14.98 Mbytes
   Step          Temp          E_pair         E_mol          TotEng         Press     
     80000   294.63067      388.87885      18517.742      19328.176      355.7688     
     90000   299.60848      374.04289      18550.681      19353.401     -127.26757    
Loop time of 3.17925 on 48 procs for 10000 steps with 481 atoms

Performance: 13.588 ns/day, 1.766 hours/ns, 3145.397 timesteps/s, 1.513 Matom-step/s
100.0% CPU use with 48 MPI tasks x 1 OpenMP threads

MPI task timing breakdown:
Section |  min time  |  avg time  |  max time  |%varavg| %total
---------------------------------------------------------------
Pair    | 0.003309   | 0.14415    | 0.83337    |  55.1 |  4.53
Bond    | 0.0010314  | 0.18114    | 0.75021    |  55.6 |  5.70
Neigh   | 0.0052286  | 0.0056356  | 0.0061426  |   0.3 |  0.18
Comm    | 1.3069     | 2.3672     | 2.8965     |  33.1 | 74.46
Output  | 0.0010965  | 0.002316   | 0.0035598  |   1.6 |  0.07
Modify  | 0.11259    | 0.36475    | 1.4522     |  77.3 | 11.47
Other   |            | 0.1141     |            |       |  3.59

Nlocal:        10.0208 ave          42 max           0 min
Histogram: 20 8 5 7 0 1 0 4 1 2
Nghost:         1928.6 ave        2411 max        1335 min
Histogram: 8 0 0 0 24 0 0 0 0 16
Neighs:              0 ave           0 max           0 min
Histogram: 48 0 0 0 0 0 0 0 0 0

Total # of neighbors = 0
Ave neighs/atom = 0
Ave special neighs/atom = 15.567568
Neighbor list builds = 15
Dangerous builds = 0
fix             myat1 all ave/time 1000 10 10000 v_zave v_zdes file simulation_data/abpot/${cpt}.dat
fix             myat1 all ave/time 1000 10 10000 v_zave v_zdes file simulation_data/abpot/2.dat
run             50000
Generated 0 of 1 mixed pair_coeff terms from geometric mixing rule
Per MPI rank memory allocation (min/avg/max) = 13.32 | 13.83 | 14.98 Mbytes
   Step          Temp          E_pair         E_mol          TotEng         Press     
     90000   299.60848      374.04289      18550.681      19353.401     -127.26757    
    100000   303.88352      362.58913      18585.536      19382.918     -369.55414    
    110000   298.64299      369.86136      18572.44       19369.596     -133.40766    
    120000   310.99727      380.52877      18502.728      19328.228      82.89237     
    130000   324.30827      367.75376      18550.224      19381.994     -302.81998    
    140000   318.13022      371.30777      18558.46       19384.945     -90.182676    
Loop time of 15.6522 on 48 procs for 50000 steps with 481 atoms

Performance: 13.800 ns/day, 1.739 hours/ns, 3194.446 timesteps/s, 1.537 Matom-step/s
100.0% CPU use with 48 MPI tasks x 1 OpenMP threads

MPI task timing breakdown:
Section |  min time  |  avg time  |  max time  |%varavg| %total
---------------------------------------------------------------
Pair    | 0.016744   | 0.7217     | 3.9941     | 122.0 |  4.61
Bond    | 0.0050885  | 0.9067     | 3.6415     | 124.0 |  5.79
Neigh   | 0.025332   | 0.027366   | 0.029737   |   0.8 |  0.17
Comm    | 6.7373     | 11.654     | 14.222     |  73.2 | 74.46
Output  | 0.0054301  | 0.011138   | 0.016736   |   3.4 |  0.07
Modify  | 0.58064    | 1.7566     | 6.9772     | 168.9 | 11.22
Other   |            | 0.5746     |            |       |  3.67

Nlocal:        10.0208 ave          38 max           0 min
Histogram: 19 5 8 6 2 0 0 3 1 4
Nghost:        1925.35 ave        2408 max        1336 min
Histogram: 8 0 0 0 24 0 0 0 0 16
Neighs:              0 ave           0 max           0 min
Histogram: 48 0 0 0 0 0 0 0 0 0

Total # of neighbors = 0
Ave neighs/atom = 0
Ave special neighs/atom = 15.567568
Neighbor list builds = 75
Dangerous builds = 0
unfix           myat1
next            cpt
jump            SELF loop
variable        zdes equal  -15+0.60*(${cpt}-1)
variable        zdes equal  -15+0.60*(3-1)
variable        zave equal xcm(H2,z)
fix             mytth2 H2 spring tether ${k1} 2.5 2.5 ${zdes} 0
fix             mytth2 H2 spring tether 5 2.5 2.5 ${zdes} 0
fix             mytth2 H2 spring tether 5 2.5 2.5 -13.8 0
run             10000
Generated 0 of 1 mixed pair_coeff terms from geometric mixing rule
Per MPI rank memory allocation (min/avg/max) = 13.32 | 13.84 | 14.98 Mbytes
   Step          Temp          E_pair         E_mol          TotEng         Press     
    140000   318.13022      371.30777      18558.46       19384.945     -90.182676    
    150000   314.15106      379.11775      18561.93       19390.532      56.220172    
Loop time of 3.25411 on 48 procs for 10000 steps with 481 atoms

Performance: 13.276 ns/day, 1.808 hours/ns, 3073.036 timesteps/s, 1.478 Matom-step/s
100.0% CPU use with 48 MPI tasks x 1 OpenMP threads

MPI task timing breakdown:
Section |  min time  |  avg time  |  max time  |%varavg| %total
---------------------------------------------------------------
Pair    | 0.0033966  | 0.14459    | 0.81147    |  54.9 |  4.44
Bond    | 0.0010303  | 0.18168    | 0.73508    |  55.6 |  5.58
Neigh   | 0.0052366  | 0.0056739  | 0.0061612  |   0.3 |  0.17
Comm    | 1.4695     | 2.4332     | 2.9774     |  34.3 | 74.77
Output  | 0.0010827  | 0.002185   | 0.0033052  |   1.5 |  0.07
Modify  | 0.11059    | 0.37178    | 1.525      |  81.7 | 11.42
Other   |            | 0.115      |            |       |  3.53

Nlocal:        10.0208 ave          40 max           0 min
Histogram: 21 3 8 7 1 0 0 3 3 2
Nghost:         1936.6 ave        2425 max        1333 min
Histogram: 8 0 0 0 24 0 0 0 0 16
Neighs:              0 ave           0 max           0 min
Histogram: 48 0 0 0 0 0 0 0 0 0

Total # of neighbors = 0
Ave neighs/atom = 0
Ave special neighs/atom = 15.567568
Neighbor list builds = 15
Dangerous builds = 0
fix             myat1 all ave/time 1000 10 10000 v_zave v_zdes file simulation_data/abpot/${cpt}.dat
fix             myat1 all ave/time 1000 10 10000 v_zave v_zdes file simulation_data/abpot/3.dat
run             50000
Generated 0 of 1 mixed pair_coeff terms from geometric mixing rule
Per MPI rank memory allocation (min/avg/max) = 13.32 | 13.84 | 14.98 Mbytes
   Step          Temp          E_pair         E_mol          TotEng         Press     
    150000   314.15106      379.11775      18561.93       19390.532      56.220172    
    160000   297.2378       375.20407      18527.472      19327.961      217.87917    
    170000   291.20079      366.7293       18542.414      19325.791     -185.12839    
    180000   310.14911      376.16685      18526.34       19346.264      103.41551    
    190000   302.47882      371.80923      18552.004      19356.597      41.454343    
    200000   296.3763       365.84853      18554.467      19344.367     -161.78315    
Loop time of 15.7098 on 48 procs for 50000 steps with 481 atoms

Performance: 13.749 ns/day, 1.746 hours/ns, 3182.725 timesteps/s, 1.531 Matom-step/s
100.0% CPU use with 48 MPI tasks x 1 OpenMP threads

MPI task timing breakdown:
Section |  min time  |  avg time  |  max time  |%varavg| %total
---------------------------------------------------------------
Pair    | 0.016611   | 0.72245    | 3.9807     | 121.8 |  4.60
Bond    | 0.0050859  | 0.90604    | 3.5415     | 123.9 |  5.77
Neigh   | 0.031217   | 0.033736   | 0.036612   |   0.8 |  0.21
Comm    | 6.8991     | 11.698     | 14.184     |  72.6 | 74.47
Output  | 0.0055131  | 0.01086    | 0.016008   |   3.2 |  0.07
Modify  | 0.57651    | 1.764      | 6.9918     | 167.8 | 11.23
Other   |            | 0.5743     |            |       |  3.66

Nlocal:        10.0208 ave          42 max           0 min
Histogram: 22 2 11 5 0 0 1 5 0 2
Nghost:        1928.85 ave        2408 max        1331 min
Histogram: 8 0 0 0 24 0 0 0 0 16
Neighs:              0 ave           0 max           0 min
Histogram: 48 0 0 0 0 0 0 0 0 0

Total # of neighbors = 0
Ave neighs/atom = 0
Ave special neighs/atom = 15.567568
Neighbor list builds = 93
Dangerous builds = 0
unfix           myat1
next            cpt
jump            SELF loop
variable        zdes equal  -15+0.60*(${cpt}-1)
variable        zdes equal  -15+0.60*(4-1)
variable        zave equal xcm(H2,z)
fix             mytth2 H2 spring tether ${k1} 2.5 2.5 ${zdes} 0
fix             mytth2 H2 spring tether 5 2.5 2.5 ${zdes} 0
fix             mytth2 H2 spring tether 5 2.5 2.5 -13.2 0
run             10000
Generated 0 of 1 mixed pair_coeff terms from geometric mixing rule
Per MPI rank memory allocation (min/avg/max) = 13.32 | 13.84 | 14.98 Mbytes
   Step          Temp          E_pair         E_mol          TotEng         Press     
    200000   296.3763       365.84853      18554.467      19344.367     -161.78315    
    210000   277.74983      365.97514      18546.839      19310.216     -221.5859     
Loop time of 3.21687 on 48 procs for 10000 steps with 481 atoms

Performance: 13.429 ns/day, 1.787 hours/ns, 3108.617 timesteps/s, 1.495 Matom-step/s
100.0% CPU use with 48 MPI tasks x 1 OpenMP threads

MPI task timing breakdown:
Section |  min time  |  avg time  |  max time  |%varavg| %total
---------------------------------------------------------------
Pair    | 0.0033312  | 0.14462    | 0.77942    |  54.3 |  4.50
Bond    | 0.0010167  | 0.18123    | 0.77227    |  55.6 |  5.63
Neigh   | 0.0060398  | 0.0065631  | 0.0071159  |   0.4 |  0.20
Comm    | 1.4864     | 2.4063     | 2.9378     |  33.4 | 74.80
Output  | 0.0011318  | 0.0022245  | 0.0032981  |   1.5 |  0.07
Modify  | 0.11456    | 0.36108    | 1.4827     |  79.1 | 11.22
Other   |            | 0.1148     |            |       |  3.57

Nlocal:        10.0208 ave          43 max           0 min
Histogram: 21 5 12 2 0 0 2 4 1 1
Nghost:         1922.1 ave        2402 max        1330 min
Histogram: 8 0 0 0 24 0 0 0 0 16
Neighs:              0 ave           0 max           0 min
Histogram: 48 0 0 0 0 0 0 0 0 0

Total # of neighbors = 0
Ave neighs/atom = 0
Ave special neighs/atom = 15.567568
Neighbor list builds = 17
Dangerous builds = 0
fix             myat1 all ave/time 1000 10 10000 v_zave v_zdes file simulation_data/abpot/${cpt}.dat
fix             myat1 all ave/time 1000 10 10000 v_zave v_zdes file simulation_data/abpot/4.dat
run             50000
Generated 0 of 1 mixed pair_coeff terms from geometric mixing rule
Per MPI rank memory allocation (min/avg/max) = 13.32 | 13.84 | 14.98 Mbytes
   Step          Temp          E_pair         E_mol          TotEng         Press     
    210000   277.74983      365.97514      18546.839      19310.216     -221.5859     
    220000   278.83475      376.54704      18537.45       19312.951      80.502976    
    230000   319.61739      369.50138      18524.874      19351.681     -185.22445    
    240000   311.39013      363.44715      18552.749      19361.729     -344.92214    
    250000   309.79552      374.16415      18527.206      19344.622     -106.18021    
    260000   280.5217       378.88903      18535.177      19315.434      173.80462    
Loop time of 15.6986 on 48 procs for 50000 steps with 481 atoms

Performance: 13.759 ns/day, 1.744 hours/ns, 3185.007 timesteps/s, 1.532 Matom-step/s
100.0% CPU use with 48 MPI tasks x 1 OpenMP threads

MPI task timing breakdown:
Section |  min time  |  avg time  |  max time  |%varavg| %total
---------------------------------------------------------------
Pair    | 0.016721   | 0.72209    | 3.9252     | 121.6 |  4.60
Bond    | 0.0050916  | 0.90509    | 3.5861     | 123.9 |  5.77
Neigh   | 0.028762   | 0.031195   | 0.033954   |   0.8 |  0.20
Comm    | 6.8113     | 11.695     | 14.132     |  72.7 | 74.50
Output  | 0.0054949  | 0.010736   | 0.015819   |   3.2 |  0.07
Modify  | 0.56778    | 1.7616     | 7.0048     | 168.0 | 11.22
Other   |            | 0.573      |            |       |  3.65

Nlocal:        10.0208 ave          36 max           0 min
Histogram: 19 7 7 5 1 1 0 0 4 4
Nghost:        1932.35 ave        2413 max        1337 min
Histogram: 8 0 0 0 24 0 0 0 0 16
Neighs:              0 ave           0 max           0 min
Histogram: 48 0 0 0 0 0 0 0 0 0

Total # of neighbors = 0
Ave neighs/atom = 0
Ave special neighs/atom = 15.567568
Neighbor list builds = 85
Dangerous builds = 0
unfix           myat1
next            cpt
jump            SELF loop
variable        zdes equal  -15+0.60*(${cpt}-1)
variable        zdes equal  -15+0.60*(5-1)
variable        zave equal xcm(H2,z)
fix             mytth2 H2 spring tether ${k1} 2.5 2.5 ${zdes} 0
fix             mytth2 H2 spring tether 5 2.5 2.5 ${zdes} 0
fix             mytth2 H2 spring tether 5 2.5 2.5 -12.6 0
run             10000
Generated 0 of 1 mixed pair_coeff terms from geometric mixing rule
Per MPI rank memory allocation (min/avg/max) = 13.32 | 13.85 | 14.98 Mbytes
   Step          Temp          E_pair         E_mol          TotEng         Press     
    260000   280.5217       378.88903      18535.177      19315.434      173.80462    
    270000   288.97761      371.35083      18530.386      19315.203     -183.64341    
Loop time of 3.12733 on 48 procs for 10000 steps with 481 atoms

Performance: 13.814 ns/day, 1.737 hours/ns, 3197.612 timesteps/s, 1.538 Matom-step/s
100.0% CPU use with 48 MPI tasks x 1 OpenMP threads

MPI task timing breakdown:
Section |  min time  |  avg time  |  max time  |%varavg| %total
---------------------------------------------------------------
Pair    | 0.0033922  | 0.14437    | 0.78354    |  54.4 |  4.62
Bond    | 0.0010076  | 0.18095    | 0.73227    |  55.5 |  5.79
Neigh   | 0.004679   | 0.005061   | 0.0054908  |   0.3 |  0.16
Comm    | 1.3844     | 2.334      | 2.8301     |  32.4 | 74.63
Output  | 0.0010512  | 0.0020998  | 0.0031335  |   1.4 |  0.07
Modify  | 0.11704    | 0.34604    | 1.4017     |  74.5 | 11.06
Other   |            | 0.1148     |            |       |  3.67

Nlocal:        10.0208 ave          37 max           0 min
Histogram: 19 7 8 4 2 0 0 0 5 3
Nghost:         1930.6 ave        2413 max        1336 min
Histogram: 8 0 0 0 24 0 0 0 0 16
Neighs:              0 ave           0 max           0 min
Histogram: 48 0 0 0 0 0 0 0 0 0

Total # of neighbors = 0
Ave neighs/atom = 0
Ave special neighs/atom = 15.567568
Neighbor list builds = 14
Dangerous builds = 0
fix             myat1 all ave/time 1000 10 10000 v_zave v_zdes file simulation_data/abpot/${cpt}.dat
fix             myat1 all ave/time 1000 10 10000 v_zave v_zdes file simulation_data/abpot/5.dat
run             50000
Generated 0 of 1 mixed pair_coeff terms from geometric mixing rule
Per MPI rank memory allocation (min/avg/max) = 13.32 | 13.85 | 14.98 Mbytes
   Step          Temp          E_pair         E_mol          TotEng         Press     
    270000   288.97761      371.35083      18530.386      19315.203     -183.64341    
    280000   303.55752      379.46491      18529.74       19343.532      93.665355    
    290000   298.91047      384.47996      18549.792      19361.95       222.79974    
    300000   326.63643      362.43444      18542.346      19372.128     -339.72038    
    310000   293.60474      378.63449      18550.242      19348.963      41.470674    
    320000   291.00166      378.83475      18530.371      19325.567      211.24025    
Loop time of 15.6812 on 48 procs for 50000 steps with 481 atoms

Performance: 13.774 ns/day, 1.742 hours/ns, 3188.534 timesteps/s, 1.534 Matom-step/s
100.0% CPU use with 48 MPI tasks x 1 OpenMP threads

MPI task timing breakdown:
Section |  min time  |  avg time  |  max time  |%varavg| %total
---------------------------------------------------------------
Pair    | 0.016788   | 0.72285    | 3.8199     | 121.2 |  4.61
Bond    | 0.0050844  | 0.90658    | 3.857      | 124.3 |  5.78
Neigh   | 0.019345   | 0.021055   | 0.022949   |   0.7 |  0.13
Comm    | 7.0899     | 11.703     | 14.17      |  72.7 | 74.63
Output  | 0.0055758  | 0.010767   | 0.01577    |   3.1 |  0.07
Modify  | 0.56811    | 1.7417     | 7.0196     | 168.3 | 11.11
Other   |            | 0.5749     |            |       |  3.67

Nlocal:        10.0208 ave          44 max           0 min
Histogram: 21 7 7 5 0 1 1 3 2 1
Nghost:        1938.35 ave        2424 max        1336 min
Histogram: 8 0 0 0 24 0 0 0 0 16
Neighs:              0 ave           0 max           0 min
Histogram: 48 0 0 0 0 0 0 0 0 0

Total # of neighbors = 0
Ave neighs/atom = 0
Ave special neighs/atom = 15.567568
Neighbor list builds = 58
Dangerous builds = 0
unfix           myat1
next            cpt
jump            SELF loop
variable        zdes equal  -15+0.60*(${cpt}-1)
variable        zdes equal  -15+0.60*(6-1)
variable        zave equal xcm(H2,z)
fix             mytth2 H2 spring tether ${k1} 2.5 2.5 ${zdes} 0
fix             mytth2 H2 spring tether 5 2.5 2.5 ${zdes} 0
fix             mytth2 H2 spring tether 5 2.5 2.5 -12 0
run             10000
Generated 0 of 1 mixed pair_coeff terms from geometric mixing rule
Per MPI rank memory allocation (min/avg/max) = 13.32 | 13.85 | 14.98 Mbytes
   Step          Temp          E_pair         E_mol          TotEng         Press     
    320000   291.00166      378.83475      18530.371      19325.567      211.24025    
    330000   290.83804      372.2851       18529.736      19318.149     -77.91366     
Loop time of 3.13251 on 48 procs for 10000 steps with 481 atoms

Performance: 13.791 ns/day, 1.740 hours/ns, 3192.332 timesteps/s, 1.536 Matom-step/s
100.0% CPU use with 48 MPI tasks x 1 OpenMP threads

MPI task timing breakdown:
Section |  min time  |  avg time  |  max time  |%varavg| %total
---------------------------------------------------------------
Pair    | 0.0033477  | 0.14439    | 0.76187    |  54.3 |  4.61
Bond    | 0.0010112  | 0.18099    | 0.7596     |  55.7 |  5.78
Neigh   | 0.0066205  | 0.0071738  | 0.0078275  |   0.4 |  0.23
Comm    | 1.4371     | 2.337      | 2.8406     |  32.4 | 74.60
Output  | 0.0011441  | 0.0022578  | 0.0033556  |   1.5 |  0.07
Modify  | 0.1131     | 0.34555    | 1.3785     |  74.6 | 11.03
Other   |            | 0.1151     |            |       |  3.68

Nlocal:        10.0208 ave          46 max           0 min
Histogram: 22 8 6 3 2 2 0 2 2 1
Nghost:        1936.12 ave        2417 max        1327 min
Histogram: 8 0 0 0 24 0 0 0 0 16
Neighs:              0 ave           0 max           0 min
Histogram: 48 0 0 0 0 0 0 0 0 0

Total # of neighbors = 0
Ave neighs/atom = 0
Ave special neighs/atom = 15.567568
Neighbor list builds = 20
Dangerous builds = 0
fix             myat1 all ave/time 1000 10 10000 v_zave v_zdes file simulation_data/abpot/${cpt}.dat
fix             myat1 all ave/time 1000 10 10000 v_zave v_zdes file simulation_data/abpot/6.dat
run             50000
Generated 0 of 1 mixed pair_coeff terms from geometric mixing rule
Per MPI rank memory allocation (min/avg/max) = 13.32 | 13.85 | 14.98 Mbytes
   Step          Temp          E_pair         E_mol          TotEng         Press     
    330000   290.83804      372.2851       18529.736      19318.149     -77.91366     
    340000   286.49271      360.80932      18538.655      19309.375     -339.21425    
    350000   303.37594      377.7504       18542.331      19354.148      40.006858    
    360000   304.38554      379.36377      18543.794      19358.669     -55.727507    
    370000   276.29416      363.1184       18547.11       19305.547     -306.3578     
    380000   294.55373      366.73714      18525.931      19314.112     -214.78548    
Loop time of 15.8075 on 48 procs for 50000 steps with 481 atoms

Performance: 13.664 ns/day, 1.756 hours/ns, 3163.061 timesteps/s, 1.521 Matom-step/s
100.0% CPU use with 48 MPI tasks x 1 OpenMP threads

MPI task timing breakdown:
Section |  min time  |  avg time  |  max time  |%varavg| %total
---------------------------------------------------------------
Pair    | 0.01677    | 0.72403    | 4.0188     | 122.0 |  4.58
Bond    | 0.0051157  | 0.90561    | 3.7338     | 124.1 |  5.73
Neigh   | 0.029334   | 0.032009   | 0.034949   |   0.9 |  0.20
Comm    | 7.028      | 11.773     | 14.246     |  73.4 | 74.47
Output  | 0.0055538  | 0.01081    | 0.015858   |   3.2 |  0.07
Modify  | 0.57814    | 1.7899     | 7.119      | 170.7 | 11.32
Other   |            | 0.5725     |            |       |  3.62

Nlocal:        10.0208 ave          38 max           0 min
Histogram: 20 3 10 7 0 0 0 0 6 2
Nghost:        1931.85 ave        2413 max        1335 min
Histogram: 8 0 0 0 24 0 0 0 0 16
Neighs:              0 ave           0 max           0 min
Histogram: 48 0 0 0 0 0 0 0 0 0

Total # of neighbors = 0
Ave neighs/atom = 0
Ave special neighs/atom = 15.567568
Neighbor list builds = 88
Dangerous builds = 0
unfix           myat1
next            cpt
jump            SELF loop
variable        zdes equal  -15+0.60*(${cpt}-1)
variable        zdes equal  -15+0.60*(7-1)
variable        zave equal xcm(H2,z)
fix             mytth2 H2 spring tether ${k1} 2.5 2.5 ${zdes} 0
fix             mytth2 H2 spring tether 5 2.5 2.5 ${zdes} 0
fix             mytth2 H2 spring tether 5 2.5 2.5 -11.4 0
run             10000
Generated 0 of 1 mixed pair_coeff terms from geometric mixing rule
Per MPI rank memory allocation (min/avg/max) = 13.32 | 13.85 | 14.98 Mbytes
   Step          Temp          E_pair         E_mol          TotEng         Press     
    380000   294.55373      366.73714      18525.931      19314.112     -214.78548    
    390000   308.99307      375.8205       18525.959      19343.884      116.675      
Loop time of 3.18277 on 48 procs for 10000 steps with 481 atoms

Performance: 13.573 ns/day, 1.768 hours/ns, 3141.920 timesteps/s, 1.511 Matom-step/s
100.0% CPU use with 48 MPI tasks x 1 OpenMP threads

MPI task timing breakdown:
Section |  min time  |  avg time  |  max time  |%varavg| %total
---------------------------------------------------------------
Pair    | 0.0033898  | 0.14465    | 0.78405    |  54.4 |  4.54
Bond    | 0.0010321  | 0.18086    | 0.80064    |  56.1 |  5.68
Neigh   | 0.0033105  | 0.0036225  | 0.0039711  |   0.3 |  0.11
Comm    | 1.4103     | 2.3723     | 2.8818     |  33.2 | 74.54
Output  | 0.0011329  | 0.0021582  | 0.0031748  |   1.4 |  0.07
Modify  | 0.11573    | 0.36411    | 1.4457     |  77.4 | 11.44
Other   |            | 0.115      |            |       |  3.61

Nlocal:        10.0208 ave          42 max           0 min
Histogram: 20 7 9 4 0 0 1 3 3 1
Nghost:         1929.1 ave        2410 max        1331 min
Histogram: 8 0 0 0 24 0 0 0 0 16
Neighs:              0 ave           0 max           0 min
Histogram: 48 0 0 0 0 0 0 0 0 0

Total # of neighbors = 0
Ave neighs/atom = 0
Ave special neighs/atom = 15.567568
Neighbor list builds = 10
Dangerous builds = 0
fix             myat1 all ave/time 1000 10 10000 v_zave v_zdes file simulation_data/abpot/${cpt}.dat
fix             myat1 all ave/time 1000 10 10000 v_zave v_zdes file simulation_data/abpot/7.dat
run             50000
Generated 0 of 1 mixed pair_coeff terms from geometric mixing rule
Per MPI rank memory allocation (min/avg/max) = 13.32 | 13.85 | 14.98 Mbytes
   Step          Temp          E_pair         E_mol          TotEng         Press     
    390000   308.99307      375.8205       18525.959      19343.884      116.675      
    400000   289.31183      370.1035       18555.231      19339.279     -121.50155    
    410000   323.58459      369.18481      18582.34       19414.506     -195.32346    
    420000   294.08331      373.45466      18548.272      19342.498     -54.937254    
    430000   296.75956      364.06413      18550.326      19338.99      -355.50678    
    440000   304.40349      366.21399      18561.559      19363.31      -223.41205    
Loop time of 15.9991 on 48 procs for 50000 steps with 481 atoms

Performance: 13.501 ns/day, 1.778 hours/ns, 3125.176 timesteps/s, 1.503 Matom-step/s
100.0% CPU use with 48 MPI tasks x 1 OpenMP threads

MPI task timing breakdown:
Section |  min time  |  avg time  |  max time  |%varavg| %total
---------------------------------------------------------------
Pair    | 0.016585   | 0.72304    | 3.6785     | 120.9 |  4.52
Bond    | 0.0050881  | 0.90506    | 3.7856     | 124.5 |  5.66
Neigh   | 0.028614   | 0.031304   | 0.034278   |   0.9 |  0.20
Comm    | 7.393      | 11.947     | 14.471     |  73.7 | 74.67
Output  | 0.0057353  | 0.011034   | 0.016143   |   3.2 |  0.07
Modify  | 0.57447    | 1.8066     | 7.3515     | 172.7 | 11.29
Other   |            | 0.5753     |            |       |  3.60

Nlocal:        10.0208 ave          50 max           0 min
Histogram: 22 8 5 5 2 1 1 2 1 1
Nghost:        1929.73 ave        2411 max        1323 min
Histogram: 8 0 0 0 24 0 0 0 0 16
Neighs:              0 ave           0 max           0 min
Histogram: 48 0 0 0 0 0 0 0 0 0

Total # of neighbors = 0
Ave neighs/atom = 0
Ave special neighs/atom = 15.567568
Neighbor list builds = 86
Dangerous builds = 0
unfix           myat1
next            cpt
jump            SELF loop
variable        zdes equal  -15+0.60*(${cpt}-1)
variable        zdes equal  -15+0.60*(8-1)
variable        zave equal xcm(H2,z)
fix             mytth2 H2 spring tether ${k1} 2.5 2.5 ${zdes} 0
fix             mytth2 H2 spring tether 5 2.5 2.5 ${zdes} 0
fix             mytth2 H2 spring tether 5 2.5 2.5 -10.8 0
run             10000
Generated 0 of 1 mixed pair_coeff terms from geometric mixing rule
Per MPI rank memory allocation (min/avg/max) = 13.32 | 13.85 | 14.98 Mbytes
   Step          Temp          E_pair         E_mol          TotEng         Press     
    440000   304.40349      366.21399      18561.559      19363.31      -223.41205    
    450000   301.13013      371.14714      18557.733      19359.734     -173.18972    
Loop time of 3.18537 on 48 procs for 10000 steps with 481 atoms

Performance: 13.562 ns/day, 1.770 hours/ns, 3139.351 timesteps/s, 1.510 Matom-step/s
100.0% CPU use with 48 MPI tasks x 1 OpenMP threads

MPI task timing breakdown:
Section |  min time  |  avg time  |  max time  |%varavg| %total
---------------------------------------------------------------
Pair    | 0.0033239  | 0.14461    | 0.73462    |  54.3 |  4.54
Bond    | 0.001038   | 0.18108    | 0.78871    |  56.1 |  5.68
Neigh   | 0.0080333  | 0.0087271  | 0.0095115  |   0.4 |  0.27
Comm    | 1.4508     | 2.3743     | 2.8842     |  33.3 | 74.54
Output  | 0.0011098  | 0.0021577  | 0.0031862  |   1.4 |  0.07
Modify  | 0.11608    | 0.35964    | 1.4379     |  77.4 | 11.29
Other   |            | 0.1148     |            |       |  3.60

Nlocal:        10.0208 ave          49 max           0 min
Histogram: 20 8 10 2 3 1 0 1 2 1
Nghost:        1931.85 ave        2410 max        1324 min
Histogram: 8 0 0 0 24 0 0 0 0 16
Neighs:              0 ave           0 max           0 min
Histogram: 48 0 0 0 0 0 0 0 0 0

Total # of neighbors = 0
Ave neighs/atom = 0
Ave special neighs/atom = 15.567568
Neighbor list builds = 24
Dangerous builds = 0
fix             myat1 all ave/time 1000 10 10000 v_zave v_zdes file simulation_data/abpot/${cpt}.dat
fix             myat1 all ave/time 1000 10 10000 v_zave v_zdes file simulation_data/abpot/8.dat
run             50000
Generated 0 of 1 mixed pair_coeff terms from geometric mixing rule
Per MPI rank memory allocation (min/avg/max) = 13.32 | 13.85 | 14.98 Mbytes
   Step          Temp          E_pair         E_mol          TotEng         Press     
    450000   301.13013      371.14714      18557.733      19359.734     -173.18972    
    460000   304.71643      377.60802      18514.26       19327.853      20.062158    
    470000   275.13193      374.53719      18553.601      19321.794     -135.23035    
    480000   303.44356      368.92409      18530.129      19333.216     -147.99344    
    490000   304.51616      378.74632      18537.993      19352.438      196.01152    
    500000   302.42512      373.06891      18517.432      19323.207      40.21419     
Loop time of 16.1565 on 48 procs for 50000 steps with 481 atoms

Performance: 13.369 ns/day, 1.795 hours/ns, 3094.731 timesteps/s, 1.489 Matom-step/s
100.0% CPU use with 48 MPI tasks x 1 OpenMP threads

MPI task timing breakdown:
Section |  min time  |  avg time  |  max time  |%varavg| %total
---------------------------------------------------------------
Pair    | 0.016881   | 0.7235     | 3.8225     | 121.6 |  4.48
Bond    | 0.0050998  | 0.90636    | 4.032      | 125.3 |  5.61
Neigh   | 0.039776   | 0.043277   | 0.047041   |   1.0 |  0.27
Comm    | 7.1395     | 12.067     | 14.652     |  75.3 | 74.69
Output  | 0.0057639  | 0.011034   | 0.016124   |   3.2 |  0.07
Modify  | 0.56833    | 1.8304     | 7.4883     | 177.7 | 11.33
Other   |            | 0.575      |            |       |  3.56

Nlocal:        10.0208 ave          44 max           0 min
Histogram: 21 6 9 4 0 1 1 4 1 1
Nghost:        1924.73 ave        2397 max        1329 min
Histogram: 8 0 0 0 24 0 0 0 0 16
Neighs:              0 ave           0 max           0 min
Histogram: 48 0 0 0 0 0 0 0 0 0

Total # of neighbors = 0
Ave neighs/atom = 0
Ave special neighs/atom = 15.567568
Neighbor list builds = 114
Dangerous builds = 0
unfix           myat1
next            cpt
jump            SELF loop
variable        zdes equal  -15+0.60*(${cpt}-1)
variable        zdes equal  -15+0.60*(9-1)
variable        zave equal xcm(H2,z)
fix             mytth2 H2 spring tether ${k1} 2.5 2.5 ${zdes} 0
fix             mytth2 H2 spring tether 5 2.5 2.5 ${zdes} 0
fix             mytth2 H2 spring tether 5 2.5 2.5 -10.2 0
run             10000
Generated 0 of 1 mixed pair_coeff terms from geometric mixing rule
Per MPI rank memory allocation (min/avg/max) = 13.32 | 13.85 | 14.98 Mbytes
   Step          Temp          E_pair         E_mol          TotEng         Press     
    500000   302.42512      373.06891      18517.432      19323.207      40.21419     
    510000   284.89935      375.21712      18522.55       19305.398     -41.026502    
Loop time of 3.22522 on 48 procs for 10000 steps with 481 atoms

Performance: 13.394 ns/day, 1.792 hours/ns, 3100.567 timesteps/s, 1.491 Matom-step/s
100.0% CPU use with 48 MPI tasks x 1 OpenMP threads

MPI task timing breakdown:
Section |  min time  |  avg time  |  max time  |%varavg| %total
---------------------------------------------------------------
Pair    | 0.0033716  | 0.1449     | 0.76893    |  54.9 |  4.49
Bond    | 0.001018   | 0.18125    | 0.90991    |  57.0 |  5.62
Neigh   | 0.0058999  | 0.0064367  | 0.0070365  |   0.4 |  0.20
Comm    | 1.2977     | 2.4037     | 2.9187     |  33.9 | 74.53
Output  | 0.0012201  | 0.0022858  | 0.0033368  |   1.4 |  0.07
Modify  | 0.11593    | 0.37118    | 1.486      |  78.9 | 11.51
Other   |            | 0.1154     |            |       |  3.58

Nlocal:        10.0208 ave          50 max           0 min
Histogram: 21 8 10 2 1 0 3 2 0 1
Nghost:        1922.85 ave        2397 max        1323 min
Histogram: 8 0 0 0 24 0 0 0 0 16
Neighs:              0 ave           0 max           0 min
Histogram: 48 0 0 0 0 0 0 0 0 0

Total # of neighbors = 0
Ave neighs/atom = 0
Ave special neighs/atom = 15.567568
Neighbor list builds = 17
Dangerous builds = 0
fix             myat1 all ave/time 1000 10 10000 v_zave v_zdes file simulation_data/abpot/${cpt}.dat
fix             myat1 all ave/time 1000 10 10000 v_zave v_zdes file simulation_data/abpot/9.dat
run             50000
Generated 0 of 1 mixed pair_coeff terms from geometric mixing rule
Per MPI rank memory allocation (min/avg/max) = 13.32 | 13.85 | 14.98 Mbytes
   Step          Temp          E_pair         E_mol          TotEng         Press     
    510000   284.89935      375.21712      18522.55       19305.398     -41.026502    
    520000   298.26316      378.30081      18540.919      19345.971     -149.66353    
    530000   303.59759      383.95516      18538.382      19356.721      129.12306    
    540000   295.39276      374.85806      18578.362      19375.865     -108.98043    
    550000   314.19284      374.27133      18530.244      19354.059     -44.828306    
    560000   297.63026      377.62008      18535.368      19338.834      13.421174    
Loop time of 16.2709 on 48 procs for 50000 steps with 481 atoms

Performance: 13.275 ns/day, 1.808 hours/ns, 3072.975 timesteps/s, 1.478 Matom-step/s
100.0% CPU use with 48 MPI tasks x 1 OpenMP threads

MPI task timing breakdown:
Section |  min time  |  avg time  |  max time  |%varavg| %total
---------------------------------------------------------------
Pair    | 0.016791   | 0.72423    | 3.7464     | 122.2 |  4.45
Bond    | 0.0050916  | 0.90506    | 4.2308     | 126.2 |  5.56
Neigh   | 0.038554   | 0.042136   | 0.04596    |   1.0 |  0.26
Comm    | 7.0444     | 12.155     | 14.738     |  75.8 | 74.70
Output  | 0.00589    | 0.011137   | 0.016204   |   3.1 |  0.07
Modify  | 0.57601    | 1.8578     | 7.5799     | 177.8 | 11.42
Other   |            | 0.576      |            |       |  3.54

Nlocal:        10.0208 ave          39 max           0 min
Histogram: 18 5 10 6 1 1 0 1 4 2
Nghost:        1931.85 ave        2417 max        1334 min
Histogram: 8 0 0 0 24 0 0 0 0 16
Neighs:              0 ave           0 max           0 min
Histogram: 48 0 0 0 0 0 0 0 0 0

Total # of neighbors = 0
Ave neighs/atom = 0
Ave special neighs/atom = 15.567568
Neighbor list builds = 114
Dangerous builds = 0
unfix           myat1
next            cpt
jump            SELF loop
variable        zdes equal  -15+0.60*(${cpt}-1)
variable        zdes equal  -15+0.60*(10-1)
variable        zave equal xcm(H2,z)
fix             mytth2 H2 spring tether ${k1} 2.5 2.5 ${zdes} 0
fix             mytth2 H2 spring tether 5 2.5 2.5 ${zdes} 0
fix             mytth2 H2 spring tether 5 2.5 2.5 -9.6 0
run             10000
Generated 0 of 1 mixed pair_coeff terms from geometric mixing rule
Per MPI rank memory allocation (min/avg/max) = 13.32 | 13.85 | 14.98 Mbytes
   Step          Temp          E_pair         E_mol          TotEng         Press     
    560000   297.63026      377.62008      18535.368      19338.834      13.421174    
    570000   291.89965      388.87207      18564.513      19371.032     -205.74307    
Loop time of 3.30069 on 48 procs for 10000 steps with 481 atoms

Performance: 13.088 ns/day, 1.834 hours/ns, 3029.670 timesteps/s, 1.457 Matom-step/s
100.0% CPU use with 48 MPI tasks x 1 OpenMP threads

MPI task timing breakdown:
Section |  min time  |  avg time  |  max time  |%varavg| %total
---------------------------------------------------------------
Pair    | 0.0033273  | 0.14546    | 0.74976    |  54.5 |  4.41
Bond    | 0.001006   | 0.18129    | 0.79579    |  56.1 |  5.49
Neigh   | 0.0106     | 0.011554   | 0.012483   |   0.5 |  0.35
Comm    | 1.501      | 2.475      | 2.9958     |  33.7 | 74.98
Output  | 0.0011486  | 0.0022224  | 0.003285   |   1.4 |  0.07
Modify  | 0.11335    | 0.37004    | 1.5536     |  80.6 | 11.21
Other   |            | 0.1151     |            |       |  3.49

Nlocal:        10.0208 ave          39 max           0 min
Histogram: 20 6 6 7 1 0 1 2 2 3
Nghost:         1930.1 ave        2408 max        1336 min
Histogram: 8 0 0 0 24 0 0 0 0 16
Neighs:              0 ave           0 max           0 min
Histogram: 48 0 0 0 0 0 0 0 0 0

Total # of neighbors = 0
Ave neighs/atom = 0
Ave special neighs/atom = 15.567568
Neighbor list builds = 31
Dangerous builds = 0
fix             myat1 all ave/time 1000 10 10000 v_zave v_zdes file simulation_data/abpot/${cpt}.dat
fix             myat1 all ave/time 1000 10 10000 v_zave v_zdes file simulation_data/abpot/10.dat
run             50000
Generated 0 of 1 mixed pair_coeff terms from geometric mixing rule
Per MPI rank memory allocation (min/avg/max) = 13.32 | 13.85 | 14.98 Mbytes
   Step          Temp          E_pair         E_mol          TotEng         Press     
    570000   291.89965      388.87207      18564.513      19371.032     -205.74307    
    580000   306.42236      395.87389      18574.111      19408.411      60.783797    
    590000   305.39636      380.10449      18556.684      19373.746      67.94437     
    600000   285.22018      374.13108      18552.374      19334.595     -50.177132    
    610000   273.06938      372.06239      18564.099      19326.866     -188.14395    
    620000   294.49489      376.75639      18548.315      19346.431     -56.381094    
Loop time of 16.1265 on 48 procs for 50000 steps with 481 atoms

Performance: 13.394 ns/day, 1.792 hours/ns, 3100.491 timesteps/s, 1.491 Matom-step/s
100.0% CPU use with 48 MPI tasks x 1 OpenMP threads

MPI task timing breakdown:
Section |  min time  |  avg time  |  max time  |%varavg| %total
---------------------------------------------------------------
Pair    | 0.016726   | 0.72762    | 3.7907     | 122.8 |  4.51
Bond    | 0.0050791  | 0.90504    | 3.9893     | 125.2 |  5.61
Neigh   | 0.041871   | 0.045664   | 0.049735   |   1.0 |  0.28
Comm    | 7.1328     | 12.022     | 14.576     |  74.9 | 74.55
Output  | 0.005838   | 0.011101   | 0.016202   |   3.2 |  0.07
Modify  | 0.56774    | 1.8381     | 7.4175     | 174.1 | 11.40
Other   |            | 0.5769     |            |       |  3.58

Nlocal:        10.0208 ave          47 max           0 min
Histogram: 21 9 8 2 2 1 1 0 3 1
Nghost:        1928.38 ave        2405 max        1326 min
Histogram: 8 0 0 0 24 0 0 0 0 16
Neighs:              0 ave           0 max           0 min
Histogram: 48 0 0 0 0 0 0 0 0 0

Total # of neighbors = 0
Ave neighs/atom = 0
Ave special neighs/atom = 15.567568
Neighbor list builds = 126
Dangerous builds = 0
unfix           myat1
next            cpt
jump            SELF loop
variable        zdes equal  -15+0.60*(${cpt}-1)
variable        zdes equal  -15+0.60*(11-1)
variable        zave equal xcm(H2,z)
fix             mytth2 H2 spring tether ${k1} 2.5 2.5 ${zdes} 0
fix             mytth2 H2 spring tether 5 2.5 2.5 ${zdes} 0
fix             mytth2 H2 spring tether 5 2.5 2.5 -9 0
run             10000
Generated 0 of 1 mixed pair_coeff terms from geometric mixing rule
Per MPI rank memory allocation (min/avg/max) = 13.32 | 13.86 | 14.98 Mbytes
   Step          Temp          E_pair         E_mol          TotEng         Press     
    620000   294.49489      376.75639      18548.315      19346.431     -56.381094    
    630000   335.35402      388.08288      18501.99       19369.894      69.715743    
Loop time of 3.12826 on 48 procs for 10000 steps with 481 atoms

Performance: 13.810 ns/day, 1.738 hours/ns, 3196.662 timesteps/s, 1.538 Matom-step/s
100.0% CPU use with 48 MPI tasks x 1 OpenMP threads

MPI task timing breakdown:
Section |  min time  |  avg time  |  max time  |%varavg| %total
---------------------------------------------------------------
Pair    | 0.0033543  | 0.14572    | 0.7827     |  55.1 |  4.66
Bond    | 0.0010036  | 0.18043    | 0.78623    |  55.7 |  5.77
Neigh   | 0.007202   | 0.0078245  | 0.0085224  |   0.4 |  0.25
Comm    | 1.3469     | 2.3256     | 2.8282     |  32.5 | 74.34
Output  | 0.0010902  | 0.0021273  | 0.003164   |   1.4 |  0.07
Modify  | 0.11773    | 0.35138    | 1.3797     |  73.5 | 11.23
Other   |            | 0.1152     |            |       |  3.68

Nlocal:        10.0208 ave          43 max           0 min
Histogram: 22 6 6 5 1 1 3 1 1 2
Nghost:         1923.6 ave        2400 max        1330 min
Histogram: 8 0 0 0 24 0 0 0 0 16
Neighs:              0 ave           0 max           0 min
Histogram: 48 0 0 0 0 0 0 0 0 0

Total # of neighbors = 0
Ave neighs/atom = 0
Ave special neighs/atom = 15.567568
Neighbor list builds = 22
Dangerous builds = 0
fix             myat1 all ave/time 1000 10 10000 v_zave v_zdes file simulation_data/abpot/${cpt}.dat
fix             myat1 all ave/time 1000 10 10000 v_zave v_zdes file simulation_data/abpot/11.dat
run             50000
Generated 0 of 1 mixed pair_coeff terms from geometric mixing rule
Per MPI rank memory allocation (min/avg/max) = 13.32 | 13.86 | 14.98 Mbytes
   Step          Temp          E_pair         E_mol          TotEng         Press     
    630000   335.35402      388.08288      18501.99       19369.894      69.715743    
    640000   304.77207      386.62518      18529.806      19352.496     -30.989672    
    650000   280.46928      387.95853      18545.384      19334.635      7.8595648    
    660000   298.05236      380.90362      18553.963      19361.317     -127.24694    
    670000   314.53351      376.35048      18538.875      19365.256     -15.205784    
    680000   313.7309       394.84734      18532.937      19376.667      182.62065    
Loop time of 16.0403 on 48 procs for 50000 steps with 481 atoms

Performance: 13.466 ns/day, 1.782 hours/ns, 3117.147 timesteps/s, 1.499 Matom-step/s
100.0% CPU use with 48 MPI tasks x 1 OpenMP threads

MPI task timing breakdown:
Section |  min time  |  avg time  |  max time  |%varavg| %total
---------------------------------------------------------------
Pair    | 0.016777   | 0.73165    | 3.9627     | 123.8 |  4.56
Bond    | 0.0051173  | 0.90439    | 3.6959     | 124.1 |  5.64
Neigh   | 0.041974   | 0.045491   | 0.049413   |   1.0 |  0.28
Comm    | 7.1349     | 11.951     | 14.51      |  74.5 | 74.51
Output  | 0.0056194  | 0.010942   | 0.016075   |   3.2 |  0.07
Modify  | 0.57899    | 1.8217     | 7.2131     | 173.0 | 11.36
Other   |            | 0.5751     |            |       |  3.59

Nlocal:        10.0208 ave          45 max           0 min
Histogram: 21 6 10 3 0 1 2 3 1 1
Nghost:        1933.35 ave        2416 max        1328 min
Histogram: 8 0 0 0 24 0 0 0 0 16
Neighs:              0 ave           0 max           0 min
Histogram: 48 0 0 0 0 0 0 0 0 0

Total # of neighbors = 0
Ave neighs/atom = 0
Ave special neighs/atom = 15.567568
Neighbor list builds = 124
Dangerous builds = 0
unfix           myat1
next            cpt
jump            SELF loop
variable        zdes equal  -15+0.60*(${cpt}-1)
variable        zdes equal  -15+0.60*(12-1)
variable        zave equal xcm(H2,z)
fix             mytth2 H2 spring tether ${k1} 2.5 2.5 ${zdes} 0
fix             mytth2 H2 spring tether 5 2.5 2.5 ${zdes} 0
fix             mytth2 H2 spring tether 5 2.5 2.5 -8.4 0
run             10000
Generated 0 of 1 mixed pair_coeff terms from geometric mixing rule
Per MPI rank memory allocation (min/avg/max) = 13.32 | 13.86 | 14.98 Mbytes
   Step          Temp          E_pair         E_mol          TotEng         Press     
    680000   313.7309       394.84734      18532.937      19376.667      182.62065    
    690000   283.03289      392.18096      18541.461      19338.602     -44.991425    
Loop time of 3.22329 on 48 procs for 10000 steps with 481 atoms

Performance: 13.402 ns/day, 1.791 hours/ns, 3102.422 timesteps/s, 1.492 Matom-step/s
100.0% CPU use with 48 MPI tasks x 1 OpenMP threads

MPI task timing breakdown:
Section |  min time  |  avg time  |  max time  |%varavg| %total
---------------------------------------------------------------
Pair    | 0.0033359  | 0.14663    | 0.77286    |  55.2 |  4.55
Bond    | 0.00101    | 0.18076    | 0.73534    |  55.3 |  5.61
Neigh   | 0.0094764  | 0.010281   | 0.011228   |   0.5 |  0.32
Comm    | 1.5125     | 2.3998     | 2.9211     |  33.6 | 74.45
Output  | 0.0011366  | 0.0021987  | 0.0032516  |   1.4 |  0.07
Modify  | 0.11844    | 0.36833    | 1.4607     |  78.7 | 11.43
Other   |            | 0.1153     |            |       |  3.58

Nlocal:        10.0208 ave          49 max           0 min
Histogram: 21 8 10 1 1 1 4 1 0 1
Nghost:        1932.38 ave        2410 max        1324 min
Histogram: 8 0 0 0 24 0 0 0 0 16
Neighs:              0 ave           0 max           0 min
Histogram: 48 0 0 0 0 0 0 0 0 0

Total # of neighbors = 0
Ave neighs/atom = 0
Ave special neighs/atom = 15.567568
Neighbor list builds = 28
Dangerous builds = 0
fix             myat1 all ave/time 1000 10 10000 v_zave v_zdes file simulation_data/abpot/${cpt}.dat
fix             myat1 all ave/time 1000 10 10000 v_zave v_zdes file simulation_data/abpot/12.dat
run             50000
Generated 0 of 1 mixed pair_coeff terms from geometric mixing rule
Per MPI rank memory allocation (min/avg/max) = 13.32 | 13.86 | 14.98 Mbytes
   Step          Temp          E_pair         E_mol          TotEng         Press     
    690000   283.03289      392.18096      18541.461      19338.602     -44.991425    
    700000   291.1343       392.81108      18522.491      19331.854      45.61826     
    710000   289.72112      386.21988      18571.101      19371.851     -290.83725    
    720000   312.26671      397.06496      18545.333      19389.186      103.11071    
    730000   315.68606      385.92069      18546.387      19383.987     -121.97056    
    740000   297.89651      385.63333      18551.405      19363.266     -136.21806    
Loop time of 16.137 on 48 procs for 50000 steps with 481 atoms

Performance: 13.385 ns/day, 1.793 hours/ns, 3098.470 timesteps/s, 1.490 Matom-step/s
100.0% CPU use with 48 MPI tasks x 1 OpenMP threads

MPI task timing breakdown:
Section |  min time  |  avg time  |  max time  |%varavg| %total
---------------------------------------------------------------
Pair    | 0.016834   | 0.73428    | 3.959      | 123.8 |  4.55
Bond    | 0.0050783  | 0.9051     | 3.7772     | 124.2 |  5.61
Neigh   | 0.043834   | 0.047468   | 0.051243   |   1.0 |  0.29
Comm    | 7.287      | 12.044     | 14.633     |  74.8 | 74.64
Output  | 0.0057731  | 0.011036   | 0.016097   |   3.2 |  0.07
Modify  | 0.57555    | 1.8192     | 7.4096     | 175.1 | 11.27
Other   |            | 0.5755     |            |       |  3.57

Nlocal:        10.0208 ave          40 max           0 min
Histogram: 19 7 7 5 2 0 2 2 0 4
Nghost:        1926.23 ave        2403 max        1333 min
Histogram: 8 0 0 0 24 0 0 0 0 16
Neighs:              0 ave           0 max           0 min
Histogram: 48 0 0 0 0 0 0 0 0 0

Total # of neighbors = 0
Ave neighs/atom = 0
Ave special neighs/atom = 15.567568
Neighbor list builds = 129
Dangerous builds = 0
unfix           myat1
next            cpt
jump            SELF loop
variable        zdes equal  -15+0.60*(${cpt}-1)
variable        zdes equal  -15+0.60*(13-1)
variable        zave equal xcm(H2,z)
fix             mytth2 H2 spring tether ${k1} 2.5 2.5 ${zdes} 0
fix             mytth2 H2 spring tether 5 2.5 2.5 ${zdes} 0
fix             mytth2 H2 spring tether 5 2.5 2.5 -7.8 0
run             10000
Generated 0 of 1 mixed pair_coeff terms from geometric mixing rule
Per MPI rank memory allocation (min/avg/max) = 13.32 | 13.86 | 14.98 Mbytes
   Step          Temp          E_pair         E_mol          TotEng         Press     
    740000   297.89651      385.63333      18551.405      19363.266     -136.21806    
    750000   286.42595      389.73822      18533.555      19333.108     -52.773331    
Loop time of 3.21019 on 48 procs for 10000 steps with 481 atoms

Performance: 13.457 ns/day, 1.783 hours/ns, 3115.076 timesteps/s, 1.498 Matom-step/s
100.0% CPU use with 48 MPI tasks x 1 OpenMP threads

MPI task timing breakdown:
Section |  min time  |  avg time  |  max time  |%varavg| %total
---------------------------------------------------------------
Pair    | 0.0033608  | 0.147      | 0.81861    |  55.8 |  4.58
Bond    | 0.001016   | 0.18108    | 0.76597    |  55.8 |  5.64
Neigh   | 0.0071867  | 0.0077571  | 0.0084295  |   0.4 |  0.24
Comm    | 1.3696     | 2.387      | 2.897      |  33.4 | 74.36
Output  | 0.0011442  | 0.0022326  | 0.0033029  |   1.5 |  0.07
Modify  | 0.12075    | 0.36999    | 1.4717     |  76.3 | 11.53
Other   |            | 0.1152     |            |       |  3.59

Nlocal:        10.0208 ave          44 max           0 min
Histogram: 21 7 9 3 1 1 1 2 1 2
Nghost:        1926.98 ave        2416 max        1335 min
Histogram: 8 0 0 0 24 0 0 0 0 16
Neighs:              0 ave           0 max           0 min
Histogram: 48 0 0 0 0 0 0 0 0 0

Total # of neighbors = 0
Ave neighs/atom = 0
Ave special neighs/atom = 15.567568
Neighbor list builds = 21
Dangerous builds = 0
fix             myat1 all ave/time 1000 10 10000 v_zave v_zdes file simulation_data/abpot/${cpt}.dat
fix             myat1 all ave/time 1000 10 10000 v_zave v_zdes file simulation_data/abpot/13.dat
run             50000
Generated 0 of 1 mixed pair_coeff terms from geometric mixing rule
Per MPI rank memory allocation (min/avg/max) = 13.32 | 13.86 | 14.98 Mbytes
   Step          Temp          E_pair         E_mol          TotEng         Press     
    750000   286.42595      389.73822      18533.555      19333.108     -52.773331    
    760000   290.45771      387.68375      18550.473      19353.741     -138.98771    
    770000   309.6472       392.01796      18537.512      19372.57       48.700781    
    780000   312.54281      396.20152      18554.321      19397.705     -48.770959    
    790000   291.24922      383.05252      18568.769      19368.538     -301.5808     
    800000   275.56721      390.8815       18569.05       19354.21      -161.58007    
Loop time of 15.8653 on 48 procs for 50000 steps with 481 atoms

Performance: 13.615 ns/day, 1.763 hours/ns, 3151.531 timesteps/s, 1.516 Matom-step/s
100.0% CPU use with 48 MPI tasks x 1 OpenMP threads

MPI task timing breakdown:
Section |  min time  |  avg time  |  max time  |%varavg| %total
---------------------------------------------------------------
Pair    | 0.016917   | 0.73466    | 4.0163     | 124.3 |  4.63
Bond    | 0.0051101  | 0.90572    | 3.8332     | 124.7 |  5.71
Neigh   | 0.033732   | 0.036598   | 0.039877   |   0.9 |  0.23
Comm    | 6.8461     | 11.814     | 14.281     |  72.5 | 74.47
Output  | 0.0056464  | 0.010954   | 0.016045   |   3.2 |  0.07
Modify  | 0.59177    | 1.7873     | 7.017      | 164.7 | 11.27
Other   |            | 0.5759     |            |       |  3.63

Nlocal:        10.0208 ave          38 max           0 min
Histogram: 17 10 7 3 2 1 0 2 4 2
Nghost:           1919 ave        2388 max        1335 min
Histogram: 8 0 0 0 24 0 0 0 0 16
Neighs:              0 ave           0 max           0 min
Histogram: 48 0 0 0 0 0 0 0 0 0

Total # of neighbors = 0
Ave neighs/atom = 0
Ave special neighs/atom = 15.567568
Neighbor list builds = 102
Dangerous builds = 0
unfix           myat1
next            cpt
jump            SELF loop
variable        zdes equal  -15+0.60*(${cpt}-1)
variable        zdes equal  -15+0.60*(14-1)
variable        zave equal xcm(H2,z)
fix             mytth2 H2 spring tether ${k1} 2.5 2.5 ${zdes} 0
fix             mytth2 H2 spring tether 5 2.5 2.5 ${zdes} 0
fix             mytth2 H2 spring tether 5 2.5 2.5 -7.2 0
run             10000
Generated 0 of 1 mixed pair_coeff terms from geometric mixing rule
Per MPI rank memory allocation (min/avg/max) = 13.32 | 13.86 | 14.98 Mbytes
   Step          Temp          E_pair         E_mol          TotEng         Press     
    800000   275.56721      390.8815       18569.05       19354.21      -161.58007    
    810000   299.41223      403.36013      18508.627      19340.382      285.2677     
Loop time of 3.15054 on 48 procs for 10000 steps with 481 atoms

Performance: 13.712 ns/day, 1.750 hours/ns, 3174.062 timesteps/s, 1.527 Matom-step/s
100.0% CPU use with 48 MPI tasks x 1 OpenMP threads

MPI task timing breakdown:
Section |  min time  |  avg time  |  max time  |%varavg| %total
---------------------------------------------------------------
Pair    | 0.0034041  | 0.1474     | 0.82218    |  56.1 |  4.68
Bond    | 0.0010356  | 0.18184    | 0.78084    |  56.2 |  5.77
Neigh   | 0.0074302  | 0.0081116  | 0.0088665  |   0.4 |  0.26
Comm    | 1.2977     | 2.3401     | 2.8406     |  32.7 | 74.28
Output  | 0.0011509  | 0.0022149  | 0.0032675  |   1.4 |  0.07
Modify  | 0.11384    | 0.35496    | 1.3645     |  73.6 | 11.27
Other   |            | 0.1159     |            |       |  3.68

Nlocal:        10.0208 ave          41 max           0 min
Histogram: 22 6 7 3 2 0 2 3 0 3
Nghost:        1929.23 ave        2408 max        1332 min
Histogram: 8 0 0 0 24 0 0 0 0 16
Neighs:              0 ave           0 max           0 min
Histogram: 48 0 0 0 0 0 0 0 0 0

Total # of neighbors = 0
Ave neighs/atom = 0
Ave special neighs/atom = 15.567568
Neighbor list builds = 23
Dangerous builds = 0
fix             myat1 all ave/time 1000 10 10000 v_zave v_zdes file simulation_data/abpot/${cpt}.dat
fix             myat1 all ave/time 1000 10 10000 v_zave v_zdes file simulation_data/abpot/14.dat
run             50000
Generated 0 of 1 mixed pair_coeff terms from geometric mixing rule
Per MPI rank memory allocation (min/avg/max) = 13.32 | 13.86 | 14.98 Mbytes
   Step          Temp          E_pair         E_mol          TotEng         Press     
    810000   299.41223      403.36013      18508.627      19340.382      285.2677     
    820000   286.82799      393.78333      18519.96       19324.134     -14.612782    
    830000   317.56874      383.50066      18535.867      19373.741     -266.26166    
    840000   302.62636      388.7039       18545.167      19366.865     -284.93529    
    850000   284.66212      389.44202      18516.19       19312.924     -187.23066    
    860000   287.9864       382.18535      18550.976      19345.209     -218.31595    
Loop time of 15.7549 on 48 procs for 50000 steps with 481 atoms

Performance: 13.710 ns/day, 1.751 hours/ns, 3173.616 timesteps/s, 1.527 Matom-step/s
100.0% CPU use with 48 MPI tasks x 1 OpenMP threads

MPI task timing breakdown:
Section |  min time  |  avg time  |  max time  |%varavg| %total
---------------------------------------------------------------
Pair    | 0.016985   | 0.73615    | 3.9718     | 124.0 |  4.67
Bond    | 0.0051285  | 0.90728    | 3.7029     | 124.5 |  5.76
Neigh   | 0.040026   | 0.043508   | 0.047489   |   1.0 |  0.28
Comm    | 6.8292     | 11.69      | 14.183     |  73.5 | 74.20
Output  | 0.0056224  | 0.010904   | 0.015988   |   3.2 |  0.07
Modify  | 0.59382    | 1.7906     | 6.9019     | 166.7 | 11.37
Other   |            | 0.5766     |            |       |  3.66

Nlocal:        10.0208 ave          50 max           0 min
Histogram: 21 8 7 5 0 2 2 1 1 1
Nghost:         1928.1 ave        2407 max        1323 min
Histogram: 8 0 0 0 24 0 0 0 0 16
Neighs:              0 ave           0 max           0 min
Histogram: 48 0 0 0 0 0 0 0 0 0

Total # of neighbors = 0
Ave neighs/atom = 0
Ave special neighs/atom = 15.567568
Neighbor list builds = 122
Dangerous builds = 0
unfix           myat1
next            cpt
jump            SELF loop
variable        zdes equal  -15+0.60*(${cpt}-1)
variable        zdes equal  -15+0.60*(15-1)
variable        zave equal xcm(H2,z)
fix             mytth2 H2 spring tether ${k1} 2.5 2.5 ${zdes} 0
fix             mytth2 H2 spring tether 5 2.5 2.5 ${zdes} 0
fix             mytth2 H2 spring tether 5 2.5 2.5 -6.6 0
run             10000
Generated 0 of 1 mixed pair_coeff terms from geometric mixing rule
Per MPI rank memory allocation (min/avg/max) = 13.32 | 13.86 | 14.98 Mbytes
   Step          Temp          E_pair         E_mol          TotEng         Press     
    860000   287.9864       382.18535      18550.976      19345.209     -218.31595    
    870000   308.95766      391.92544      18530.903      19364.881     -78.081042    
Loop time of 3.15284 on 48 procs for 10000 steps with 481 atoms

Performance: 13.702 ns/day, 1.752 hours/ns, 3171.739 timesteps/s, 1.526 Matom-step/s
100.0% CPU use with 48 MPI tasks x 1 OpenMP threads

MPI task timing breakdown:
Section |  min time  |  avg time  |  max time  |%varavg| %total
---------------------------------------------------------------
Pair    | 0.0033796  | 0.14729    | 0.79799    |  55.3 |  4.67
Bond    | 0.0010176  | 0.18173    | 0.77075    |  55.8 |  5.76
Neigh   | 0.0098369  | 0.010719   | 0.011707   |   0.5 |  0.34
Comm    | 1.3599     | 2.3306     | 2.813      |  32.5 | 73.92
Output  | 0.0010873  | 0.0021549  | 0.0032083  |   1.5 |  0.07
Modify  | 0.11524    | 0.36493    | 1.4013     |  74.1 | 11.57
Other   |            | 0.1154     |            |       |  3.66

Nlocal:        10.0208 ave          43 max           0 min
Histogram: 22 7 5 5 1 1 2 1 2 2
Nghost:        1931.62 ave        2419 max        1333 min
Histogram: 8 0 0 0 24 0 0 0 0 16
Neighs:              0 ave           0 max           0 min
Histogram: 48 0 0 0 0 0 0 0 0 0

Total # of neighbors = 0
Ave neighs/atom = 0
Ave special neighs/atom = 15.567568
Neighbor list builds = 30
Dangerous builds = 0
fix             myat1 all ave/time 1000 10 10000 v_zave v_zdes file simulation_data/abpot/${cpt}.dat
fix             myat1 all ave/time 1000 10 10000 v_zave v_zdes file simulation_data/abpot/15.dat
run             50000
Generated 0 of 1 mixed pair_coeff terms from geometric mixing rule
Per MPI rank memory allocation (min/avg/max) = 13.32 | 13.86 | 14.98 Mbytes
   Step          Temp          E_pair         E_mol          TotEng         Press     
    870000   308.95766      391.92544      18530.903      19364.881     -78.081042    
    880000   314.38652      386.74591      18546.092      19382.659     -126.57191    
    890000   302.15279      391.97815      18547.231      19371.526     -51.140292    
    900000   283.78083      386.02601      18542.948      19335.004     -187.83491    
    910000   296.11331      394.82261      18553.554      19372.052      6.8731817    
    920000   307.78818      382.76701      18557.483      19380.63      -210.22178    
Loop time of 15.8843 on 48 procs for 50000 steps with 481 atoms

Performance: 13.598 ns/day, 1.765 hours/ns, 3147.769 timesteps/s, 1.514 Matom-step/s
100.0% CPU use with 48 MPI tasks x 1 OpenMP threads

MPI task timing breakdown:
Section |  min time  |  avg time  |  max time  |%varavg| %total
---------------------------------------------------------------
Pair    | 0.017061   | 0.73633    | 3.9507     | 124.2 |  4.64
Bond    | 0.0051052  | 0.9078     | 3.8184     | 124.6 |  5.72
Neigh   | 0.056254   | 0.061328   | 0.067033   |   1.2 |  0.39
Comm    | 7.0999     | 11.812     | 14.356     |  73.7 | 74.37
Output  | 0.0056723  | 0.011039   | 0.01622    |   3.2 |  0.07
Modify  | 0.57634    | 1.7809     | 7.1442     | 169.3 | 11.21
Other   |            | 0.5744     |            |       |  3.62

Nlocal:        10.0208 ave          44 max           0 min
Histogram: 21 5 11 3 0 1 1 5 0 1
Nghost:        1930.85 ave        2410 max        1329 min
Histogram: 8 0 0 0 24 0 0 0 0 16
Neighs:              0 ave           0 max           0 min
Histogram: 48 0 0 0 0 0 0 0 0 0

Total # of neighbors = 0
Ave neighs/atom = 0
Ave special neighs/atom = 15.567568
Neighbor list builds = 172
Dangerous builds = 0
unfix           myat1
next            cpt
jump            SELF loop
variable        zdes equal  -15+0.60*(${cpt}-1)
variable        zdes equal  -15+0.60*(16-1)
variable        zave equal xcm(H2,z)
fix             mytth2 H2 spring tether ${k1} 2.5 2.5 ${zdes} 0
fix             mytth2 H2 spring tether 5 2.5 2.5 ${zdes} 0
fix             mytth2 H2 spring tether 5 2.5 2.5 -6 0
run             10000
Generated 0 of 1 mixed pair_coeff terms from geometric mixing rule
Per MPI rank memory allocation (min/avg/max) = 13.32 | 13.86 | 14.98 Mbytes
   Step          Temp          E_pair         E_mol          TotEng         Press     
    920000   307.78818      382.76701      18557.483      19380.63      -210.22178    
    930000   307.02787      393.57693      18567.86       19400.729     -29.51821     
Loop time of 3.16302 on 48 procs for 10000 steps with 481 atoms

Performance: 13.658 ns/day, 1.757 hours/ns, 3161.531 timesteps/s, 1.521 Matom-step/s
100.0% CPU use with 48 MPI tasks x 1 OpenMP threads

MPI task timing breakdown:
Section |  min time  |  avg time  |  max time  |%varavg| %total
---------------------------------------------------------------
Pair    | 0.0034002  | 0.1473     | 0.80113    |  55.7 |  4.66
Bond    | 0.0010156  | 0.18133    | 0.72646    |  55.7 |  5.73
Neigh   | 0.013442   | 0.014784   | 0.016174   |   0.6 |  0.47
Comm    | 1.3802     | 2.3431     | 2.8499     |  32.6 | 74.08
Output  | 0.0011349  | 0.0021793  | 0.0032126  |   1.4 |  0.07
Modify  | 0.11262    | 0.35975    | 1.4062     |  74.2 | 11.37
Other   |            | 0.1146     |            |       |  3.62

Nlocal:        10.0208 ave          46 max           0 min
Histogram: 20 10 6 5 0 2 0 3 0 2
Nghost:        1933.85 ave        2416 max        1327 min
Histogram: 8 0 0 0 24 0 0 0 0 16
Neighs:              0 ave           0 max           0 min
Histogram: 48 0 0 0 0 0 0 0 0 0

Total # of neighbors = 0
Ave neighs/atom = 0
Ave special neighs/atom = 15.567568
Neighbor list builds = 42
Dangerous builds = 0
fix             myat1 all ave/time 1000 10 10000 v_zave v_zdes file simulation_data/abpot/${cpt}.dat
fix             myat1 all ave/time 1000 10 10000 v_zave v_zdes file simulation_data/abpot/16.dat
run             50000
Generated 0 of 1 mixed pair_coeff terms from geometric mixing rule
Per MPI rank memory allocation (min/avg/max) = 13.32 | 13.86 | 14.98 Mbytes
   Step          Temp          E_pair         E_mol          TotEng         Press     
    930000   307.02787      393.57693      18567.86       19400.729     -29.51821     
    940000   310.62182      392.25346      18549.144      19385.831      12.844777    
    950000   289.1412       391.06476      18556.925      19361.69      -91.520641    
    960000   313.77525      387.57261      18522.912      19359.43       2.1707158    
    970000   310.11579      384.31622      18552.482      19380.509     -255.23463    
    980000   299.79323      392.71446      18562.842      19384.498     -53.17256     
Loop time of 16.1634 on 48 procs for 50000 steps with 481 atoms

Performance: 13.363 ns/day, 1.796 hours/ns, 3093.402 timesteps/s, 1.488 Matom-step/s
100.0% CPU use with 48 MPI tasks x 1 OpenMP threads

MPI task timing breakdown:
Section |  min time  |  avg time  |  max time  |%varavg| %total
---------------------------------------------------------------
Pair    | 0.017044   | 0.73678    | 3.934      | 124.0 |  4.56
Bond    | 0.0051393  | 0.90862    | 4.0537     | 124.9 |  5.62
Neigh   | 0.068219   | 0.074388   | 0.081175   |   1.3 |  0.46
Comm    | 7.2502     | 12.035     | 14.589     |  75.0 | 74.46
Output  | 0.0056381  | 0.011012   | 0.016174   |   3.2 |  0.07
Modify  | 0.5667     | 1.823      | 7.3221     | 175.6 | 11.28
Other   |            | 0.5749     |            |       |  3.56

Nlocal:        10.0208 ave          40 max           0 min
Histogram: 22 3 7 6 2 0 1 2 2 3
Nghost:        1934.23 ave        2416 max        1333 min
Histogram: 8 0 0 0 24 0 0 0 0 16
Neighs:              0 ave           0 max           0 min
Histogram: 48 0 0 0 0 0 0 0 0 0

Total # of neighbors = 0
Ave neighs/atom = 0
Ave special neighs/atom = 15.567568
Neighbor list builds = 203
Dangerous builds = 0
unfix           myat1
next            cpt
jump            SELF loop
variable        zdes equal  -15+0.60*(${cpt}-1)
variable        zdes equal  -15+0.60*(17-1)
variable        zave equal xcm(H2,z)
fix             mytth2 H2 spring tether ${k1} 2.5 2.5 ${zdes} 0
fix             mytth2 H2 spring tether 5 2.5 2.5 ${zdes} 0
fix             mytth2 H2 spring tether 5 2.5 2.5 -5.4 0
run             10000
Generated 0 of 1 mixed pair_coeff terms from geometric mixing rule
Per MPI rank memory allocation (min/avg/max) = 13.32 | 13.86 | 14.98 Mbytes
   Step          Temp          E_pair         E_mol          TotEng         Press     
    980000   299.79323      392.71446      18562.842      19384.498     -53.17256     
    990000   308.10038      392.18997      18543.166      19376.183     -72.9347      
Loop time of 3.25495 on 48 procs for 10000 steps with 481 atoms

Performance: 13.272 ns/day, 1.808 hours/ns, 3072.245 timesteps/s, 1.478 Matom-step/s
100.0% CPU use with 48 MPI tasks x 1 OpenMP threads

MPI task timing breakdown:
Section |  min time  |  avg time  |  max time  |%varavg| %total
---------------------------------------------------------------
Pair    | 0.0034003  | 0.1471     | 0.80886    |  55.3 |  4.52
Bond    | 0.0010206  | 0.18158    | 0.80738    |  56.1 |  5.58
Neigh   | 0.016155   | 0.017661   | 0.019279   |   0.6 |  0.54
Comm    | 1.4331     | 2.4198     | 2.9424     |  33.9 | 74.34
Output  | 0.0011343  | 0.0021871  | 0.0032415  |   1.4 |  0.07
Modify  | 0.11565    | 0.37155    | 1.5014     |  79.4 | 11.42
Other   |            | 0.115      |            |       |  3.53

Nlocal:        10.0208 ave          43 max           0 min
Histogram: 22 5 9 4 0 1 1 3 2 1
Nghost:        1927.98 ave        2408 max        1331 min
Histogram: 8 0 0 0 24 0 0 0 0 16
Neighs:              0 ave           0 max           0 min
Histogram: 48 0 0 0 0 0 0 0 0 0

Total # of neighbors = 0
Ave neighs/atom = 0
Ave special neighs/atom = 15.567568
Neighbor list builds = 48
Dangerous builds = 0
[...]

MPI task timing breakdown:
Section |  min time  |  avg time  |  max time  |%varavg| %total
---------------------------------------------------------------
Pair    | 0.0033474  | 0.14503    | 0.85812    |  54.2 |  4.53
Bond    | 0.0010192  | 0.18184    | 0.76284    |  55.7 |  5.68
Neigh   | 0.0068179  | 0.0073971  | 0.0080269  |   0.4 |  0.23
Comm    | 1.3723     | 2.389      | 2.896      |  32.6 | 74.60
Output  | 0.001075   | 0.0021344  | 0.003194   |   1.5 |  0.07
Modify  | 0.11556    | 0.36166    | 1.4317     |  76.8 | 11.29
Other   |            | 0.1154     |            |       |  3.60

Nlocal:        10.0208 ave          41 max           0 min
Histogram: 22 3 10 5 0 0 1 3 1 3
Nghost:        1926.98 ave        2403 max        1332 min
Histogram: 8 0 0 0 24 0 0 0 0 16
Neighs:              0 ave           0 max           0 min
Histogram: 48 0 0 0 0 0 0 0 0 0

Total # of neighbors = 0
Ave neighs/atom = 0
Ave special neighs/atom = 15.567568
Neighbor list builds = 20
Dangerous builds = 0
fix             myat1 all ave/time 1000 10 10000 v_zave v_zdes file simulation_data/abpot/${cpt}.dat
fix             myat1 all ave/time 1000 10 10000 v_zave v_zdes file simulation_data/abpot/47.dat
run             50000
Generated 0 of 1 mixed pair_coeff terms from geometric mixing rule
Per MPI rank memory allocation (min/avg/max) = 13.32 | 13.87 | 14.98 Mbytes
   Step          Temp          E_pair         E_mol          TotEng         Press     
   2790000   298.17133      374.82212      18497.421      19298.863     -43.355709    
   2800000   306.11231      379.587        18504.281      19321.85       211.20072    
   2810000   305.17107      369.05344      18538.778      19344.467     -192.36571    
   2820000   297.98119      378.19676      18516.825      19321.37       122.92736    
   2830000   292.91838      370.21263      18492.275      19281.592      0.52971821   
   2840000   313.30287      356.84779      18527.434      19332.552     -401.53466    
Loop time of 15.9842 on 48 procs for 50000 steps with 481 atoms

Performance: 13.513 ns/day, 1.776 hours/ns, 3128.079 timesteps/s, 1.505 Matom-step/s
100.0% CPU use with 48 MPI tasks x 1 OpenMP threads

MPI task timing breakdown:
Section |  min time  |  avg time  |  max time  |%varavg| %total
---------------------------------------------------------------
Pair    | 0.01691    | 0.72348    | 4.2277     | 121.2 |  4.53
Bond    | 0.0051385  | 0.90816    | 3.9504     | 125.1 |  5.68
Neigh   | 0.028803   | 0.031116   | 0.03382    |   0.8 |  0.19
Comm    | 6.994      | 11.932     | 14.341     |  72.5 | 74.65
Output  | 0.0056667  | 0.010907   | 0.016306   |   3.2 |  0.07
Modify  | 0.55687    | 1.8026     | 7.1575     | 169.5 | 11.28
Other   |            | 0.5757     |            |       |  3.60

Nlocal:        10.0208 ave          48 max           0 min
Histogram: 21 8 10 1 1 3 0 2 0 2
Nghost:        1921.85 ave        2395 max        1325 min
Histogram: 8 0 0 0 24 0 0 0 0 16
Neighs:              0 ave           0 max           0 min
Histogram: 48 0 0 0 0 0 0 0 0 0

Total # of neighbors = 0
Ave neighs/atom = 0
Ave special neighs/atom = 15.567568
Neighbor list builds = 82
Dangerous builds = 0
unfix           myat1
next            cpt
jump            SELF loop
variable        zdes equal  -15+0.60*(${cpt}-1)
variable        zdes equal  -15+0.60*(48-1)
variable        zave equal xcm(H2,z)
fix             mytth2 H2 spring tether ${k1} 2.5 2.5 ${zdes} 0
fix             mytth2 H2 spring tether 5 2.5 2.5 ${zdes} 0
fix             mytth2 H2 spring tether 5 2.5 2.5 13.2 0
run             10000
Generated 0 of 1 mixed pair_coeff terms from geometric mixing rule
Per MPI rank memory allocation (min/avg/max) = 13.32 | 13.87 | 14.98 Mbytes
   Step          Temp          E_pair         E_mol          TotEng         Press     
   2840000   313.30287      356.84779      18527.434      19332.552     -401.53466    
   2850000   309.98427      369.96828      18527.323      19340.813      35.799749    
Loop time of 3.2925 on 48 procs for 10000 steps with 481 atoms

Performance: 13.121 ns/day, 1.829 hours/ns, 3037.205 timesteps/s, 1.461 Matom-step/s
99.9% CPU use with 48 MPI tasks x 1 OpenMP threads

MPI task timing breakdown:
Section |  min time  |  avg time  |  max time  |%varavg| %total
---------------------------------------------------------------
Pair    | 0.0033925  | 0.14485    | 0.83874    |  54.5 |  4.40
Bond    | 0.0010276  | 0.18178    | 0.80496    |  56.0 |  5.52
Neigh   | 0.0042598  | 0.0046043  | 0.0049951  |   0.3 |  0.14
Comm    | 1.5124     | 2.4703     | 3.0035     |  34.0 | 75.03
Output  | 0.0011123  | 0.0021462  | 0.0031928  |   1.4 |  0.07
Modify  | 0.11301    | 0.37378    | 1.5342     |  81.8 | 11.35
Other   |            | 0.115      |            |       |  3.49

Nlocal:        10.0208 ave          43 max           0 min
Histogram: 20 7 7 6 1 0 2 1 2 2
Nghost:         1928.6 ave        2411 max        1330 min
Histogram: 8 0 0 0 24 0 0 0 0 16
Neighs:              0 ave           0 max           0 min
Histogram: 48 0 0 0 0 0 0 0 0 0

Total # of neighbors = 0
Ave neighs/atom = 0
Ave special neighs/atom = 15.567568
Neighbor list builds = 12
Dangerous builds = 0
fix             myat1 all ave/time 1000 10 10000 v_zave v_zdes file simulation_data/abpot/${cpt}.dat
fix             myat1 all ave/time 1000 10 10000 v_zave v_zdes file simulation_data/abpot/48.dat
run             50000
Generated 0 of 1 mixed pair_coeff terms from geometric mixing rule
Per MPI rank memory allocation (min/avg/max) = 13.32 | 13.87 | 14.98 Mbytes
   Step          Temp          E_pair         E_mol          TotEng         Press     
   2850000   309.98427      369.96828      18527.323      19340.813      35.799749    
   2860000   297.95633      376.60539      18540.246      19343.164      165.68394    
   2870000   293.66858      356.5934       18531.826      19308.597     -423.39646    
   2880000   309.89039      378.78309      18502.497      19324.668      178.59534    
   2890000   311.66824      373.42638      18522.031      19341.389     -0.12263538   
   2900000   286.86         370.21482      18532.03       19312.681     -134.76812    
Loop time of 16.3345 on 48 procs for 50000 steps with 481 atoms

Performance: 13.224 ns/day, 1.815 hours/ns, 3061.014 timesteps/s, 1.472 Matom-step/s
100.0% CPU use with 48 MPI tasks x 1 OpenMP threads

MPI task timing breakdown:
Section |  min time  |  avg time  |  max time  |%varavg| %total
---------------------------------------------------------------
Pair    | 0.016865   | 0.72251    | 4.1125     | 121.4 |  4.42
Bond    | 0.0050998  | 0.90822    | 3.963      | 124.7 |  5.56
Neigh   | 0.024409   | 0.026386   | 0.028684   |   0.7 |  0.16
Comm    | 7.5779     | 12.201     | 14.691     |  74.6 | 74.70
Output  | 0.0056919  | 0.010946   | 0.016197   |   3.2 |  0.07
Modify  | 0.56771    | 1.8918     | 7.5938     | 177.8 | 11.58
Other   |            | 0.5734     |            |       |  3.51

Nlocal:        10.0208 ave          44 max           0 min
Histogram: 22 8 4 5 1 2 2 0 2 2
Nghost:        1925.23 ave        2403 max        1334 min
Histogram: 8 0 0 0 24 0 0 0 0 16
Neighs:              0 ave           0 max           0 min
Histogram: 48 0 0 0 0 0 0 0 0 0

Total # of neighbors = 0
Ave neighs/atom = 0
Ave special neighs/atom = 15.567568
Neighbor list builds = 68
Dangerous builds = 0
unfix           myat1
next            cpt
jump            SELF loop
variable        zdes equal  -15+0.60*(${cpt}-1)
variable        zdes equal  -15+0.60*(49-1)
variable        zave equal xcm(H2,z)
fix             mytth2 H2 spring tether ${k1} 2.5 2.5 ${zdes} 0
fix             mytth2 H2 spring tether 5 2.5 2.5 ${zdes} 0
fix             mytth2 H2 spring tether 5 2.5 2.5 13.8 0
run             10000
Generated 0 of 1 mixed pair_coeff terms from geometric mixing rule
Per MPI rank memory allocation (min/avg/max) = 13.32 | 13.87 | 14.98 Mbytes
   Step          Temp          E_pair         E_mol          TotEng         Press     
   2900000   286.86         370.21482      18532.03       19312.681     -134.76812    
   2910000   289.62911      377.92759      18528.865      19321.191      52.00526     
Loop time of 3.32199 on 48 procs for 10000 steps with 481 atoms

Performance: 13.004 ns/day, 1.846 hours/ns, 3010.244 timesteps/s, 1.448 Matom-step/s
100.0% CPU use with 48 MPI tasks x 1 OpenMP threads

MPI task timing breakdown:
Section |  min time  |  avg time  |  max time  |%varavg| %total
---------------------------------------------------------------
Pair    | 0.003364   | 0.14449    | 0.81674    |  54.1 |  4.35
Bond    | 0.001011   | 0.18144    | 0.76114    |  55.8 |  5.46
Neigh   | 0.0058631  | 0.0063422  | 0.0068662  |   0.4 |  0.19
Comm    | 1.4782     | 2.4856     | 2.9877     |  33.9 | 74.82
Output  | 0.0011476  | 0.0022036  | 0.0034369  |   1.4 |  0.07
Modify  | 0.11043    | 0.38736    | 1.5563     |  82.2 | 11.66
Other   |            | 0.1146     |            |       |  3.45

Nlocal:        10.0208 ave          43 max           0 min
Histogram: 20 11 2 6 2 0 2 2 1 2
Nghost:        1933.73 ave        2413 max        1333 min
Histogram: 8 0 0 0 24 0 0 0 0 16
Neighs:              0 ave           0 max           0 min
Histogram: 48 0 0 0 0 0 0 0 0 0

Total # of neighbors = 0
Ave neighs/atom = 0
Ave special neighs/atom = 15.567568
Neighbor list builds = 16
Dangerous builds = 0
fix             myat1 all ave/time 1000 10 10000 v_zave v_zdes file simulation_data/abpot/${cpt}.dat
fix             myat1 all ave/time 1000 10 10000 v_zave v_zdes file simulation_data/abpot/49.dat
run             50000
Generated 0 of 1 mixed pair_coeff terms from geometric mixing rule
Per MPI rank memory allocation (min/avg/max) = 13.32 | 13.87 | 14.98 Mbytes
   Step          Temp          E_pair         E_mol          TotEng         Press     
   2910000   289.62911      377.92759      18528.865      19321.191      52.00526     
   2920000   301.69808      379.62732      18542.297      19353.591      133.9729     
   2930000   330.31964      361.72948      18526.5        19360.847     -194.50846    
   2940000   294.55928      369.00368      18542.938      19333.394     -146.72947    
   2950000   287.15192      375.49327      18537.691      19324.038      153.98164    
   2960000   295.16271      372.42816      18506.712      19301.456     -32.939948    
Loop time of 16.0793 on 48 procs for 50000 steps with 481 atoms

Performance: 13.433 ns/day, 1.787 hours/ns, 3109.587 timesteps/s, 1.496 Matom-step/s
100.0% CPU use with 48 MPI tasks x 1 OpenMP threads

MPI task timing breakdown:
Section |  min time  |  avg time  |  max time  |%varavg| %total
---------------------------------------------------------------
Pair    | 0.016726   | 0.72241    | 4.0116     | 120.5 |  4.49
Bond    | 0.0051103  | 0.90719    | 3.8378     | 124.6 |  5.64
Neigh   | 0.025937   | 0.028039   | 0.030613   |   0.8 |  0.17
Comm    | 7.4976     | 12.021     | 14.582     |  73.7 | 74.76
Output  | 0.0055068  | 0.010743   | 0.015904   |   3.2 |  0.07
Modify  | 0.57174    | 1.8165     | 7.2792     | 174.5 | 11.30
Other   |            | 0.5735     |            |       |  3.57

Nlocal:        10.0208 ave          40 max           0 min
Histogram: 19 8 5 6 2 0 3 0 2 3
Nghost:        1931.98 ave        2413 max        1334 min
Histogram: 8 0 0 0 24 0 0 0 0 16
Neighs:              0 ave           0 max           0 min
Histogram: 48 0 0 0 0 0 0 0 0 0

Total # of neighbors = 0
Ave neighs/atom = 0
Ave special neighs/atom = 15.567568
Neighbor list builds = 75
Dangerous builds = 0
unfix           myat1
next            cpt
jump            SELF loop
variable        zdes equal  -15+0.60*(${cpt}-1)
variable        zdes equal  -15+0.60*(50-1)
variable        zave equal xcm(H2,z)
fix             mytth2 H2 spring tether ${k1} 2.5 2.5 ${zdes} 0
fix             mytth2 H2 spring tether 5 2.5 2.5 ${zdes} 0
fix             mytth2 H2 spring tether 5 2.5 2.5 14.4 0
run             10000
Generated 0 of 1 mixed pair_coeff terms from geometric mixing rule
Per MPI rank memory allocation (min/avg/max) = 13.32 | 13.87 | 14.98 Mbytes
   Step          Temp          E_pair         E_mol          TotEng         Press     
   2960000   295.16271      372.42816      18506.712      19301.456     -32.939948    
   2970000   315.41583      374.33297      18526.163      19351.789      116.88137    
Loop time of 3.20859 on 48 procs for 10000 steps with 481 atoms

Performance: 13.464 ns/day, 1.783 hours/ns, 3116.630 timesteps/s, 1.499 Matom-step/s
100.0% CPU use with 48 MPI tasks x 1 OpenMP threads

MPI task timing breakdown:
Section |  min time  |  avg time  |  max time  |%varavg| %total
---------------------------------------------------------------
Pair    | 0.0033445  | 0.14432    | 0.80733    |  53.5 |  4.50
Bond    | 0.0010233  | 0.18116    | 0.84052    |  56.6 |  5.65
Neigh   | 0.0047739  | 0.0051748  | 0.005648   |   0.3 |  0.16
Comm    | 1.3906     | 2.3995     | 2.9076     |  32.1 | 74.78
Output  | 0.0011561  | 0.002197   | 0.0032959  |   1.4 |  0.07
Modify  | 0.11302    | 0.36121    | 1.4329     |  75.4 | 11.26
Other   |            | 0.115      |            |       |  3.58

Nlocal:        10.0208 ave          35 max           0 min
Histogram: 20 3 9 6 1 1 0 0 0 8
Nghost:        1927.48 ave        2404 max        1338 min
Histogram: 8 0 0 0 24 0 0 0 0 16
Neighs:              0 ave           0 max           0 min
Histogram: 48 0 0 0 0 0 0 0 0 0

Total # of neighbors = 0
Ave neighs/atom = 0
Ave special neighs/atom = 15.567568
Neighbor list builds = 14
Dangerous builds = 0
fix             myat1 all ave/time 1000 10 10000 v_zave v_zdes file simulation_data/abpot/${cpt}.dat
fix             myat1 all ave/time 1000 10 10000 v_zave v_zdes file simulation_data/abpot/50.dat
run             50000
Generated 0 of 1 mixed pair_coeff terms from geometric mixing rule
Per MPI rank memory allocation (min/avg/max) = 13.32 | 13.87 | 14.98 Mbytes
   Step          Temp          E_pair         E_mol          TotEng         Press     
   2970000   315.41583      374.33297      18526.163      19351.789      116.88137    
   2980000   311.27343      374.87724      18542.176      19362.42       102.64726    
   2990000   296.12985      367.22308      18557.997      19348.92      -165.15947    
   3000000   298.31528      369.00178      18528.662      19324.49       35.332656    
   3010000   276.69253      370.12876      18536.444      19302.462     -71.921666    
   3020000   299.0627       362.9231       18484.011      19274.83      -94.597431    
Loop time of 15.7688 on 48 procs for 50000 steps with 481 atoms

Performance: 13.698 ns/day, 1.752 hours/ns, 3170.821 timesteps/s, 1.525 Matom-step/s
100.0% CPU use with 48 MPI tasks x 1 OpenMP threads

MPI task timing breakdown:
Section |  min time  |  avg time  |  max time  |%varavg| %total
---------------------------------------------------------------
Pair    | 0.016702   | 0.72231    | 4.0826     | 120.8 |  4.58
Bond    | 0.0051443  | 0.90653    | 4.1362     | 125.0 |  5.75
Neigh   | 0.018742   | 0.02026    | 0.022079   |   0.7 |  0.13
Comm    | 6.9506     | 11.765     | 14.282     |  72.0 | 74.61
Output  | 0.0054677  | 0.010725   | 0.015889   |   3.2 |  0.07
Modify  | 0.55165    | 1.7705     | 7.0252     | 168.0 | 11.23
Other   |            | 0.5736     |            |       |  3.64

Nlocal:        10.0208 ave          41 max           0 min
Histogram: 21 7 7 3 2 1 1 0 4 2
Nghost:        1931.98 ave        2419 max        1336 min
Histogram: 8 0 0 0 24 0 0 0 0 16
Neighs:              0 ave           0 max           0 min
Histogram: 48 0 0 0 0 0 0 0 0 0

Total # of neighbors = 0
Ave neighs/atom = 0
Ave special neighs/atom = 15.567568
Neighbor list builds = 55
Dangerous builds = 0
unfix           myat1
next            cpt
jump            SELF loop
variable        zdes equal  -15+0.60*(${cpt}-1)
variable        zdes equal  -15+0.60*(51-1)
variable        zave equal xcm(H2,z)
fix             mytth2 H2 spring tether ${k1} 2.5 2.5 ${zdes} 0
fix             mytth2 H2 spring tether 5 2.5 2.5 ${zdes} 0
fix             mytth2 H2 spring tether 5 2.5 2.5 15 0
run             10000
Generated 0 of 1 mixed pair_coeff terms from geometric mixing rule
Per MPI rank memory allocation (min/avg/max) = 13.32 | 13.87 | 14.98 Mbytes
   Step          Temp          E_pair         E_mol          TotEng         Press     
   3020000   299.0627       362.9231       18484.011      19274.83      -94.597431    
   3030000   330.95599      362.39107      18515.507      19351.427     -183.67496    
Loop time of 3.18333 on 48 procs for 10000 steps with 481 atoms

Performance: 13.571 ns/day, 1.769 hours/ns, 3141.365 timesteps/s, 1.511 Matom-step/s
100.0% CPU use with 48 MPI tasks x 1 OpenMP threads

MPI task timing breakdown:
Section |  min time  |  avg time  |  max time  |%varavg| %total
---------------------------------------------------------------
Pair    | 0.0033335  | 0.1442     | 0.80881    |  53.8 |  4.53
Bond    | 0.0010143  | 0.18115    | 0.84906    |  56.3 |  5.69
Neigh   | 0.0039649  | 0.0043573  | 0.0047488  |   0.3 |  0.14
Comm    | 1.3371     | 2.3822     | 2.8898     |  32.4 | 74.83
Output  | 0.0011021  | 0.0021278  | 0.0031587  |   1.4 |  0.07
Modify  | 0.11001    | 0.35407    | 1.4172     |  76.0 | 11.12
Other   |            | 0.1153     |            |       |  3.62

Nlocal:        10.0208 ave          46 max           0 min
Histogram: 20 10 7 3 1 0 2 4 0 1
Nghost:        1929.48 ave        2408 max        1339 min
Histogram: 8 0 0 0 24 0 0 0 0 16
Neighs:              0 ave           0 max           0 min
Histogram: 48 0 0 0 0 0 0 0 0 0

Total # of neighbors = 0
Ave neighs/atom = 0
Ave special neighs/atom = 15.567568
Neighbor list builds = 12
Dangerous builds = 0
fix             myat1 all ave/time 1000 10 10000 v_zave v_zdes file simulation_data/abpot/${cpt}.dat
fix             myat1 all ave/time 1000 10 10000 v_zave v_zdes file simulation_data/abpot/51.dat
run             50000
Generated 0 of 1 mixed pair_coeff terms from geometric mixing rule
Per MPI rank memory allocation (min/avg/max) = 13.32 | 13.87 | 14.98 Mbytes
   Step          Temp          E_pair         E_mol          TotEng         Press     
   3030000   330.95599      362.39107      18515.507      19351.427     -183.67496    
   3040000   313.79408      369.79562      18512.199      19330.968     -14.679236    
   3050000   289.7526       368.57412      18524.272      19307.421     -118.99876    
   3060000   292.06176      363.08163      18533.023      19313.984     -238.48584    
   3070000   297.0574       378.89964      18532.453      19336.379      155.78486    
   3080000   313.35122      373.70004      18540.88       19362.919      5.7991377    
Loop time of 15.9427 on 48 procs for 50000 steps with 481 atoms

Performance: 13.548 ns/day, 1.771 hours/ns, 3136.222 timesteps/s, 1.509 Matom-step/s
100.0% CPU use with 48 MPI tasks x 1 OpenMP threads

MPI task timing breakdown:
Section |  min time  |  avg time  |  max time  |%varavg| %total
---------------------------------------------------------------
Pair    | 0.016913   | 0.72136    | 4.0185     | 120.0 |  4.52
Bond    | 0.0050906  | 0.90643    | 4.1249     | 125.2 |  5.69
Neigh   | 0.02181    | 0.02364    | 0.025764   |   0.7 |  0.15
Comm    | 7.3438     | 11.935     | 14.535     |  72.5 | 74.86
Output  | 0.0054501  | 0.010711   | 0.016187   |   3.2 |  0.07
Modify  | 0.5756     | 1.7716     | 6.9553     | 170.6 | 11.11
Other   |            | 0.5738     |            |       |  3.60

Nlocal:        10.0208 ave          41 max           0 min
Histogram: 22 6 6 5 1 1 2 0 2 3
Nghost:        1932.73 ave        2412 max        1332 min
Histogram: 8 0 0 0 24 0 0 0 0 16
Neighs:              0 ave           0 max           0 min
Histogram: 48 0 0 0 0 0 0 0 0 0

Total # of neighbors = 0
Ave neighs/atom = 0
Ave special neighs/atom = 15.567568
Neighbor list builds = 64
Dangerous builds = 0
unfix           myat1
next            cpt
jump            SELF loop

Total wall time: 0:16:30
