# --- log file ---

variable pre equal 112 # desired pressure (Atm)
variable tem equal 300 # desired temperature (K)

variable k1 equal 1.7 # spring constant
variable k2 equal 3.5 # spring constant

units real
atom_style molecular
boundary p p p
neighbor 1.0 bin
neigh_modify delay 3 one 6000
bond_style harmonic
angle_style harmonic
dihedral_style opls
improper_style harmonic
pair_style hybrid lj/cut 14 sg 15 cb 30 # Fluid-fluid interactions have a cutoff of 15 Å, fluid-solid interactions have a cutoff of 30 Å
# *--* C-C parameters *--*
bond_style harmonic
angle_style harmonic
dihedral_style opls
improper_style harmonic
# *--* C-C parameters *--*


# 2. Read the graphite platelet data file and define potentials parameters
read_data       ../geometry/carbonPlatelets/simulation_data/abpot_sys.data  extra/atom/types 1
Reading data file ...
  orthogonal box = (-30 -30 -30) to (30 30 30)
  2 by 2 by 4 MPI processor grid
  reading atoms ...
  480 atoms
  reading velocities ...
  480 velocities
  scanning bonds ...
  2 = max bonds/atom
  scanning angles ...
  3 = max angles/atom
  scanning dihedrals ...
  8 = max dihedrals/atom
  scanning impropers ...
  2 = max impropers/atom
  orthogonal box = (-30 -30 -30) to (30 30 30)
  2 by 2 by 4 MPI processor grid
  reading bonds ...
  676 bonds
  reading angles ...
  1268 angles
  reading dihedrals ...
  2394 dihedrals
  reading impropers ...
  396 impropers
Finding 1-2 1-3 1-4 neighbors ...
  special bond factors lj:    0        0        0       
  special bond factors coul:  0        0        0       
     3 = max # of 1-2 neighbors
     6 = max # of 1-3 neighbors
    18 = max # of 1-4 neighbors
    18 = max # of special neighbors
  special bonds CPU = 0.001 seconds
  read_data CPU = 0.042 seconds
include         PARM.lammps

#////////////////////////////////////////////////////////////////////////////////////////////////////////////////////////////////
#//     Filename: PARM.lammps
#//     File Type: LAMMPS input script
#//     Description: This script defines the parameters for the simulation of hydrogen absorption in graphite platelets.
#//     Author: Edoardo Cabiati
#//     Date: 2024-07-27
#////////////////////////////////////////////////////////////////////////////////////////////////////////////////////////////////

mass 2 2.016 # For now at least, in accordance with the paper by Wang and Johnson,
             # 1998, the hydrogen atoms are regarded as simple spherical atoms

# //////////////////////////////////////    C-C potentials    //////////////////////////////////////
pair_coeff 1 1 lj/cut 0.066 3.4
bond_coeff 1 469 1.4
angle_coeff 1 63 120
dihedral_coeff 1 0 7.25 0 0
improper_coeff 1 5 180
special_bonds lj 0.0 0.0 0.5
Finding 1-2 1-3 1-4 neighbors ...
  special bond factors lj:    0        0        0.5     
  special bond factors coul:  0        0        0       
     3 = max # of 1-2 neighbors
     6 = max # of 1-3 neighbors
    18 = max # of 1-4 neighbors
    18 = max # of special neighbors
  special bonds CPU = 0.001 seconds
# //////////////////////////////////////    C-C potentials    //////////////////////////////////////
# -------------------------------------------------------------------------------------------------
# //////////////////////////////////////    H-H potentials    //////////////////////////////////////
variable alpha equal 1.713          #|
variable sigma equal 1.567          #|
variable gamma equal 0.00993        #|
variable c6 equal 12.14             #|      The parameters are all in atomic units, the conversion to kcal/mol
variable c8 equal 215.2             #|      is performed in the pair_sg.cpp file
variable c9 equal 143.1             #|
variable c10 equal 4813.9           #|
variable rc equal 8.321             #|
pair_coeff 2 2 sg ${alpha} ${sigma} ${gamma} ${c6} ${c8} ${c9} ${c10} ${rc} # H-H potentials
pair_coeff 2 2 sg 1.713 ${sigma} ${gamma} ${c6} ${c8} ${c9} ${c10} ${rc} 
pair_coeff 2 2 sg 1.713 1.567 ${gamma} ${c6} ${c8} ${c9} ${c10} ${rc} 
pair_coeff 2 2 sg 1.713 1.567 0.00993 ${c6} ${c8} ${c9} ${c10} ${rc} 
pair_coeff 2 2 sg 1.713 1.567 0.00993 12.14 ${c8} ${c9} ${c10} ${rc} 
pair_coeff 2 2 sg 1.713 1.567 0.00993 12.14 215.2 ${c9} ${c10} ${rc} 
pair_coeff 2 2 sg 1.713 1.567 0.00993 12.14 215.2 143.1 ${c10} ${rc} 
pair_coeff 2 2 sg 1.713 1.567 0.00993 12.14 215.2 143.1 4813.9 ${rc} 
pair_coeff 2 2 sg 1.713 1.567 0.00993 12.14 215.2 143.1 4813.9 8.321 
#pair_coeff 2 2 sg 1.713 1.567 0.00993 12.14 215.2 143.1 4813.9 8.321 # H-H potentials
# //////////////////////////////////////    H-H potentials    //////////////////////////////////////
# -------------------------------------------------------------------------------------------------
# //////////////////////////////////////    C-H potentials    //////////////////////////////////////
# Parameters taken from the paper by Wang and Johnson, 1998
variable sigma_CC equal 3.43 # Å
variable sigma_HH equal 3.075 # Å
variable sigma_CH_geo equal sqrt(${sigma_CC}*${sigma_HH}) # Å
variable sigma_CH_geo equal sqrt(3.43*${sigma_HH}) 
variable sigma_CH_geo equal sqrt(3.43*3.075) 
variable sigma_CH_arit equal 0.5*(${sigma_CC}+${sigma_HH}) # Å
variable sigma_CH_arit equal 0.5*(3.43+${sigma_HH}) 
variable sigma_CH_arit equal 0.5*(3.43+3.075) 

variable P_par equal 0.57 # Å^3
variable P_perp equal 1.995 # Å^3
variable P_h equal 0.81 # Å^3
variable E_h equal 2.337e5*(1/503.23) # K * 1/503.23 kcal/mol/K = kcal/mol
variable E_c equal 1.39254e5*(1/503.23) # K * 1/503.23 kcal/mol/K = kcal/mol

variable epsilon_CB equal 4*v_E_h*v_E_c*v_P_h*(v_P_par+v_P_perp/2)/(v_sigma_CH_geo^6*(v_E_h+v_E_c)) # kcal/mol
# The following is a set of parameters taken from the paper "Theoretical investigation of the effect of graphite interlayer
# spacing on hydrogen absorption" by Rachel S. Aga, C. L. Fu, Maja Krčmar, and James R. Morris, where the CB potential is
# simplified into a 12-6 LJ potential 4*epsilon*⌊(sigma/r)^12 − (sigma/r)^6⌋ .
# variable epsilon equal 4*0.085094 # kcal/mol
# variable sigma equal 2.97 # Å

pair_coeff 1 2 cb ${epsilon_CB} ${sigma_CH_geo} ${P_par} ${P_perp} # C-H potential
pair_coeff 1 2 cb 0.750549668586509 ${sigma_CH_geo} ${P_par} ${P_perp} 
pair_coeff 1 2 cb 0.750549668586509 3.24765299870537 ${P_par} ${P_perp} 
pair_coeff 1 2 cb 0.750549668586509 3.24765299870537 0.57 ${P_perp} 
pair_coeff 1 2 cb 0.750549668586509 3.24765299870537 0.57 1.995 
#pair_coeff 1 2 lj/cut 0.3025 2.065
# //////////////////////////////////////    C-H potentials    //////////////////////////////////////

# 3. Add a single hydrogen molecule to the system, close to the center of the first platelet
create_atoms    2 single 0 0 -2
Created 1 atoms
  using lattice units in orthogonal box = (-30 -30 -30) to (30 30 30)
  create_atoms CPU = 0.000 seconds

group           C type 1
480 atoms in group C
group           H2 type 2
1 atoms in group H2

# 4. Equilibration
timestep        0.05
fix             mytth1 C spring/self ${k2} # Apply a spring force to the carbon atoms
fix             mytth1 C spring/self 3.5 
velocity        all create ${tem} 48 rot yes mom yes dist gaussian # Initialize velocities
velocity        all create 300 48 rot yes mom yes dist gaussian 
fix             mynpt all npt temp ${tem} ${tem} 100 x ${pre} ${pre} 1000 y ${pre} ${pre} 1000 # Apply NPT ensemble to the system
fix             mynpt all npt temp 300 ${tem} 100 x ${pre} ${pre} 1000 y ${pre} ${pre} 1000 
fix             mynpt all npt temp 300 300 100 x ${pre} ${pre} 1000 y ${pre} ${pre} 1000 
fix             mynpt all npt temp 300 300 100 x 112 ${pre} 1000 y ${pre} ${pre} 1000 
fix             mynpt all npt temp 300 300 100 x 112 112 1000 y ${pre} ${pre} 1000 
fix             mynpt all npt temp 300 300 100 x 112 112 1000 y 112 ${pre} 1000 
fix             mynpt all npt temp 300 300 100 x 112 112 1000 y 112 112 1000 

thermo          10000
dump            dump all atom 1000 simulation_data/dumps/absorption_pot.lammpstrj

run             20000

CITE-CITE-CITE-CITE-CITE-CITE-CITE-CITE-CITE-CITE-CITE-CITE-CITE

Your simulation uses code contributions which should be cited:

- Type Label Framework: https://doi.org/10.1021/acs.jpcb.3c08419

@Article{Gissinger24,
 author = {Jacob R. Gissinger, Ilia Nikiforov, Yaser Afshar, Brendon Waters, Moon-ki Choi, Daniel S. Karls, Alexander Stukowski, Wonpil Im, Hendrik Heinz, Axel Kohlmeyer, and Ellad B. Tadmor},
 title = {Type Label Framework for Bonded Force Fields in LAMMPS},
 journal = {J. Phys. Chem. B},
 year =    2024,
 volume =  128,
 number =  13,
 pages =   {3282–-3297}
}

CITE-CITE-CITE-CITE-CITE-CITE-CITE-CITE-CITE-CITE-CITE-CITE-CITE

Generated 0 of 1 mixed pair_coeff terms from geometric mixing rule
Neighbor list info ...
  update: every = 1 steps, delay = 3 steps, check = yes
  max neighbors/atom: 6000, page size: 100000
  master list distance cutoff = 31
  ghost atom cutoff = 31
  binsize = 15.5, bins = 4 4 4
  4 neighbor lists, perpetual/occasional/extra = 4 0 0
  (1) pair lj/cut, perpetual, skip trim from (4)
      attributes: half, newton on, cut 15
      pair build: skip/trim
      stencil: none
      bin: none
  (2) pair sg, perpetual, skip trim from (4)
      attributes: half, newton on, cut 16
      pair build: skip/trim
      stencil: none
      bin: none
  (3) pair cb, perpetual, skip from (4)
      attributes: half, newton on
      pair build: skip
      stencil: none
      bin: none
  (4) neighbor class addition, perpetual
      attributes: half, newton on
      pair build: half/bin/newton
      stencil: half/bin/3d
      bin: standard
Per MPI rank memory allocation (min/avg/max) = 13.34 | 13.66 | 13.99 Mbytes
   Step          Temp          E_pair         E_mol          TotEng         Press          Volume    
         0   300            308.43814      19603.922      20341.597     -432.48369      216000       
     10000   308.72719      373.58236      18568.419      19383.724     -313.9945       172136.64    
     20000   322.02648      371.05675      18538.378      19370.187     -418.66256      126544.33    
Loop time of 6.56857 on 16 procs for 20000 steps with 481 atoms

Performance: 13.154 ns/day, 1.825 hours/ns, 3044.802 timesteps/s, 1.465 Matom-step/s
99.7% CPU use with 16 MPI tasks x 1 OpenMP threads

MPI task timing breakdown:
Section |  min time  |  avg time  |  max time  |%varavg| %total
---------------------------------------------------------------
Pair    | 0.78605    | 1.1191     | 1.9704     |  27.8 | 17.04
Bond    | 0.92051    | 1.2479     | 1.4906     |  14.0 | 19.00
Neigh   | 0.024515   | 0.02531    | 0.026907   |   0.5 |  0.39
Comm    | 2.639      | 3.479      | 3.9265     |  19.9 | 52.96
Output  | 0.0031765  | 0.0058343  | 0.0083959  |   2.5 |  0.09
Modify  | 0.46153    | 0.52083    | 0.59406    |   6.2 |  7.93
Other   |            | 0.1705     |            |       |  2.60

Nlocal:        30.0625 ave          37 max          19 min
Histogram: 1 0 0 1 0 4 3 6 0 1
Nghost:        2326.06 ave        2341 max        2307 min
Histogram: 1 0 1 3 1 2 2 2 3 1
Neighs:              0 ave           0 max           0 min
Histogram: 16 0 0 0 0 0 0 0 0 0

Total # of neighbors = 0
Ave neighs/atom = 0
Ave special neighs/atom = 15.567568
Neighbor list builds = 55
Dangerous builds = 0
unfix           mynpt
unfix           mytth1

# 5. Umbrella sampling
fix             mynvt all nvt temp ${tem} ${tem} 100
fix             mynvt all nvt temp 300 ${tem} 100
fix             mynvt all nvt temp 300 300 100
fix             mytth1 C spring/self ${k2}
fix             mytth1 C spring/self 3.5

variable        cpt loop 51
label           loop
variable        zdes equal  -15+0.60*(${cpt}-1)
variable        zdes equal  -15+0.60*(1-1)
variable        zave equal xcm(H2,z)
fix             mytth2 H2 spring tether ${k1} 2.5 2.5 ${zdes} 0
fix             mytth2 H2 spring tether 1.7 2.5 2.5 ${zdes} 0
fix             mytth2 H2 spring tether 1.7 2.5 2.5 -15 0
run             10000
Generated 0 of 1 mixed pair_coeff terms from geometric mixing rule
Per MPI rank memory allocation (min/avg/max) = 13.35 | 14.19 | 15 Mbytes
   Step          Temp          E_pair         E_mol          TotEng         Press     
     20000   322.02648      371.05675      18538.378      19370.187     -418.66256    
     30000   294.69413      335.69218      18636.386      19393.723     -1327.2553    
Loop time of 2.90698 on 16 procs for 10000 steps with 481 atoms

Performance: 14.861 ns/day, 1.615 hours/ns, 3439.995 timesteps/s, 1.655 Matom-step/s
99.9% CPU use with 16 MPI tasks x 1 OpenMP threads

MPI task timing breakdown:
Section |  min time  |  avg time  |  max time  |%varavg| %total
---------------------------------------------------------------
Pair    | 0.074596   | 0.39875    | 0.64496    |  25.7 | 13.72
Bond    | 0.33923    | 0.50491    | 0.64798    |  10.2 | 17.37
Neigh   | 0.038191   | 0.039933   | 0.042976   |   0.8 |  1.37
Comm    | 1.4093     | 1.7833     | 2.1277     |  15.6 | 61.34
Output  | 0.0010631  | 0.0018686  | 0.0026188  |   1.1 |  0.06
Modify  | 0.073197   | 0.10182    | 0.13785    |   7.2 |  3.50
Other   |            | 0.07642    |            |       |  2.63

Nlocal:        30.0625 ave          41 max          20 min
Histogram: 1 2 2 2 2 1 2 2 0 2
Nghost:        2326.56 ave        2342 max        2309 min
Histogram: 2 0 3 1 2 2 0 2 0 4
Neighs:              0 ave           0 max           0 min
Histogram: 16 0 0 0 0 0 0 0 0 0

Total # of neighbors = 0
Ave neighs/atom = 0
Ave special neighs/atom = 15.567568
Neighbor list builds = 94
Dangerous builds = 0
fix             myat1 all ave/time 100 10 1000 v_zave v_zdes file simulation_data/abpot/${cpt}.dat
fix             myat1 all ave/time 100 10 1000 v_zave v_zdes file simulation_data/abpot/1.dat
run             50000
Generated 0 of 1 mixed pair_coeff terms from geometric mixing rule
Per MPI rank memory allocation (min/avg/max) = 13.35 | 14.22 | 15 Mbytes
   Step          Temp          E_pair         E_mol          TotEng         Press     
     30000   294.69413      335.69218      18636.386      19393.723     -1327.2553    
     40000   294.96746      407.05941      18517.293      19346.388      692.70089    
     50000   296.34077      386.03041      18540.559      19350.59       244.3201     
     60000   302.02226      363.98376      18552.721      19348.835     -279.78493    
     70000   316.23788      367.13417      18550.211      19369.815     -285.56677    
     80000   301.66087      386.80952      18561.422      19379.844      341.65917    
Loop time of 14.3991 on 16 procs for 50000 steps with 481 atoms

Performance: 15.001 ns/day, 1.600 hours/ns, 3472.444 timesteps/s, 1.670 Matom-step/s
100.0% CPU use with 16 MPI tasks x 1 OpenMP threads

MPI task timing breakdown:
Section |  min time  |  avg time  |  max time  |%varavg| %total
---------------------------------------------------------------
Pair    | 0.39052    | 1.9753     | 3.314      |  58.1 | 13.72
Bond    | 1.7717     | 2.5212     | 3.1813     |  21.5 | 17.51
Neigh   | 0.070524   | 0.073805   | 0.079584   |   1.1 |  0.51
Comm    | 7.1618     | 8.8924     | 10.619     |  35.0 | 61.76
Output  | 0.0061609  | 0.0092657  | 0.011967   |   1.9 |  0.06
Modify  | 0.35798    | 0.54471    | 0.71908    |  17.1 |  3.78
Other   |            | 0.3824     |            |       |  2.66

Nlocal:        30.0625 ave          36 max          24 min
Histogram: 3 1 0 1 2 5 0 0 0 4
Nghost:        2360.69 ave        2377 max        2345 min
Histogram: 3 0 2 1 1 4 1 2 0 2
Neighs:              0 ave           0 max           0 min
Histogram: 16 0 0 0 0 0 0 0 0 0

Total # of neighbors = 0
Ave neighs/atom = 0
Ave special neighs/atom = 15.567568
Neighbor list builds = 173
Dangerous builds = 0
unfix           myat1
next            cpt
jump            SELF loop
variable        zdes equal  -15+0.60*(${cpt}-1)
variable        zdes equal  -15+0.60*(2-1)
variable        zave equal xcm(H2,z)
fix             mytth2 H2 spring tether ${k1} 2.5 2.5 ${zdes} 0
fix             mytth2 H2 spring tether 1.7 2.5 2.5 ${zdes} 0
fix             mytth2 H2 spring tether 1.7 2.5 2.5 -14.4 0
run             10000
Generated 0 of 1 mixed pair_coeff terms from geometric mixing rule
Per MPI rank memory allocation (min/avg/max) = 13.35 | 14.22 | 15 Mbytes
   Step          Temp          E_pair         E_mol          TotEng         Press     
     80000   301.66087      386.80952      18561.422      19379.844      341.65917    
     90000   299.62933      361.89258      18614.191      19404.789     -535.85245    
Loop time of 2.89617 on 16 procs for 10000 steps with 481 atoms

Performance: 14.916 ns/day, 1.609 hours/ns, 3452.841 timesteps/s, 1.661 Matom-step/s
100.0% CPU use with 16 MPI tasks x 1 OpenMP threads

MPI task timing breakdown:
Section |  min time  |  avg time  |  max time  |%varavg| %total
---------------------------------------------------------------
Pair    | 0.075434   | 0.39573    | 0.69196    |  26.2 | 13.66
Bond    | 0.3388     | 0.50553    | 0.60117    |   8.9 | 17.46
Neigh   | 0.012346   | 0.013021   | 0.014134   |   0.5 |  0.45
Comm    | 1.4507     | 1.798      | 2.166      |  15.4 | 62.08
Output  | 0.0010141  | 0.001708   | 0.0022665  |   1.0 |  0.06
Modify  | 0.070256   | 0.10457    | 0.14043    |   7.9 |  3.61
Other   |            | 0.07761    |            |       |  2.68

Nlocal:        30.0625 ave          37 max          22 min
Histogram: 1 0 2 1 4 0 4 1 1 2
Nghost:        2341.94 ave        2356 max        2328 min
Histogram: 1 1 3 2 2 0 2 2 1 2
Neighs:              0 ave           0 max           0 min
Histogram: 16 0 0 0 0 0 0 0 0 0

Total # of neighbors = 0
Ave neighs/atom = 0
Ave special neighs/atom = 15.567568
Neighbor list builds = 31
Dangerous builds = 0
fix             myat1 all ave/time 100 10 1000 v_zave v_zdes file simulation_data/abpot/${cpt}.dat
fix             myat1 all ave/time 100 10 1000 v_zave v_zdes file simulation_data/abpot/2.dat
run             50000
Generated 0 of 1 mixed pair_coeff terms from geometric mixing rule
Per MPI rank memory allocation (min/avg/max) = 13.35 | 14.22 | 15 Mbytes
   Step          Temp          E_pair         E_mol          TotEng         Press     
     90000   299.62933      361.89258      18614.191      19404.789     -535.85245    
    100000   292.41088      379.3818       18535.514      19333.274      66.420351    
    110000   302.91747      390.83579      18529.555      19353.802      384.12169    
    120000   309.46519      352.45214      18536.137      19331.368     -579.69797    
    130000   277.63967      380.30531      18547.746      19325.295     -25.670039    
    140000   287.70847      372.57045      18561.266      19345.487     -148.61383    
Loop time of 14.615 on 16 procs for 50000 steps with 481 atoms

Performance: 14.779 ns/day, 1.624 hours/ns, 3421.144 timesteps/s, 1.646 Matom-step/s
100.0% CPU use with 16 MPI tasks x 1 OpenMP threads

MPI task timing breakdown:
Section |  min time  |  avg time  |  max time  |%varavg| %total
---------------------------------------------------------------
Pair    | 0.41297    | 1.9791     | 3.5663     |  59.7 | 13.54
Bond    | 1.6759     | 2.5293     | 2.975      |  21.3 | 17.31
Neigh   | 0.040799   | 0.042823   | 0.046283   |   0.9 |  0.29
Comm    | 7.3016     | 9.1163     | 10.727     |  35.5 | 62.38
Output  | 0.0061231  | 0.0088366  | 0.011073   |   1.6 |  0.06
Modify  | 0.35868    | 0.55144    | 0.72754    |  17.2 |  3.77
Other   |            | 0.3872     |            |       |  2.65

Nlocal:        30.0625 ave          42 max          20 min
Histogram: 1 1 1 3 3 4 1 1 0 1
Nghost:        2366.31 ave        2383 max        2351 min
Histogram: 1 3 2 1 2 0 2 2 1 2
Neighs:              0 ave           0 max           0 min
Histogram: 16 0 0 0 0 0 0 0 0 0

Total # of neighbors = 0
Ave neighs/atom = 0
Ave special neighs/atom = 15.567568
Neighbor list builds = 99
Dangerous builds = 0
unfix           myat1
next            cpt
jump            SELF loop
variable        zdes equal  -15+0.60*(${cpt}-1)
variable        zdes equal  -15+0.60*(3-1)
variable        zave equal xcm(H2,z)
fix             mytth2 H2 spring tether ${k1} 2.5 2.5 ${zdes} 0
fix             mytth2 H2 spring tether 1.7 2.5 2.5 ${zdes} 0
fix             mytth2 H2 spring tether 1.7 2.5 2.5 -13.8 0
run             10000
Generated 0 of 1 mixed pair_coeff terms from geometric mixing rule
Per MPI rank memory allocation (min/avg/max) = 13.35 | 14.26 | 15 Mbytes
   Step          Temp          E_pair         E_mol          TotEng         Press     
    140000   287.70847      372.57045      18561.266      19345.487     -148.61383    
    150000   294.40217      370.67195      18567.378      19359.278     -181.09498    
Loop time of 2.90929 on 16 procs for 10000 steps with 481 atoms

Performance: 14.849 ns/day, 1.616 hours/ns, 3437.265 timesteps/s, 1.653 Matom-step/s
100.0% CPU use with 16 MPI tasks x 1 OpenMP threads

MPI task timing breakdown:
Section |  min time  |  avg time  |  max time  |%varavg| %total
---------------------------------------------------------------
Pair    | 0.08615    | 0.39563    | 0.75892    |  26.7 | 13.60
Bond    | 0.34433    | 0.50478    | 0.5883     |   8.5 | 17.35
Neigh   | 0.0081548  | 0.0084758  | 0.0090997  |   0.4 |  0.29
Comm    | 1.3856     | 1.8135     | 2.1183     |  15.0 | 62.34
Output  | 0.00092986 | 0.0015757  | 0.0020803  |   0.9 |  0.05
Modify  | 0.067744   | 0.10808    | 0.14294    |   8.0 |  3.72
Other   |            | 0.0772     |            |       |  2.65

Nlocal:        30.0625 ave          37 max          25 min
Histogram: 2 1 4 3 1 0 1 2 0 2
Nghost:        2349.06 ave        2364 max        2332 min
Histogram: 2 0 3 0 2 2 2 2 0 3
Neighs:              0 ave           0 max           0 min
Histogram: 16 0 0 0 0 0 0 0 0 0

Total # of neighbors = 0
Ave neighs/atom = 0
Ave special neighs/atom = 15.567568
Neighbor list builds = 20
Dangerous builds = 0
fix             myat1 all ave/time 100 10 1000 v_zave v_zdes file simulation_data/abpot/${cpt}.dat
fix             myat1 all ave/time 100 10 1000 v_zave v_zdes file simulation_data/abpot/3.dat
run             50000
Generated 0 of 1 mixed pair_coeff terms from geometric mixing rule
Per MPI rank memory allocation (min/avg/max) = 13.35 | 14.26 | 15 Mbytes
   Step          Temp          E_pair         E_mol          TotEng         Press     
    150000   294.40217      370.67195      18567.378      19359.278     -181.09498    
    160000   324.63271      367.91128      18556.64       19389.032     -191.95043    
    170000   290.25062      386.83775      18523.576      19325.701      204.49036    
    180000   291.94539      373.6383       18527.57       19318.92      -87.940858    
    190000   323.95659      372.60015      18505.336      19341.449     -147.98923    
    200000   315.30931      365.57968      18545.793      19362.513     -179.31843    
Loop time of 14.5195 on 16 procs for 50000 steps with 481 atoms

Performance: 14.877 ns/day, 1.613 hours/ns, 3443.640 timesteps/s, 1.656 Matom-step/s
100.0% CPU use with 16 MPI tasks x 1 OpenMP threads

MPI task timing breakdown:
Section |  min time  |  avg time  |  max time  |%varavg| %total
---------------------------------------------------------------
Pair    | 0.39207    | 1.9891     | 3.5018     |  59.3 | 13.70
Bond    | 1.6545     | 2.5335     | 3.1058     |  20.6 | 17.45
Neigh   | 0.038252   | 0.040131   | 0.043054   |   0.8 |  0.28
Comm    | 7.4195     | 9.0193     | 10.677     |  34.3 | 62.12
Output  | 0.0060548  | 0.008751   | 0.010876   |   1.6 |  0.06
Modify  | 0.35953    | 0.54006    | 0.71629    |  17.2 |  3.72
Other   |            | 0.3887     |            |       |  2.68

Nlocal:        30.0625 ave          35 max          23 min
Histogram: 1 1 0 1 2 3 1 3 2 2
Nghost:        2362.19 ave        2378 max        2339 min
Histogram: 1 0 1 2 2 1 2 2 3 2
Neighs:              0 ave           0 max           0 min
Histogram: 16 0 0 0 0 0 0 0 0 0

Total # of neighbors = 0
Ave neighs/atom = 0
Ave special neighs/atom = 15.567568
Neighbor list builds = 93
Dangerous builds = 0
unfix           myat1
next            cpt
jump            SELF loop
variable        zdes equal  -15+0.60*(${cpt}-1)
variable        zdes equal  -15+0.60*(4-1)
variable        zave equal xcm(H2,z)
fix             mytth2 H2 spring tether ${k1} 2.5 2.5 ${zdes} 0
fix             mytth2 H2 spring tether 1.7 2.5 2.5 ${zdes} 0
fix             mytth2 H2 spring tether 1.7 2.5 2.5 -13.2 0
run             10000
Generated 0 of 1 mixed pair_coeff terms from geometric mixing rule
Per MPI rank memory allocation (min/avg/max) = 13.35 | 14.26 | 15 Mbytes
   Step          Temp          E_pair         E_mol          TotEng         Press     
    200000   315.30931      365.57968      18545.793      19362.513     -179.31843    
    210000   329.40037      374.8927       18528.252      19374.447     -82.331898    
Loop time of 2.86998 on 16 procs for 10000 steps with 481 atoms

Performance: 15.052 ns/day, 1.594 hours/ns, 3484.339 timesteps/s, 1.676 Matom-step/s
100.0% CPU use with 16 MPI tasks x 1 OpenMP threads

MPI task timing breakdown:
Section |  min time  |  avg time  |  max time  |%varavg| %total
---------------------------------------------------------------
Pair    | 0.083683   | 0.39748    | 0.66837    |  26.6 | 13.85
Bond    | 0.3058     | 0.50584    | 0.65046    |  10.2 | 17.63
Neigh   | 0.0048933  | 0.0050992  | 0.005472   |   0.3 |  0.18
Comm    | 1.428      | 1.7765     | 2.1373     |  15.9 | 61.90
Output  | 0.00097787 | 0.0016446  | 0.0021678  |   0.9 |  0.06
Modify  | 0.07006    | 0.10533    | 0.14249    |   7.9 |  3.67
Other   |            | 0.07809    |            |       |  2.72

Nlocal:        30.0625 ave          40 max          22 min
Histogram: 2 0 4 2 1 1 3 2 0 1
Nghost:        2365.19 ave        2382 max        2351 min
Histogram: 1 4 2 1 1 2 1 0 2 2
Neighs:              0 ave           0 max           0 min
Histogram: 16 0 0 0 0 0 0 0 0 0

Total # of neighbors = 0
Ave neighs/atom = 0
Ave special neighs/atom = 15.567568
Neighbor list builds = 12
Dangerous builds = 0
fix             myat1 all ave/time 100 10 1000 v_zave v_zdes file simulation_data/abpot/${cpt}.dat
fix             myat1 all ave/time 100 10 1000 v_zave v_zdes file simulation_data/abpot/4.dat
run             50000
Generated 0 of 1 mixed pair_coeff terms from geometric mixing rule
Per MPI rank memory allocation (min/avg/max) = 13.35 | 14.26 | 15 Mbytes
   Step          Temp          E_pair         E_mol          TotEng         Press     
    210000   329.40037      374.8927       18528.252      19374.447     -82.331898    
    220000   294.47794      372.12727      18524.052      19317.515     -189.24854    
    230000   285.65556      376.60333      18519.246      19304.563      1.5079037    
    240000   283.43023      368.91132      18519.826      19294.266     -233.64539    
    250000   293.62883      363.41565      18557.104      19340.641     -152.06836    
    260000   292.42066      379.51601      18541.224      19339.132      179.59792    
Loop time of 14.3815 on 16 procs for 50000 steps with 481 atoms

Performance: 15.019 ns/day, 1.598 hours/ns, 3476.700 timesteps/s, 1.672 Matom-step/s
100.0% CPU use with 16 MPI tasks x 1 OpenMP threads

MPI task timing breakdown:
Section |  min time  |  avg time  |  max time  |%varavg| %total
---------------------------------------------------------------
Pair    | 0.39837    | 1.9796     | 3.3043     |  59.3 | 13.76
Bond    | 1.6047     | 2.523      | 3.2822     |  22.1 | 17.54
Neigh   | 0.028437   | 0.029811   | 0.03231    |   0.8 |  0.21
Comm    | 7.1022     | 8.9265     | 10.603     |  35.2 | 62.07
Output  | 0.0059663  | 0.0085102  | 0.010534   |   1.5 |  0.06
Modify  | 0.35387    | 0.53112    | 0.70938    |  17.6 |  3.69
Other   |            | 0.3828     |            |       |  2.66

Nlocal:        30.0625 ave          39 max          20 min
Histogram: 1 0 3 2 1 3 2 1 2 1
Nghost:        2380.94 ave        2402 max        2356 min
Histogram: 1 1 1 0 3 4 1 2 2 1
Neighs:              0 ave           0 max           0 min
Histogram: 16 0 0 0 0 0 0 0 0 0

Total # of neighbors = 0
Ave neighs/atom = 0
Ave special neighs/atom = 15.567568
Neighbor list builds = 70
Dangerous builds = 0
unfix           myat1
next            cpt
jump            SELF loop
variable        zdes equal  -15+0.60*(${cpt}-1)
variable        zdes equal  -15+0.60*(5-1)
variable        zave equal xcm(H2,z)
fix             mytth2 H2 spring tether ${k1} 2.5 2.5 ${zdes} 0
fix             mytth2 H2 spring tether 1.7 2.5 2.5 ${zdes} 0
fix             mytth2 H2 spring tether 1.7 2.5 2.5 -12.6 0
run             10000
Generated 0 of 1 mixed pair_coeff terms from geometric mixing rule
Per MPI rank memory allocation (min/avg/max) = 13.35 | 14.26 | 15 Mbytes
   Step          Temp          E_pair         E_mol          TotEng         Press     
    260000   292.42066      379.51601      18541.224      19339.132      179.59792    
    270000   289.81443      371.42565      18521.61       19307.698     -121.74043    
Loop time of 2.86468 on 16 procs for 10000 steps with 481 atoms

Performance: 15.080 ns/day, 1.591 hours/ns, 3490.786 timesteps/s, 1.679 Matom-step/s
100.0% CPU use with 16 MPI tasks x 1 OpenMP threads

MPI task timing breakdown:
Section |  min time  |  avg time  |  max time  |%varavg| %total
---------------------------------------------------------------
Pair    | 0.084455   | 0.39659    | 0.67091    |  26.5 | 13.84
Bond    | 0.31329    | 0.5057     | 0.63631    |  10.6 | 17.65
Neigh   | 0.0070978  | 0.0073946  | 0.0079469  |   0.3 |  0.26
Comm    | 1.4443     | 1.7731     | 2.1187     |  16.1 | 61.89
Output  | 0.00096301 | 0.0016125  | 0.002113   |   0.9 |  0.06
Modify  | 0.068945   | 0.10355    | 0.14039    |   7.1 |  3.61
Other   |            | 0.07677    |            |       |  2.68

Nlocal:        30.0625 ave          38 max          23 min
Histogram: 2 1 2 1 3 1 1 2 2 1
Nghost:        2377.56 ave        2393 max        2360 min
Histogram: 2 1 1 3 0 1 1 4 2 1
Neighs:              0 ave           0 max           0 min
Histogram: 16 0 0 0 0 0 0 0 0 0

Total # of neighbors = 0
Ave neighs/atom = 0
Ave special neighs/atom = 15.567568
Neighbor list builds = 17
Dangerous builds = 0
fix             myat1 all ave/time 100 10 1000 v_zave v_zdes file simulation_data/abpot/${cpt}.dat
fix             myat1 all ave/time 100 10 1000 v_zave v_zdes file simulation_data/abpot/5.dat
run             50000
Generated 0 of 1 mixed pair_coeff terms from geometric mixing rule
Per MPI rank memory allocation (min/avg/max) = 13.35 | 14.26 | 15 Mbytes
   Step          Temp          E_pair         E_mol          TotEng         Press     
    270000   289.81443      371.42565      18521.61       19307.698     -121.74043    
    280000   290.00868      371.70601      18537.251      19323.898     -89.105683    
    290000   302.90463      377.68905      18525.759      19336.841      49.492179    
    300000   301.13914      370.96257      18562.135      19363.964     -213.83053    
    310000   297.13496      376.57484      18543.298      19345.01      -33.483741    
    320000   310.18868      378.47653      18541.879      19364.17      -56.888333    
Loop time of 13.5438 on 16 procs for 50000 steps with 481 atoms

Performance: 15.948 ns/day, 1.505 hours/ns, 3691.720 timesteps/s, 1.776 Matom-step/s
100.0% CPU use with 16 MPI tasks x 1 OpenMP threads

MPI task timing breakdown:
Section |  min time  |  avg time  |  max time  |%varavg| %total
---------------------------------------------------------------
Pair    | 0.3762     | 1.7904     | 3.1386     |  55.1 | 13.22
Bond    | 1.5899     | 2.2867     | 2.8278     |  18.6 | 16.88
Neigh   | 0.040498   | 0.041787   | 0.043762   |   0.5 |  0.31
Comm    | 7.1574     | 8.4897     | 9.9262     |  29.3 | 62.68
Output  | 0.0057508  | 0.008283   | 0.010244   |   1.6 |  0.06
Modify  | 0.36949    | 0.56409    | 0.76858    |  15.8 |  4.16
Other   |            | 0.3628     |            |       |  2.68

Nlocal:        30.0625 ave          39 max          18 min
Histogram: 1 0 1 0 4 2 3 3 1 1
Nghost:        2376.44 ave        2390 max        2357 min
Histogram: 1 1 2 1 1 1 1 3 4 1
Neighs:              0 ave           0 max           0 min
Histogram: 16 0 0 0 0 0 0 0 0 0

Total # of neighbors = 0
Ave neighs/atom = 0
Ave special neighs/atom = 15.567568
Neighbor list builds = 106
Dangerous builds = 0
unfix           myat1
next            cpt
jump            SELF loop
variable        zdes equal  -15+0.60*(${cpt}-1)
variable        zdes equal  -15+0.60*(6-1)
variable        zave equal xcm(H2,z)
fix             mytth2 H2 spring tether ${k1} 2.5 2.5 ${zdes} 0
fix             mytth2 H2 spring tether 1.7 2.5 2.5 ${zdes} 0
fix             mytth2 H2 spring tether 1.7 2.5 2.5 -12 0
run             10000
Generated 0 of 1 mixed pair_coeff terms from geometric mixing rule
Per MPI rank memory allocation (min/avg/max) = 13.35 | 14.26 | 15 Mbytes
   Step          Temp          E_pair         E_mol          TotEng         Press     
    320000   310.18868      378.47653      18541.879      19364.17      -56.888333    
    330000   301.12005      369.645        18535.667      19336.151     -280.71488    
Loop time of 2.45117 on 16 procs for 10000 steps with 481 atoms

Performance: 17.624 ns/day, 1.362 hours/ns, 4079.686 timesteps/s, 1.962 Matom-step/s
100.0% CPU use with 16 MPI tasks x 1 OpenMP threads

MPI task timing breakdown:
Section |  min time  |  avg time  |  max time  |%varavg| %total
---------------------------------------------------------------
Pair    | 0.062039   | 0.31533    | 0.51708    |  23.6 | 12.86
Bond    | 0.2612     | 0.40226    | 0.5388     |   9.0 | 16.41
Neigh   | 0.0048519  | 0.005032   | 0.0051952  |   0.1 |  0.21
Comm    | 1.2438     | 1.5529     | 1.8476     |  13.1 | 63.35
Output  | 0.00078138 | 0.0012813  | 0.0016836  |   0.8 |  0.05
Modify  | 0.056878   | 0.1078     | 0.16542    |  10.3 |  4.40
Other   |            | 0.06655    |            |       |  2.72

Nlocal:        30.0625 ave          39 max          19 min
Histogram: 1 1 2 0 3 1 2 1 2 3
Nghost:        2367.44 ave        2382 max        2347 min
Histogram: 2 0 1 0 2 4 1 0 3 3
Neighs:              0 ave           0 max           0 min
Histogram: 16 0 0 0 0 0 0 0 0 0

Total # of neighbors = 0
Ave neighs/atom = 0
Ave special neighs/atom = 15.567568
Neighbor list builds = 15
Dangerous builds = 0
fix             myat1 all ave/time 100 10 1000 v_zave v_zdes file simulation_data/abpot/${cpt}.dat
fix             myat1 all ave/time 100 10 1000 v_zave v_zdes file simulation_data/abpot/6.dat
run             50000
Generated 0 of 1 mixed pair_coeff terms from geometric mixing rule
Per MPI rank memory allocation (min/avg/max) = 13.35 | 14.26 | 15 Mbytes
   Step          Temp          E_pair         E_mol          TotEng         Press     
    330000   301.12005      369.645        18535.667      19336.151     -280.71488    
    340000   298.04154      372.24693      18547.846      19346.528     -294.38494    
    350000   275.86039      371.41907      18499.006      19265.123     -0.42628314   
    360000   310.62179      375.32104      18546.056      19365.811     -74.523688    
    370000   305.37546      372.00517      18533.913      19342.846     -105.44666    
    380000   282.14013      375.65019      18522.631      19301.964      7.9258531    
Loop time of 13.2762 on 16 procs for 50000 steps with 481 atoms

Performance: 16.270 ns/day, 1.475 hours/ns, 3766.129 timesteps/s, 1.812 Matom-step/s
100.0% CPU use with 16 MPI tasks x 1 OpenMP threads

MPI task timing breakdown:
Section |  min time  |  avg time  |  max time  |%varavg| %total
---------------------------------------------------------------
Pair    | 0.35351    | 1.7525     | 3.1755     |  55.3 | 13.20
Bond    | 1.392      | 2.2322     | 2.5839     |  19.2 | 16.81
Neigh   | 0.027856   | 0.028573   | 0.029621   |   0.3 |  0.22
Comm    | 6.7603     | 8.333      | 9.9719     |  29.9 | 62.77
Output  | 0.0052256  | 0.0074467  | 0.0092654  |   1.5 |  0.06
Modify  | 0.35957    | 0.55676    | 0.74167    |  17.1 |  4.19
Other   |            | 0.3658     |            |       |  2.76

Nlocal:        30.0625 ave          36 max          24 min
Histogram: 1 0 1 5 3 1 1 1 0 3
Nghost:        2362.19 ave        2381 max        2341 min
Histogram: 1 1 2 0 4 2 2 0 1 3
Neighs:              0 ave           0 max           0 min
Histogram: 16 0 0 0 0 0 0 0 0 0

Total # of neighbors = 0
Ave neighs/atom = 0
Ave special neighs/atom = 15.567568
Neighbor list builds = 75
Dangerous builds = 0
unfix           myat1
next            cpt
jump            SELF loop
variable        zdes equal  -15+0.60*(${cpt}-1)
variable        zdes equal  -15+0.60*(7-1)
variable        zave equal xcm(H2,z)
fix             mytth2 H2 spring tether ${k1} 2.5 2.5 ${zdes} 0
fix             mytth2 H2 spring tether 1.7 2.5 2.5 ${zdes} 0
fix             mytth2 H2 spring tether 1.7 2.5 2.5 -11.4 0
run             10000
Generated 0 of 1 mixed pair_coeff terms from geometric mixing rule
Per MPI rank memory allocation (min/avg/max) = 13.35 | 14.26 | 15 Mbytes
   Step          Temp          E_pair         E_mol          TotEng         Press     
    380000   282.14013      375.65019      18522.631      19301.964      7.9258531    
    390000   298.93973      375.82033      18496.351      19299.891      159.90977    
Loop time of 2.94561 on 16 procs for 10000 steps with 481 atoms

Performance: 14.666 ns/day, 1.636 hours/ns, 3394.885 timesteps/s, 1.633 Matom-step/s
100.0% CPU use with 16 MPI tasks x 1 OpenMP threads

MPI task timing breakdown:
Section |  min time  |  avg time  |  max time  |%varavg| %total
---------------------------------------------------------------
Pair    | 0.076955   | 0.39878    | 0.75459    |  26.7 | 13.54
Bond    | 0.27346    | 0.50734    | 0.62161    |  11.0 | 17.22
Neigh   | 0.0050963  | 0.0053444  | 0.0056874  |   0.2 |  0.18
Comm    | 1.3868     | 1.8241     | 2.2499     |  15.3 | 61.93
Output  | 0.001125   | 0.0017462  | 0.0022256  |   0.8 |  0.06
Modify  | 0.088317   | 0.12428    | 0.16768    |   7.4 |  4.22
Other   |            | 0.08402    |            |       |  2.85

Nlocal:        30.0625 ave          35 max          22 min
Histogram: 1 0 0 2 2 2 3 1 4 1
Nghost:        2360.69 ave        2384 max        2337 min
Histogram: 1 2 2 1 2 3 1 0 3 1
Neighs:              0 ave           0 max           0 min
Histogram: 16 0 0 0 0 0 0 0 0 0

Total # of neighbors = 0
Ave neighs/atom = 0
Ave special neighs/atom = 15.567568
Neighbor list builds = 12
Dangerous builds = 0
fix             myat1 all ave/time 100 10 1000 v_zave v_zdes file simulation_data/abpot/${cpt}.dat
fix             myat1 all ave/time 100 10 1000 v_zave v_zdes file simulation_data/abpot/7.dat
run             50000
Generated 0 of 1 mixed pair_coeff terms from geometric mixing rule
Per MPI rank memory allocation (min/avg/max) = 13.35 | 14.26 | 15 Mbytes
   Step          Temp          E_pair         E_mol          TotEng         Press     
    390000   298.93973      375.82033      18496.351      19299.891      159.90977    
    400000   299.82978      362.61139      18548.003      19339.608     -326.11381    
    410000   304.974        371.34997      18540.216      19347.919     -236.2147     
    420000   284.32009      385.44705      18537.733      19329.982      295.37842    
    430000   288.50025      371.1794       18526.294      19310.256     -151.20599    
    440000   298.03302      370.67848      18511.168      19308.269     -217.04792    
Loop time of 14.6396 on 16 procs for 50000 steps with 481 atoms

Performance: 14.755 ns/day, 1.627 hours/ns, 3415.397 timesteps/s, 1.643 Matom-step/s
100.0% CPU use with 16 MPI tasks x 1 OpenMP threads

MPI task timing breakdown:
Section |  min time  |  avg time  |  max time  |%varavg| %total
---------------------------------------------------------------
Pair    | 0.37981    | 1.9812     | 3.5554     |  58.7 | 13.53
Bond    | 1.5494     | 2.5252     | 2.9562     |  20.4 | 17.25
Neigh   | 0.029656   | 0.030796   | 0.03276    |   0.6 |  0.21
Comm    | 7.248      | 9.0497     | 10.93      |  32.4 | 61.82
Output  | 0.0063163  | 0.0089292  | 0.010955   |   1.5 |  0.06
Modify  | 0.38867    | 0.63641    | 0.86398    |  18.2 |  4.35
Other   |            | 0.4074     |            |       |  2.78

Nlocal:        30.0625 ave          36 max          25 min
Histogram: 5 0 0 1 1 3 2 2 1 1
Nghost:        2359.56 ave        2379 max        2338 min
Histogram: 2 0 2 1 3 1 3 1 0 3
Neighs:              0 ave           0 max           0 min
Histogram: 16 0 0 0 0 0 0 0 0 0

Total # of neighbors = 0
Ave neighs/atom = 0
Ave special neighs/atom = 15.567568
Neighbor list builds = 69
Dangerous builds = 0
unfix           myat1
next            cpt
jump            SELF loop
variable        zdes equal  -15+0.60*(${cpt}-1)
variable        zdes equal  -15+0.60*(8-1)
variable        zave equal xcm(H2,z)
fix             mytth2 H2 spring tether ${k1} 2.5 2.5 ${zdes} 0
fix             mytth2 H2 spring tether 1.7 2.5 2.5 ${zdes} 0
fix             mytth2 H2 spring tether 1.7 2.5 2.5 -10.8 0
run             10000
Generated 0 of 1 mixed pair_coeff terms from geometric mixing rule
Per MPI rank memory allocation (min/avg/max) = 13.35 | 14.26 | 15 Mbytes
   Step          Temp          E_pair         E_mol          TotEng         Press     
    440000   298.03302      370.67848      18511.168      19308.269     -217.04792    
    450000   291.06927      376.81199      18539.565      19332.836      4.8100745    
Loop time of 3.06198 on 16 procs for 10000 steps with 481 atoms

Performance: 14.109 ns/day, 1.701 hours/ns, 3265.858 timesteps/s, 1.571 Matom-step/s
100.0% CPU use with 16 MPI tasks x 1 OpenMP threads

MPI task timing breakdown:
Section |  min time  |  avg time  |  max time  |%varavg| %total
---------------------------------------------------------------
Pair    | 0.08265    | 0.39915    | 0.74571    |  26.9 | 13.04
Bond    | 0.34004    | 0.50905    | 0.6381     |   9.6 | 16.62
Neigh   | 0.0058306  | 0.0061507  | 0.006652   |   0.3 |  0.20
Comm    | 1.5006     | 1.9364     | 2.2799     |  14.6 | 63.24
Output  | 0.0010173  | 0.001751   | 0.0022581  |   0.9 |  0.06
Modify  | 0.077711   | 0.12445    | 0.16514    |   7.6 |  4.06
Other   |            | 0.08499    |            |       |  2.78

Nlocal:        30.0625 ave          37 max          23 min
Histogram: 3 0 1 1 2 2 3 2 0 2
Nghost:        2368.56 ave        2390 max        2350 min
Histogram: 2 1 1 1 5 2 1 0 2 1
Neighs:              0 ave           0 max           0 min
Histogram: 16 0 0 0 0 0 0 0 0 0

Total # of neighbors = 0
Ave neighs/atom = 0
Ave special neighs/atom = 15.567568
Neighbor list builds = 14
Dangerous builds = 0
fix             myat1 all ave/time 100 10 1000 v_zave v_zdes file simulation_data/abpot/${cpt}.dat
fix             myat1 all ave/time 100 10 1000 v_zave v_zdes file simulation_data/abpot/8.dat
run             50000
Generated 0 of 1 mixed pair_coeff terms from geometric mixing rule
Per MPI rank memory allocation (min/avg/max) = 13.35 | 14.26 | 15 Mbytes
   Step          Temp          E_pair         E_mol          TotEng         Press     
    450000   291.06927      376.81199      18539.565      19332.836      4.8100745    
    460000   294.80772      374.93422      18514.742      19311.484      84.982579    
    470000   281.58613      369.47358      18514.259      19286.623     -172.67203    
    480000   296.62173      364.95036      18532.165      19321.519     -328.55179    
    490000   304.18984      373.30203      18534.29       19342.824     -86.555732    
    500000   292.82485      370.20938      18552.171      19341.351     -282.20417    
Loop time of 14.3616 on 16 procs for 50000 steps with 481 atoms

Performance: 15.040 ns/day, 1.596 hours/ns, 3481.504 timesteps/s, 1.675 Matom-step/s
100.0% CPU use with 16 MPI tasks x 1 OpenMP threads

MPI task timing breakdown:
Section |  min time  |  avg time  |  max time  |%varavg| %total
---------------------------------------------------------------
Pair    | 0.39637    | 1.9777     | 3.4516     |  58.9 | 13.77
Bond    | 1.5686     | 2.5219     | 2.9259     |  21.1 | 17.56
Neigh   | 0.032068   | 0.033562   | 0.036049   |   0.7 |  0.23
Comm    | 7.1516     | 8.766      | 10.622     |  33.2 | 61.04
Output  | 0.0061215  | 0.0087821  | 0.010833   |   1.6 |  0.06
Modify  | 0.38456    | 0.6426     | 0.87243    |  18.6 |  4.47
Other   |            | 0.4111     |            |       |  2.86

Nlocal:        30.0625 ave          38 max          20 min
Histogram: 1 1 1 2 0 3 2 2 2 2
Nghost:        2379.44 ave        2397 max        2361 min
Histogram: 1 3 0 2 1 3 2 1 1 2
Neighs:              0 ave           0 max           0 min
Histogram: 16 0 0 0 0 0 0 0 0 0

Total # of neighbors = 0
Ave neighs/atom = 0
Ave special neighs/atom = 15.567568
Neighbor list builds = 79
Dangerous builds = 0
unfix           myat1
next            cpt
jump            SELF loop
variable        zdes equal  -15+0.60*(${cpt}-1)
variable        zdes equal  -15+0.60*(9-1)
variable        zave equal xcm(H2,z)
fix             mytth2 H2 spring tether ${k1} 2.5 2.5 ${zdes} 0
fix             mytth2 H2 spring tether 1.7 2.5 2.5 ${zdes} 0
fix             mytth2 H2 spring tether 1.7 2.5 2.5 -10.2 0
run             10000
Generated 0 of 1 mixed pair_coeff terms from geometric mixing rule
Per MPI rank memory allocation (min/avg/max) = 13.35 | 14.26 | 15 Mbytes
   Step          Temp          E_pair         E_mol          TotEng         Press     
    500000   292.82485      370.20938      18552.171      19341.351     -282.20417    
    510000   302.94657      365.96016      18520.055      19319.468     -158.11526    
Loop time of 2.87182 on 16 procs for 10000 steps with 481 atoms

Performance: 15.043 ns/day, 1.595 hours/ns, 3482.115 timesteps/s, 1.675 Matom-step/s
100.0% CPU use with 16 MPI tasks x 1 OpenMP threads

MPI task timing breakdown:
Section |  min time  |  avg time  |  max time  |%varavg| %total
---------------------------------------------------------------
Pair    | 0.081427   | 0.39952    | 0.66505    |  26.8 | 13.91
Bond    | 0.30345    | 0.50997    | 0.62253    |  10.1 | 17.76
Neigh   | 0.0066783  | 0.0069422  | 0.0074167  |   0.3 |  0.24
Comm    | 1.4596     | 1.7437     | 2.1392     |  15.6 | 60.72
Output  | 0.00097761 | 0.0015969  | 0.0020712  |   0.9 |  0.06
Modify  | 0.075214   | 0.12731    | 0.17332    |   8.3 |  4.43
Other   |            | 0.08281    |            |       |  2.88

Nlocal:        30.0625 ave          43 max          17 min
Histogram: 1 2 0 4 0 3 2 1 1 2
Nghost:        2359.19 ave        2379 max        2339 min
Histogram: 1 0 3 2 1 2 4 0 2 1
Neighs:              0 ave           0 max           0 min
Histogram: 16 0 0 0 0 0 0 0 0 0

Total # of neighbors = 0
Ave neighs/atom = 0
Ave special neighs/atom = 15.567568
Neighbor list builds = 16
Dangerous builds = 0
fix             myat1 all ave/time 100 10 1000 v_zave v_zdes file simulation_data/abpot/${cpt}.dat
fix             myat1 all ave/time 100 10 1000 v_zave v_zdes file simulation_data/abpot/9.dat
run             50000
Generated 0 of 1 mixed pair_coeff terms from geometric mixing rule
Per MPI rank memory allocation (min/avg/max) = 13.35 | 14.26 | 15 Mbytes
   Step          Temp          E_pair         E_mol          TotEng         Press     
    510000   302.94657      365.96016      18520.055      19319.468     -158.11526    
    520000   291.02434      366.48705      18526.78       19309.661     -261.42161    
    530000   322.41869      377.571        18504.19       19343.074      43.715374    
    540000   319.47777      372.64121      18515.089      19344.835     -35.72837     
    550000   288.32125      379.06506      18534.881      19326.473      20.038692    
    560000   296.55892      367.09792      18484.446      19275.857     -140.54986    
Loop time of 14.5735 on 16 procs for 50000 steps with 481 atoms

Performance: 14.821 ns/day, 1.619 hours/ns, 3430.890 timesteps/s, 1.650 Matom-step/s
100.0% CPU use with 16 MPI tasks x 1 OpenMP threads

MPI task timing breakdown:
Section |  min time  |  avg time  |  max time  |%varavg| %total
---------------------------------------------------------------
Pair    | 0.42236    | 1.9879     | 3.3835     |  60.0 | 13.64
Bond    | 1.5284     | 2.5335     | 3.0722     |  23.3 | 17.38
Neigh   | 0.038625   | 0.040461   | 0.04344    |   0.8 |  0.28
Comm    | 7.523      | 8.9517     | 10.889     |  34.1 | 61.42
Output  | 0.0061656  | 0.0089789  | 0.01108    |   1.7 |  0.06
Modify  | 0.38743    | 0.63726    | 0.86451    |  17.9 |  4.37
Other   |            | 0.4136     |            |       |  2.84

Nlocal:        30.0625 ave          40 max          21 min
Histogram: 1 1 1 4 3 1 1 2 1 1
Nghost:        2354.31 ave        2373 max        2340 min
Histogram: 3 0 3 1 3 1 3 0 1 1
Neighs:              0 ave           0 max           0 min
Histogram: 16 0 0 0 0 0 0 0 0 0

Total # of neighbors = 0
Ave neighs/atom = 0
Ave special neighs/atom = 15.567568
Neighbor list builds = 93
Dangerous builds = 0
unfix           myat1
next            cpt
jump            SELF loop
variable        zdes equal  -15+0.60*(${cpt}-1)
variable        zdes equal  -15+0.60*(10-1)
variable        zave equal xcm(H2,z)
fix             mytth2 H2 spring tether ${k1} 2.5 2.5 ${zdes} 0
fix             mytth2 H2 spring tether 1.7 2.5 2.5 ${zdes} 0
fix             mytth2 H2 spring tether 1.7 2.5 2.5 -9.6 0
run             10000
Generated 0 of 1 mixed pair_coeff terms from geometric mixing rule
Per MPI rank memory allocation (min/avg/max) = 13.35 | 14.26 | 15 Mbytes
   Step          Temp          E_pair         E_mol          TotEng         Press     
    560000   296.55892      367.09792      18484.446      19275.857     -140.54986    
    570000   301.015        378.44934      18534.664      19343.802      115.81561    
Loop time of 2.95586 on 16 procs for 10000 steps with 481 atoms

Performance: 14.615 ns/day, 1.642 hours/ns, 3383.111 timesteps/s, 1.627 Matom-step/s
100.0% CPU use with 16 MPI tasks x 1 OpenMP threads

MPI task timing breakdown:
Section |  min time  |  avg time  |  max time  |%varavg| %total
---------------------------------------------------------------
Pair    | 0.090091   | 0.39665    | 0.66562    |  27.3 | 13.42
Bond    | 0.28703    | 0.50568    | 0.62953    |  11.6 | 17.11
Neigh   | 0.010988   | 0.011489   | 0.01227    |   0.4 |  0.39
Comm    | 1.5397     | 1.8361     | 2.2429     |  15.8 | 62.12
Output  | 0.00098928 | 0.0016355  | 0.0021036  |   0.9 |  0.06
Modify  | 0.075319   | 0.12286    | 0.16707    |   7.8 |  4.16
Other   |            | 0.08146    |            |       |  2.76

Nlocal:        30.0625 ave          40 max          22 min
Histogram: 1 5 0 0 2 2 3 1 1 1
Nghost:        2353.94 ave        2369 max        2340 min
Histogram: 2 1 1 3 3 0 0 2 3 1
Neighs:              0 ave           0 max           0 min
Histogram: 16 0 0 0 0 0 0 0 0 0

Total # of neighbors = 0
Ave neighs/atom = 0
Ave special neighs/atom = 15.567568
Neighbor list builds = 25
Dangerous builds = 0
fix             myat1 all ave/time 100 10 1000 v_zave v_zdes file simulation_data/abpot/${cpt}.dat
fix             myat1 all ave/time 100 10 1000 v_zave v_zdes file simulation_data/abpot/10.dat
run             50000
Generated 0 of 1 mixed pair_coeff terms from geometric mixing rule
Per MPI rank memory allocation (min/avg/max) = 13.35 | 14.26 | 15 Mbytes
   Step          Temp          E_pair         E_mol          TotEng         Press     
    570000   301.015        378.44934      18534.664      19343.802      115.81561    
    580000   301.76119      381.33988      18539.254      19352.35      -70.554026    
    590000   304.37997      368.43789      18558.365      19362.306     -207.74164    
    600000   308.49211      372.79942      18555.568      19369.754     -144.15098    
    610000   305.84623      384.75318      18508.791      19331.146      301.46937    
    620000   291.81384      372.61184      18529.284      19319.42      -111.25667    
Loop time of 14.3582 on 16 procs for 50000 steps with 481 atoms

Performance: 15.044 ns/day, 1.595 hours/ns, 3482.331 timesteps/s, 1.675 Matom-step/s
100.0% CPU use with 16 MPI tasks x 1 OpenMP threads

MPI task timing breakdown:
Section |  min time  |  avg time  |  max time  |%varavg| %total
---------------------------------------------------------------
Pair    | 0.44537    | 1.9845     | 3.3377     |  59.0 | 13.82
Bond    | 1.5123     | 2.5285     | 3.1353     |  25.3 | 17.61
Neigh   | 0.044864   | 0.046937   | 0.050337   |   0.9 |  0.33
Comm    | 7.2932     | 8.7408     | 10.677     |  34.2 | 60.88
Output  | 0.0060935  | 0.0087123  | 0.010753   |   1.6 |  0.06
Modify  | 0.38188    | 0.641      | 0.85718    |  18.2 |  4.46
Other   |            | 0.4078     |            |       |  2.84

Nlocal:        30.0625 ave          37 max          24 min
Histogram: 1 1 3 4 1 1 1 1 0 3
Nghost:        2356.94 ave        2372 max        2342 min
Histogram: 3 0 1 2 2 2 0 3 1 2
Neighs:              0 ave           0 max           0 min
Histogram: 16 0 0 0 0 0 0 0 0 0

Total # of neighbors = 0
Ave neighs/atom = 0
Ave special neighs/atom = 15.567568
Neighbor list builds = 108
Dangerous builds = 0
unfix           myat1
next            cpt
jump            SELF loop
variable        zdes equal  -15+0.60*(${cpt}-1)
variable        zdes equal  -15+0.60*(11-1)
variable        zave equal xcm(H2,z)
fix             mytth2 H2 spring tether ${k1} 2.5 2.5 ${zdes} 0
fix             mytth2 H2 spring tether 1.7 2.5 2.5 ${zdes} 0
fix             mytth2 H2 spring tether 1.7 2.5 2.5 -9 0
run             10000
Generated 0 of 1 mixed pair_coeff terms from geometric mixing rule
Per MPI rank memory allocation (min/avg/max) = 13.35 | 14.26 | 15 Mbytes
   Step          Temp          E_pair         E_mol          TotEng         Press     
    620000   291.81384      372.61184      18529.284      19319.42      -111.25667    
    630000   291.01692      378.3814       18524.267      19319.032     -67.139816    
Loop time of 2.89059 on 16 procs for 10000 steps with 481 atoms

Performance: 14.945 ns/day, 1.606 hours/ns, 3459.507 timesteps/s, 1.664 Matom-step/s
100.0% CPU use with 16 MPI tasks x 1 OpenMP threads

MPI task timing breakdown:
Section |  min time  |  avg time  |  max time  |%varavg| %total
---------------------------------------------------------------
Pair    | 0.091242   | 0.39561    | 0.64728    |  26.3 | 13.69
Bond    | 0.31926    | 0.50518    | 0.64558    |  11.7 | 17.48
Neigh   | 0.0088778  | 0.0092879  | 0.0099312  |   0.4 |  0.32
Comm    | 1.4279     | 1.7725     | 2.1309     |  15.6 | 61.32
Output  | 0.00097476 | 0.0016115  | 0.0020927  |   0.9 |  0.06
Modify  | 0.073918   | 0.12481    | 0.16575    |   7.9 |  4.32
Other   |            | 0.08154    |            |       |  2.82

Nlocal:        30.0625 ave          36 max          23 min
Histogram: 1 0 2 2 4 1 2 0 0 4
Nghost:        2359.19 ave        2377 max        2337 min
Histogram: 1 0 1 2 1 3 4 1 2 1
Neighs:              0 ave           0 max           0 min
Histogram: 16 0 0 0 0 0 0 0 0 0

Total # of neighbors = 0
Ave neighs/atom = 0
Ave special neighs/atom = 15.567568
Neighbor list builds = 21
Dangerous builds = 0
fix             myat1 all ave/time 100 10 1000 v_zave v_zdes file simulation_data/abpot/${cpt}.dat
fix             myat1 all ave/time 100 10 1000 v_zave v_zdes file simulation_data/abpot/11.dat
run             50000
Generated 0 of 1 mixed pair_coeff terms from geometric mixing rule
Per MPI rank memory allocation (min/avg/max) = 13.35 | 14.26 | 15 Mbytes
   Step          Temp          E_pair         E_mol          TotEng         Press     
    630000   291.01692      378.3814       18524.267      19319.032     -67.139816    
    640000   331.63046      374.35148      18551.442      19400.287     -73.98745     
    650000   291.88654      370.80765      18545.928      19334.363     -244.10367    
    660000   307.17623      387.47348      18505.926      19332.903      242.97076    
    670000   294.24488      373.33218      18546.187      19340.522     -150.06879    
    680000   325.07387      368.67421      18564.56       19398.346     -331.76908    
Loop time of 14.6322 on 16 procs for 50000 steps with 481 atoms

Performance: 14.762 ns/day, 1.626 hours/ns, 3417.115 timesteps/s, 1.644 Matom-step/s
100.0% CPU use with 16 MPI tasks x 1 OpenMP threads

MPI task timing breakdown:
Section |  min time  |  avg time  |  max time  |%varavg| %total
---------------------------------------------------------------
Pair    | 0.44968    | 1.9959     | 3.2745     |  59.9 | 13.64
Bond    | 1.5504     | 2.5412     | 3.1147     |  24.2 | 17.37
Neigh   | 0.037527   | 0.03929    | 0.042175   |   0.8 |  0.27
Comm    | 7.5087     | 8.9945     | 10.886     |  34.6 | 61.47
Output  | 0.0060997  | 0.0086552  | 0.010662   |   1.5 |  0.06
Modify  | 0.38622    | 0.63961    | 0.86381    |  18.2 |  4.37
Other   |            | 0.4131     |            |       |  2.82

Nlocal:        30.0625 ave          42 max          20 min
Histogram: 1 3 3 1 0 3 1 1 2 1
Nghost:        2369.69 ave        2395 max        2352 min
Histogram: 2 1 3 3 1 2 2 1 0 1
Neighs:              0 ave           0 max           0 min
Histogram: 16 0 0 0 0 0 0 0 0 0

Total # of neighbors = 0
Ave neighs/atom = 0
Ave special neighs/atom = 15.567568
Neighbor list builds = 90
Dangerous builds = 0
unfix           myat1
next            cpt
jump            SELF loop
variable        zdes equal  -15+0.60*(${cpt}-1)
variable        zdes equal  -15+0.60*(12-1)
variable        zave equal xcm(H2,z)
fix             mytth2 H2 spring tether ${k1} 2.5 2.5 ${zdes} 0
fix             mytth2 H2 spring tether 1.7 2.5 2.5 ${zdes} 0
fix             mytth2 H2 spring tether 1.7 2.5 2.5 -8.4 0
run             10000
Generated 0 of 1 mixed pair_coeff terms from geometric mixing rule
Per MPI rank memory allocation (min/avg/max) = 13.35 | 14.26 | 15 Mbytes
   Step          Temp          E_pair         E_mol          TotEng         Press     
    680000   325.07387      368.67421      18564.56       19398.346     -331.76908    
    690000   289.06921      366.78452      18575.449      19355.831     -337.78737    
Loop time of 2.86855 on 16 procs for 10000 steps with 481 atoms

Performance: 15.060 ns/day, 1.594 hours/ns, 3486.087 timesteps/s, 1.677 Matom-step/s
100.0% CPU use with 16 MPI tasks x 1 OpenMP threads

MPI task timing breakdown:
Section |  min time  |  avg time  |  max time  |%varavg| %total
---------------------------------------------------------------
Pair    | 0.085473   | 0.3961     | 0.64472    |  26.6 | 13.81
Bond    | 0.30586    | 0.50445    | 0.62345    |  10.2 | 17.59
Neigh   | 0.0060639  | 0.0063514  | 0.0068104  |   0.3 |  0.22
Comm    | 1.4341     | 1.7552     | 2.135      |  15.2 | 61.19
Output  | 0.00093312 | 0.0015538  | 0.0020321  |   0.9 |  0.05
Modify  | 0.073556   | 0.12371    | 0.16514    |   8.1 |  4.31
Other   |            | 0.08119    |            |       |  2.83

Nlocal:        30.0625 ave          37 max          23 min
Histogram: 4 0 3 1 0 2 0 1 0 5
Nghost:        2368.19 ave        2389 max        2348 min
Histogram: 2 0 2 1 4 2 2 1 0 2
Neighs:              0 ave           0 max           0 min
Histogram: 16 0 0 0 0 0 0 0 0 0

Total # of neighbors = 0
Ave neighs/atom = 0
Ave special neighs/atom = 15.567568
Neighbor list builds = 15
Dangerous builds = 0
fix             myat1 all ave/time 100 10 1000 v_zave v_zdes file simulation_data/abpot/${cpt}.dat
fix             myat1 all ave/time 100 10 1000 v_zave v_zdes file simulation_data/abpot/12.dat
run             50000
Generated 0 of 1 mixed pair_coeff terms from geometric mixing rule
Per MPI rank memory allocation (min/avg/max) = 13.35 | 14.26 | 15 Mbytes
   Step          Temp          E_pair         E_mol          TotEng         Press     
    690000   289.06921      366.78452      18575.449      19355.831     -337.78737    
    700000   298.5576       370.78875      18540.574      19338.535     -70.538423    
    710000   308.54222      380.55109      18498.673      19320.683     -50.195493    
    720000   317.13973      373.67555      18515.58       19343.015     -233.02983    
    730000   297.38778      367.60255      18549.252      19342.354     -376.61634    
    740000   302.4511       379.53848      18531.797      19344.079     -22.320178    
Loop time of 14.483 on 16 procs for 50000 steps with 481 atoms

Performance: 14.914 ns/day, 1.609 hours/ns, 3452.334 timesteps/s, 1.661 Matom-step/s
100.0% CPU use with 16 MPI tasks x 1 OpenMP threads

MPI task timing breakdown:
Section |  min time  |  avg time  |  max time  |%varavg| %total
---------------------------------------------------------------
Pair    | 0.41944    | 1.9801     | 3.3455     |  59.3 | 13.67
Bond    | 1.5136     | 2.5243     | 3.3161     |  24.3 | 17.43
Neigh   | 0.044844   | 0.04716    | 0.050551   |   0.9 |  0.33
Comm    | 6.9597     | 8.8737     | 10.796     |  34.3 | 61.27
Output  | 0.0060911  | 0.0087719  | 0.010847   |   1.6 |  0.06
Modify  | 0.37988    | 0.64041    | 0.85601    |  17.9 |  4.42
Other   |            | 0.4084     |            |       |  2.82

Nlocal:        30.0625 ave          36 max          23 min
Histogram: 3 0 0 2 0 3 2 4 1 1
Nghost:        2373.06 ave        2390 max        2355 min
Histogram: 1 1 2 2 1 1 4 1 2 1
Neighs:              0 ave           0 max           0 min
Histogram: 16 0 0 0 0 0 0 0 0 0

Total # of neighbors = 0
Ave neighs/atom = 0
Ave special neighs/atom = 15.567568
Neighbor list builds = 108
Dangerous builds = 0
unfix           myat1
next            cpt
jump            SELF loop
variable        zdes equal  -15+0.60*(${cpt}-1)
variable        zdes equal  -15+0.60*(13-1)
variable        zave equal xcm(H2,z)
fix             mytth2 H2 spring tether ${k1} 2.5 2.5 ${zdes} 0
fix             mytth2 H2 spring tether 1.7 2.5 2.5 ${zdes} 0
fix             mytth2 H2 spring tether 1.7 2.5 2.5 -7.8 0
run             10000
Generated 0 of 1 mixed pair_coeff terms from geometric mixing rule
Per MPI rank memory allocation (min/avg/max) = 13.35 | 14.26 | 15 Mbytes
   Step          Temp          E_pair         E_mol          TotEng         Press     
    740000   302.4511       379.53848      18531.797      19344.079     -22.320178    
    750000   282.45293      376.78539      18536.31       19317.226     -67.279738    
Loop time of 2.92402 on 16 procs for 10000 steps with 481 atoms

Performance: 14.774 ns/day, 1.624 hours/ns, 3419.945 timesteps/s, 1.645 Matom-step/s
100.0% CPU use with 16 MPI tasks x 1 OpenMP threads

MPI task timing breakdown:
Section |  min time  |  avg time  |  max time  |%varavg| %total
---------------------------------------------------------------
Pair    | 0.084718   | 0.39705    | 0.65077    |  27.2 | 13.58
Bond    | 0.30479    | 0.50517    | 0.65794    |  11.9 | 17.28
Neigh   | 0.0066925  | 0.0069895  | 0.0075238  |   0.3 |  0.24
Comm    | 1.445      | 1.805      | 2.1898     |  16.3 | 61.73
Output  | 0.0010158  | 0.0016972  | 0.0022312  |   0.9 |  0.06
Modify  | 0.075328   | 0.1254     | 0.17186    |   8.2 |  4.29
Other   |            | 0.08272    |            |       |  2.83

Nlocal:        30.0625 ave          39 max          23 min
Histogram: 3 2 2 0 2 1 3 0 2 1
Nghost:        2366.69 ave        2384 max        2352 min
Histogram: 3 2 0 2 2 2 2 0 1 2
Neighs:              0 ave           0 max           0 min
Histogram: 16 0 0 0 0 0 0 0 0 0

Total # of neighbors = 0
Ave neighs/atom = 0
Ave special neighs/atom = 15.567568
Neighbor list builds = 16
Dangerous builds = 0
fix             myat1 all ave/time 100 10 1000 v_zave v_zdes file simulation_data/abpot/${cpt}.dat
fix             myat1 all ave/time 100 10 1000 v_zave v_zdes file simulation_data/abpot/13.dat
run             50000
Generated 0 of 1 mixed pair_coeff terms from geometric mixing rule
Per MPI rank memory allocation (min/avg/max) = 13.35 | 14.28 | 15 Mbytes
   Step          Temp          E_pair         E_mol          TotEng         Press     
    750000   282.45293      376.78539      18536.31       19317.226     -67.279738    
    760000   303.58601      386.57521      18518.719      19339.661      164.01081    
    770000   317.77565      368.071        18536.708      19359.449     -242.08607    
    780000   303.54031      377.01269      18524.437      19335.752      26.485423    
    790000   312.85049      382.05546      18499.799      19329.478      132.32093    
    800000   309.71564      373.13031      18521.499      19337.767     -84.736313    
Loop time of 14.2984 on 16 procs for 50000 steps with 481 atoms

Performance: 15.107 ns/day, 1.589 hours/ns, 3496.899 timesteps/s, 1.682 Matom-step/s
100.0% CPU use with 16 MPI tasks x 1 OpenMP threads

MPI task timing breakdown:
Section |  min time  |  avg time  |  max time  |%varavg| %total
---------------------------------------------------------------
Pair    | 0.42013    | 1.9819     | 3.3569     |  58.8 | 13.86
Bond    | 1.4088     | 2.5246     | 3.0347     |  23.4 | 17.66
Neigh   | 0.026403   | 0.027779   | 0.030005   |   0.7 |  0.19
Comm    | 7.2693     | 8.6903     | 10.764     |  34.0 | 60.78
Output  | 0.0060867  | 0.009281   | 0.011979   |   2.1 |  0.06
Modify  | 0.38793    | 0.6541     | 0.87494    |  18.3 |  4.57
Other   |            | 0.4104     |            |       |  2.87

Nlocal:        30.0625 ave          41 max          17 min
Histogram: 1 0 3 2 0 3 2 2 0 3
Nghost:        2365.19 ave        2393 max        2343 min
Histogram: 2 0 1 3 3 4 1 1 0 1
Neighs:              0 ave           0 max           0 min
Histogram: 16 0 0 0 0 0 0 0 0 0

Total # of neighbors = 0
Ave neighs/atom = 0
Ave special neighs/atom = 15.567568
Neighbor list builds = 65
Dangerous builds = 0
unfix           myat1
next            cpt
jump            SELF loop
variable        zdes equal  -15+0.60*(${cpt}-1)
variable        zdes equal  -15+0.60*(14-1)
variable        zave equal xcm(H2,z)
fix             mytth2 H2 spring tether ${k1} 2.5 2.5 ${zdes} 0
fix             mytth2 H2 spring tether 1.7 2.5 2.5 ${zdes} 0
fix             mytth2 H2 spring tether 1.7 2.5 2.5 -7.2 0
run             10000
Generated 0 of 1 mixed pair_coeff terms from geometric mixing rule
Per MPI rank memory allocation (min/avg/max) = 13.35 | 14.28 | 15 Mbytes
   Step          Temp          E_pair         E_mol          TotEng         Press     
    800000   309.71564      373.13031      18521.499      19337.767     -84.736313    
    810000   307.92477      373.37448      18530.239      19344.189     -95.392268    
Loop time of 2.83583 on 16 procs for 10000 steps with 481 atoms

Performance: 15.234 ns/day, 1.575 hours/ns, 3526.306 timesteps/s, 1.696 Matom-step/s
100.0% CPU use with 16 MPI tasks x 1 OpenMP threads

MPI task timing breakdown:
Section |  min time  |  avg time  |  max time  |%varavg| %total
---------------------------------------------------------------
Pair    | 0.078484   | 0.39646    | 0.66747    |  26.4 | 13.98
Bond    | 0.27071    | 0.50511    | 0.59643    |  10.6 | 17.81
Neigh   | 0.0044629  | 0.0046667  | 0.0050222  |   0.3 |  0.16
Comm    | 1.4286     | 1.7214     | 2.15       |  15.7 | 60.70
Output  | 0.00097937 | 0.0015941  | 0.0020662  |   0.9 |  0.06
Modify  | 0.074686   | 0.12519    | 0.16802    |   8.0 |  4.41
Other   |            | 0.0814     |            |       |  2.87

Nlocal:        30.0625 ave          38 max          19 min
Histogram: 1 0 0 3 1 5 1 1 2 2
Nghost:        2356.94 ave        2375 max        2341 min
Histogram: 1 2 2 1 2 4 0 2 0 2
Neighs:              0 ave           0 max           0 min
Histogram: 16 0 0 0 0 0 0 0 0 0

Total # of neighbors = 0
Ave neighs/atom = 0
Ave special neighs/atom = 15.567568
Neighbor list builds = 11
Dangerous builds = 0
fix             myat1 all ave/time 100 10 1000 v_zave v_zdes file simulation_data/abpot/${cpt}.dat
fix             myat1 all ave/time 100 10 1000 v_zave v_zdes file simulation_data/abpot/14.dat
run             50000
Generated 0 of 1 mixed pair_coeff terms from geometric mixing rule
Per MPI rank memory allocation (min/avg/max) = 13.35 | 14.28 | 15 Mbytes
   Step          Temp          E_pair         E_mol          TotEng         Press     
    810000   307.92477      373.37448      18530.239      19344.189     -95.392268    
    820000   288.5726       375.22189      18538.729      19326.837     -188.48057    
    830000   305.51264      378.04638      18491.899      19307.069     -28.378677    
    840000   280.86714      380.01634      18518.659      19300.537     -36.516709    
    850000   296.95334      382.76249      18524.004      19331.644      147.48445    
    860000   305.92322      365.93787      18542.046      19345.695     -373.70567    
Loop time of 13.5667 on 16 procs for 50000 steps with 481 atoms

Performance: 15.921 ns/day, 1.507 hours/ns, 3685.498 timesteps/s, 1.773 Matom-step/s
100.0% CPU use with 16 MPI tasks x 1 OpenMP threads

MPI task timing breakdown:
Section |  min time  |  avg time  |  max time  |%varavg| %total
---------------------------------------------------------------
Pair    | 0.34763    | 1.7817     | 3.1092     |  55.6 | 13.13
Bond    | 1.2933     | 2.2686     | 2.6523     |  21.9 | 16.72
Neigh   | 0.029597   | 0.031      | 0.032927   |   0.6 |  0.23
Comm    | 7.0583     | 8.4655     | 10.31      |  30.4 | 62.40
Output  | 0.0059035  | 0.0082494  | 0.010158   |   1.5 |  0.06
Modify  | 0.38954    | 0.63379    | 0.89301    |  20.3 |  4.67
Other   |            | 0.3779     |            |       |  2.79

Nlocal:        30.0625 ave          35 max          24 min
Histogram: 3 1 2 0 1 0 1 3 1 4
Nghost:        2355.44 ave        2370 max        2334 min
Histogram: 1 0 1 3 0 2 4 1 1 3
Neighs:              0 ave           0 max           0 min
Histogram: 16 0 0 0 0 0 0 0 0 0

Total # of neighbors = 0
Ave neighs/atom = 0
Ave special neighs/atom = 15.567568
Neighbor list builds = 79
Dangerous builds = 0
unfix           myat1
next            cpt
jump            SELF loop
variable        zdes equal  -15+0.60*(${cpt}-1)
variable        zdes equal  -15+0.60*(15-1)
variable        zave equal xcm(H2,z)
fix             mytth2 H2 spring tether ${k1} 2.5 2.5 ${zdes} 0
fix             mytth2 H2 spring tether 1.7 2.5 2.5 ${zdes} 0
fix             mytth2 H2 spring tether 1.7 2.5 2.5 -6.6 0
run             10000
Generated 0 of 1 mixed pair_coeff terms from geometric mixing rule
Per MPI rank memory allocation (min/avg/max) = 13.35 | 14.28 | 15 Mbytes
   Step          Temp          E_pair         E_mol          TotEng         Press     
    860000   305.92322      365.93787      18542.046      19345.695     -373.70567    
    870000   291.49638      390.73444      18502.036      19309.84       155.84421    
Loop time of 2.43831 on 16 procs for 10000 steps with 481 atoms

Performance: 17.717 ns/day, 1.355 hours/ns, 4101.208 timesteps/s, 1.973 Matom-step/s
100.0% CPU use with 16 MPI tasks x 1 OpenMP threads

MPI task timing breakdown:
Section |  min time  |  avg time  |  max time  |%varavg| %total
---------------------------------------------------------------
Pair    | 0.062774   | 0.30711    | 0.58992    |  23.3 | 12.60
Bond    | 0.25038    | 0.39056    | 0.48689    |   9.1 | 16.02
Neigh   | 0.009087   | 0.009549   | 0.010303   |   0.4 |  0.39
Comm    | 1.2032     | 1.5336     | 1.8197     |  11.9 | 62.90
Output  | 0.0007244  | 0.0011619  | 0.0015338  |   0.8 |  0.05
Modify  | 0.066817   | 0.12704    | 0.18599    |  10.4 |  5.21
Other   |            | 0.06928    |            |       |  2.84

Nlocal:        30.0625 ave          40 max          17 min
Histogram: 1 0 0 2 3 2 5 1 1 1
Nghost:        2361.81 ave        2377 max        2339 min
Histogram: 1 0 1 2 2 2 2 1 2 3
Neighs:              0 ave           0 max           0 min
Histogram: 16 0 0 0 0 0 0 0 0 0

Total # of neighbors = 0
Ave neighs/atom = 0
Ave special neighs/atom = 15.567568
Neighbor list builds = 29
Dangerous builds = 0
fix             myat1 all ave/time 100 10 1000 v_zave v_zdes file simulation_data/abpot/${cpt}.dat
fix             myat1 all ave/time 100 10 1000 v_zave v_zdes file simulation_data/abpot/15.dat
run             50000
Generated 0 of 1 mixed pair_coeff terms from geometric mixing rule
Per MPI rank memory allocation (min/avg/max) = 13.35 | 14.28 | 15 Mbytes
   Step          Temp          E_pair         E_mol          TotEng         Press     
    870000   291.49638      390.73444      18502.036      19309.84       155.84421    
    880000   297.63088      389.46514      18509.973      19325.285      63.477567    
    890000   317.54212      368.24275      18543.307      19365.885     -216.89363    
    900000   302.98959      379.75744      18523.254      19336.526      104.30076    
    910000   314.31364      372.25178      18528.54       19350.509     -173.42525    
    920000   297.43717      390.68978      18566.658      19382.917     -22.739596    
Loop time of 14.6132 on 16 procs for 50000 steps with 481 atoms

Performance: 14.781 ns/day, 1.624 hours/ns, 3421.558 timesteps/s, 1.646 Matom-step/s
100.0% CPU use with 16 MPI tasks x 1 OpenMP threads

MPI task timing breakdown:
Section |  min time  |  avg time  |  max time  |%varavg| %total
---------------------------------------------------------------
Pair    | 0.4006     | 1.9814     | 3.4004     |  59.3 | 13.56
Bond    | 1.2878     | 2.5206     | 3.1319     |  27.0 | 17.25
Neigh   | 0.061596   | 0.064445   | 0.069106   |   1.0 |  0.44
Comm    | 7.4369     | 8.9727     | 11.184     |  35.5 | 61.40
Output  | 0.0061273  | 0.0086361  | 0.010642   |   1.5 |  0.06
Modify  | 0.38498    | 0.65909    | 0.88385    |  18.7 |  4.51
Other   |            | 0.4062     |            |       |  2.78

Nlocal:        30.0625 ave          41 max          22 min
Histogram: 3 1 1 3 1 1 3 2 0 1
Nghost:        2367.81 ave        2387 max        2354 min
Histogram: 3 1 1 4 2 0 2 2 0 1
Neighs:              0 ave           0 max           0 min
Histogram: 16 0 0 0 0 0 0 0 0 0

Total # of neighbors = 0
Ave neighs/atom = 0
Ave special neighs/atom = 15.567568
Neighbor list builds = 148
Dangerous builds = 0
unfix           myat1
next            cpt
jump            SELF loop
variable        zdes equal  -15+0.60*(${cpt}-1)
variable        zdes equal  -15+0.60*(16-1)
variable        zave equal xcm(H2,z)
fix             mytth2 H2 spring tether ${k1} 2.5 2.5 ${zdes} 0
fix             mytth2 H2 spring tether 1.7 2.5 2.5 ${zdes} 0
fix             mytth2 H2 spring tether 1.7 2.5 2.5 -6 0
run             10000
Generated 0 of 1 mixed pair_coeff terms from geometric mixing rule
Per MPI rank memory allocation (min/avg/max) = 13.35 | 14.28 | 15 Mbytes
   Step          Temp          E_pair         E_mol          TotEng         Press     
    920000   297.43717      390.68978      18566.658      19382.917     -22.739596    
    930000   298.03138      400.78847      18541.029      19368.237      136.10839    
Loop time of 2.89778 on 16 procs for 10000 steps with 481 atoms

Performance: 14.908 ns/day, 1.610 hours/ns, 3450.919 timesteps/s, 1.660 Matom-step/s
100.0% CPU use with 16 MPI tasks x 1 OpenMP threads

MPI task timing breakdown:
Section |  min time  |  avg time  |  max time  |%varavg| %total
---------------------------------------------------------------
Pair    | 0.074339   | 0.40172    | 0.68458    |  28.0 | 13.86
Bond    | 0.28624    | 0.50578    | 0.63049    |  11.6 | 17.45
Neigh   | 0.017126   | 0.017891   | 0.019159   |   0.5 |  0.62
Comm    | 1.4591     | 1.7676     | 2.1853     |  17.3 | 61.00
Output  | 0.00097908 | 0.0016181  | 0.0021152  |   0.9 |  0.06
Modify  | 0.073158   | 0.12217    | 0.16577    |   8.1 |  4.22
Other   |            | 0.08096    |            |       |  2.79

Nlocal:        30.0625 ave          37 max          22 min
Histogram: 3 0 0 3 2 1 1 0 3 3
Nghost:        2375.31 ave        2390 max        2361 min
Histogram: 3 0 2 0 3 2 3 0 1 2
Neighs:              0 ave           0 max           0 min
Histogram: 16 0 0 0 0 0 0 0 0 0

Total # of neighbors = 0
Ave neighs/atom = 0
Ave special neighs/atom = 15.567568
Neighbor list builds = 42
Dangerous builds = 0
fix             myat1 all ave/time 100 10 1000 v_zave v_zdes file simulation_data/abpot/${cpt}.dat
fix             myat1 all ave/time 100 10 1000 v_zave v_zdes file simulation_data/abpot/16.dat
run             50000
Generated 0 of 1 mixed pair_coeff terms from geometric mixing rule
Per MPI rank memory allocation (min/avg/max) = 13.35 | 14.28 | 15 Mbytes
   Step          Temp          E_pair         E_mol          TotEng         Press     
    930000   298.03138      400.78847      18541.029      19368.237      136.10839    
    940000   302.09528      385.11329      18548.523      19365.871     -215.13271    
    950000   295.84574      361.74346      18532.298      19317.334     -401.61427    
    960000   282.51491      382.15189      18525.017      19311.389     -203.19989    
    970000   280.03872      382.9738       18512.054      19295.704      111.33189    
    980000   325.99805      383.11372      18498.011      19347.559      200.3363     
Loop time of 14.8477 on 16 procs for 50000 steps with 481 atoms

Performance: 14.548 ns/day, 1.650 hours/ns, 3367.516 timesteps/s, 1.620 Matom-step/s
100.0% CPU use with 16 MPI tasks x 1 OpenMP threads

MPI task timing breakdown:
Section |  min time  |  avg time  |  max time  |%varavg| %total
---------------------------------------------------------------
Pair    | 0.36968    | 2.0108     | 3.3441     |  61.2 | 13.54
Bond    | 1.2154     | 2.5389     | 3.1384     |  28.2 | 17.10
Neigh   | 0.085056   | 0.089259   | 0.095979   |   1.2 |  0.60
Comm    | 7.5419     | 9.1306     | 11.482     |  37.9 | 61.49
Output  | 0.0062438  | 0.0088164  | 0.010864   |   1.6 |  0.06
Modify  | 0.39562    | 0.65745    | 0.86283    |  17.7 |  4.43
Other   |            | 0.4119     |            |       |  2.77

Nlocal:        30.0625 ave          43 max          13 min
Histogram: 1 1 0 1 0 5 3 2 2 1
Nghost:        2368.19 ave        2389 max        2341 min
Histogram: 2 0 0 1 2 3 3 2 2 1
Neighs:              0 ave           0 max           0 min
Histogram: 16 0 0 0 0 0 0 0 0 0

Total # of neighbors = 0
Ave neighs/atom = 0
Ave special neighs/atom = 15.567568
Neighbor list builds = 201
Dangerous builds = 0
unfix           myat1
next            cpt
jump            SELF loop
variable        zdes equal  -15+0.60*(${cpt}-1)
variable        zdes equal  -15+0.60*(17-1)
variable        zave equal xcm(H2,z)
fix             mytth2 H2 spring tether ${k1} 2.5 2.5 ${zdes} 0
fix             mytth2 H2 spring tether 1.7 2.5 2.5 ${zdes} 0
fix             mytth2 H2 spring tether 1.7 2.5 2.5 -5.4 0
run             10000
Generated 0 of 1 mixed pair_coeff terms from geometric mixing rule
Per MPI rank memory allocation (min/avg/max) = 13.35 | 14.28 | 15 Mbytes
   Step          Temp          E_pair         E_mol          TotEng         Press     
    980000   325.99805      383.11372      18498.011      19347.559      200.3363     
    990000   297.26368      368.76614      18533.348      19327.436     -365.65803    
Loop time of 2.90841 on 16 procs for 10000 steps with 481 atoms

Performance: 14.853 ns/day, 1.616 hours/ns, 3438.302 timesteps/s, 1.654 Matom-step/s
100.0% CPU use with 16 MPI tasks x 1 OpenMP threads

MPI task timing breakdown:
Section |  min time  |  avg time  |  max time  |%varavg| %total
---------------------------------------------------------------
Pair    | 0.079895   | 0.40128    | 0.69193    |  27.8 | 13.80
Bond    | 0.18884    | 0.5102     | 0.68409    |  15.3 | 17.54
Neigh   | 0.0097525  | 0.010182   | 0.010872   |   0.4 |  0.35
Comm    | 1.4217     | 1.7775     | 2.3185     |  18.6 | 61.12
Output  | 0.0010062  | 0.0016295  | 0.0021121  |   0.9 |  0.06
Modify  | 0.074868   | 0.12569    | 0.1657     |   8.0 |  4.32
Other   |            | 0.08192    |            |       |  2.82

Nlocal:        30.0625 ave          44 max          13 min
Histogram: 1 0 0 3 0 3 6 2 0 1
Nghost:        2366.31 ave        2380 max        2338 min
[...]
100.0% CPU use with 16 MPI tasks x 1 OpenMP threads

MPI task timing breakdown:
Section |  min time  |  avg time  |  max time  |%varavg| %total
---------------------------------------------------------------
Pair    | 0.078328   | 0.39536    | 0.67845    |  26.2 | 12.97
Bond    | 0.32231    | 0.50355    | 0.61265    |  10.4 | 16.52
Neigh   | 0.004844   | 0.0050599  | 0.0054359  |   0.3 |  0.17
Comm    | 1.6353     | 1.9328     | 2.2823     |  14.4 | 63.39
Output  | 0.00098417 | 0.0016305  | 0.0021463  |   0.9 |  0.05
Modify  | 0.075872   | 0.12747    | 0.17428    |   8.5 |  4.18
Other   |            | 0.08302    |            |       |  2.72

Nlocal:        30.0625 ave          39 max          20 min
Histogram: 1 0 3 1 4 0 2 0 4 1
Nghost:        2381.69 ave        2397 max        2365 min
Histogram: 2 0 3 0 2 2 3 1 0 3
Neighs:              0 ave           0 max           0 min
Histogram: 16 0 0 0 0 0 0 0 0 0

Total # of neighbors = 0
Ave neighs/atom = 0
Ave special neighs/atom = 15.567568
Neighbor list builds = 11
Dangerous builds = 0
fix             myat1 all ave/time 100 10 1000 v_zave v_zdes file simulation_data/abpot/${cpt}.dat
fix             myat1 all ave/time 100 10 1000 v_zave v_zdes file simulation_data/abpot/47.dat
run             50000
Generated 0 of 1 mixed pair_coeff terms from geometric mixing rule
Per MPI rank memory allocation (min/avg/max) = 13.36 | 14.42 | 15 Mbytes
   Step          Temp          E_pair         E_mol          TotEng         Press     
   2790000   270.37588      375.06221      18544.882      19306.795     -79.214918    
   2800000   292.14789      362.60689      18506.717      19287.325     -221.15532    
   2810000   287.10497      374.24646      18515.277      19300.31       25.961255    
   2820000   309.65624      378.53917      18500.787      19322.379      233.26963    
   2830000   317.45574      368.09685      18531.53       19353.839     -136.36048    
   2840000   307.45454      370.22315      18523.764      19333.89      -85.21829     
Loop time of 14.4543 on 16 procs for 50000 steps with 481 atoms

Performance: 14.944 ns/day, 1.606 hours/ns, 3459.172 timesteps/s, 1.664 Matom-step/s
100.0% CPU use with 16 MPI tasks x 1 OpenMP threads

MPI task timing breakdown:
Section |  min time  |  avg time  |  max time  |%varavg| %total
---------------------------------------------------------------
Pair    | 0.38944    | 1.9764     | 3.3233     |  58.9 | 13.67
Bond    | 1.4283     | 2.5188     | 3.158      |  25.9 | 17.43
Neigh   | 0.026778   | 0.028038   | 0.029954   |   0.6 |  0.19
Comm    | 7.4657     | 8.8808     | 10.851     |  34.4 | 61.44
Output  | 0.0060958  | 0.0088569  | 0.010917   |   1.6 |  0.06
Modify  | 0.3801     | 0.63428    | 0.85212    |  17.9 |  4.39
Other   |            | 0.4072     |            |       |  2.82

Nlocal:        30.0625 ave          36 max          23 min
Histogram: 2 0 2 2 1 2 2 1 0 4
Nghost:        2355.06 ave        2369 max        2335 min
Histogram: 1 1 1 2 1 1 2 3 1 3
Neighs:              0 ave           0 max           0 min
Histogram: 16 0 0 0 0 0 0 0 0 0

Total # of neighbors = 0
Ave neighs/atom = 0
Ave special neighs/atom = 15.567568
Neighbor list builds = 64
Dangerous builds = 0
unfix           myat1
next            cpt
jump            SELF loop
variable        zdes equal  -15+0.60*(${cpt}-1)
variable        zdes equal  -15+0.60*(48-1)
variable        zave equal xcm(H2,z)
fix             mytth2 H2 spring tether ${k1} 2.5 2.5 ${zdes} 0
fix             mytth2 H2 spring tether 1.7 2.5 2.5 ${zdes} 0
fix             mytth2 H2 spring tether 1.7 2.5 2.5 13.2 0
run             10000
Generated 0 of 1 mixed pair_coeff terms from geometric mixing rule
Per MPI rank memory allocation (min/avg/max) = 13.36 | 14.42 | 15 Mbytes
   Step          Temp          E_pair         E_mol          TotEng         Press     
   2840000   307.45454      370.22315      18523.764      19333.89      -85.21829     
   2850000   297.2979       386.24705      18504.942      19316.56       297.8802     
Loop time of 2.95259 on 16 procs for 10000 steps with 481 atoms

Performance: 14.631 ns/day, 1.640 hours/ns, 3386.858 timesteps/s, 1.629 Matom-step/s
100.0% CPU use with 16 MPI tasks x 1 OpenMP threads

MPI task timing breakdown:
Section |  min time  |  avg time  |  max time  |%varavg| %total
---------------------------------------------------------------
Pair    | 0.08965    | 0.39208    | 0.66585    |  25.8 | 13.28
Bond    | 0.26321    | 0.50055    | 0.61934    |  12.9 | 16.95
Neigh   | 0.0082045  | 0.0085442  | 0.0091143  |   0.3 |  0.29
Comm    | 1.5525     | 1.8421     | 2.2591     |  14.8 | 62.39
Output  | 0.00098434 | 0.0019313  | 0.0033167  |   1.8 |  0.07
Modify  | 0.07419    | 0.12512    | 0.16516    |   8.0 |  4.24
Other   |            | 0.08224    |            |       |  2.79

Nlocal:        30.0625 ave          36 max          22 min
Histogram: 1 0 1 1 1 5 1 4 0 2
Nghost:        2365.56 ave        2381 max        2350 min
Histogram: 3 1 2 0 1 2 2 1 3 1
Neighs:              0 ave           0 max           0 min
Histogram: 16 0 0 0 0 0 0 0 0 0

Total # of neighbors = 0
Ave neighs/atom = 0
Ave special neighs/atom = 15.567568
Neighbor list builds = 19
Dangerous builds = 0
fix             myat1 all ave/time 100 10 1000 v_zave v_zdes file simulation_data/abpot/${cpt}.dat
fix             myat1 all ave/time 100 10 1000 v_zave v_zdes file simulation_data/abpot/48.dat
run             50000
Generated 0 of 1 mixed pair_coeff terms from geometric mixing rule
Per MPI rank memory allocation (min/avg/max) = 13.36 | 14.42 | 15 Mbytes
   Step          Temp          E_pair         E_mol          TotEng         Press     
   2850000   297.2979       386.24705      18504.942      19316.56       297.8802     
   2860000   303.46647      362.53385      18509.721      19306.452     -305.18274    
   2870000   297.95125      373.04698      18506.789      19306.141     -63.192509    
   2880000   302.94422      374.59251      18524.707      19332.749     -35.939026    
   2890000   314.45716      368.8882       18528.387      19347.197     -101.99376    
   2900000   307.62389      372.27305      18516.045      19328.463     -46.152713    
Loop time of 13.052 on 16 procs for 50000 steps with 481 atoms

Performance: 16.549 ns/day, 1.450 hours/ns, 3830.825 timesteps/s, 1.843 Matom-step/s
100.0% CPU use with 16 MPI tasks x 1 OpenMP threads

MPI task timing breakdown:
Section |  min time  |  avg time  |  max time  |%varavg| %total
---------------------------------------------------------------
Pair    | 0.36964    | 1.6752     | 2.8212     |  53.1 | 12.84
Bond    | 1.2038     | 2.1474     | 2.7916     |  26.3 | 16.45
Neigh   | 0.022612   | 0.023561   | 0.024875   |   0.4 |  0.18
Comm    | 6.926      | 8.22       | 9.9756     |  29.7 | 62.98
Output  | 0.0052706  | 0.0076375  | 0.0094973  |   1.5 |  0.06
Modify  | 0.36173    | 0.6104     | 0.87441    |  20.3 |  4.68
Other   |            | 0.3678     |            |       |  2.82

Nlocal:        30.0625 ave          39 max          22 min
Histogram: 2 0 5 2 0 1 2 0 1 3
Nghost:        2362.19 ave        2385 max        2339 min
Histogram: 1 1 2 1 4 2 0 2 2 1
Neighs:              0 ave           0 max           0 min
Histogram: 16 0 0 0 0 0 0 0 0 0

Total # of neighbors = 0
Ave neighs/atom = 0
Ave special neighs/atom = 15.567568
Neighbor list builds = 61
Dangerous builds = 0
unfix           myat1
next            cpt
jump            SELF loop
variable        zdes equal  -15+0.60*(${cpt}-1)
variable        zdes equal  -15+0.60*(49-1)
variable        zave equal xcm(H2,z)
fix             mytth2 H2 spring tether ${k1} 2.5 2.5 ${zdes} 0
fix             mytth2 H2 spring tether 1.7 2.5 2.5 ${zdes} 0
fix             mytth2 H2 spring tether 1.7 2.5 2.5 13.8 0
run             10000
Generated 0 of 1 mixed pair_coeff terms from geometric mixing rule
Per MPI rank memory allocation (min/avg/max) = 13.36 | 14.42 | 15 Mbytes
   Step          Temp          E_pair         E_mol          TotEng         Press     
   2900000   307.62389      372.27305      18516.045      19328.463     -46.152713    
   2910000   300.20574      375.43538      18498.277      19303.244      164.31733    
Loop time of 2.76673 on 16 procs for 10000 steps with 481 atoms

Performance: 15.614 ns/day, 1.537 hours/ns, 3614.381 timesteps/s, 1.739 Matom-step/s
100.0% CPU use with 16 MPI tasks x 1 OpenMP threads

MPI task timing breakdown:
Section |  min time  |  avg time  |  max time  |%varavg| %total
---------------------------------------------------------------
Pair    | 0.076126   | 0.38901    | 0.64984    |  26.5 | 14.06
Bond    | 0.30725    | 0.4948     | 0.65236    |  11.6 | 17.88
Neigh   | 0.0036708  | 0.0038222  | 0.0040901  |   0.2 |  0.14
Comm    | 1.3669     | 1.6737     | 2.0314     |  16.2 | 60.50
Output  | 0.00094878 | 0.0015771  | 0.0020684  |   0.9 |  0.06
Modify  | 0.075334   | 0.12267    | 0.1633     |   7.5 |  4.43
Other   |            | 0.08109    |            |       |  2.93

Nlocal:        30.0625 ave          38 max          21 min
Histogram: 1 1 2 2 0 4 1 2 1 2
Nghost:        2374.94 ave        2400 max        2355 min
Histogram: 3 1 2 0 3 1 3 1 1 1
Neighs:              0 ave           0 max           0 min
Histogram: 16 0 0 0 0 0 0 0 0 0

Total # of neighbors = 0
Ave neighs/atom = 0
Ave special neighs/atom = 15.567568
Neighbor list builds = 9
Dangerous builds = 0
fix             myat1 all ave/time 100 10 1000 v_zave v_zdes file simulation_data/abpot/${cpt}.dat
fix             myat1 all ave/time 100 10 1000 v_zave v_zdes file simulation_data/abpot/49.dat
run             50000
Generated 0 of 1 mixed pair_coeff terms from geometric mixing rule
Per MPI rank memory allocation (min/avg/max) = 13.36 | 14.42 | 15 Mbytes
   Step          Temp          E_pair         E_mol          TotEng         Press     
   2910000   300.20574      375.43538      18498.277      19303.244      164.31733    
   2920000   272.08534      366.45024      18524.179      19279.925     -45.155315    
   2930000   294.69089      365.91544      18514.978      19302.533     -124.97339    
   2940000   305.92267      373.03991      18527.029      19337.78       21.215051    
   2950000   314.94818      359.66101      18526.176      19336.462     -320.16892    
   2960000   307.438        369.91164      18508.172      19317.963     -8.6113891    
Loop time of 14.2738 on 16 procs for 50000 steps with 481 atoms

Performance: 15.133 ns/day, 1.586 hours/ns, 3502.916 timesteps/s, 1.685 Matom-step/s
100.0% CPU use with 16 MPI tasks x 1 OpenMP threads

MPI task timing breakdown:
Section |  min time  |  avg time  |  max time  |%varavg| %total
---------------------------------------------------------------
Pair    | 0.42342    | 1.971      | 3.1911     |  58.6 | 13.81
Bond    | 1.5646     | 2.511      | 3.1681     |  25.5 | 17.59
Neigh   | 0.023824   | 0.024902   | 0.026617   |   0.6 |  0.17
Comm    | 7.4122     | 8.7381     | 10.567     |  34.1 | 61.22
Output  | 0.0060806  | 0.0088271  | 0.010881   |   1.6 |  0.06
Modify  | 0.38258    | 0.61484    | 0.80641    |  16.7 |  4.31
Other   |            | 0.4051     |            |       |  2.84

Nlocal:        30.0625 ave          36 max          20 min
Histogram: 3 1 0 0 0 1 2 1 5 3
Nghost:        2365.56 ave        2383 max        2344 min
Histogram: 1 1 0 3 2 2 2 2 1 2
Neighs:              0 ave           0 max           0 min
Histogram: 16 0 0 0 0 0 0 0 0 0

Total # of neighbors = 0
Ave neighs/atom = 0
Ave special neighs/atom = 15.567568
Neighbor list builds = 56
Dangerous builds = 0
unfix           myat1
next            cpt
jump            SELF loop
variable        zdes equal  -15+0.60*(${cpt}-1)
variable        zdes equal  -15+0.60*(50-1)
variable        zave equal xcm(H2,z)
fix             mytth2 H2 spring tether ${k1} 2.5 2.5 ${zdes} 0
fix             mytth2 H2 spring tether 1.7 2.5 2.5 ${zdes} 0
fix             mytth2 H2 spring tether 1.7 2.5 2.5 14.4 0
run             10000
Generated 0 of 1 mixed pair_coeff terms from geometric mixing rule
Per MPI rank memory allocation (min/avg/max) = 13.36 | 14.42 | 15 Mbytes
   Step          Temp          E_pair         E_mol          TotEng         Press     
   2960000   307.438        369.91164      18508.172      19317.963     -8.6113891    
   2970000   290.85996      367.58758      18524.602      19308.349     -143.3155     
Loop time of 2.78909 on 16 procs for 10000 steps with 481 atoms

Performance: 15.489 ns/day, 1.549 hours/ns, 3585.394 timesteps/s, 1.725 Matom-step/s
100.0% CPU use with 16 MPI tasks x 1 OpenMP threads

MPI task timing breakdown:
Section |  min time  |  avg time  |  max time  |%varavg| %total
---------------------------------------------------------------
Pair    | 0.085897   | 0.39399    | 0.64597    |  26.1 | 14.13
Bond    | 0.26025    | 0.50191    | 0.62914    |  12.3 | 18.00
Neigh   | 0.0040986  | 0.0042846  | 0.0045529  |   0.2 |  0.15
Comm    | 1.4282     | 1.6846     | 2.1119     |  15.6 | 60.40
Output  | 0.00095244 | 0.0016097  | 0.0020937  |   0.9 |  0.06
Modify  | 0.073584   | 0.12197    | 0.16159    |   7.8 |  4.37
Other   |            | 0.0807     |            |       |  2.89

Nlocal:        30.0625 ave          40 max          18 min
Histogram: 2 1 0 2 1 3 1 2 2 2
Nghost:        2370.44 ave        2388 max        2353 min
Histogram: 1 2 2 1 1 1 3 2 2 1
Neighs:              0 ave           0 max           0 min
Histogram: 16 0 0 0 0 0 0 0 0 0

Total # of neighbors = 0
Ave neighs/atom = 0
Ave special neighs/atom = 15.567568
Neighbor list builds = 10
Dangerous builds = 0
fix             myat1 all ave/time 100 10 1000 v_zave v_zdes file simulation_data/abpot/${cpt}.dat
fix             myat1 all ave/time 100 10 1000 v_zave v_zdes file simulation_data/abpot/50.dat
run             50000
Generated 0 of 1 mixed pair_coeff terms from geometric mixing rule
Per MPI rank memory allocation (min/avg/max) = 13.36 | 14.42 | 15 Mbytes
   Step          Temp          E_pair         E_mol          TotEng         Press     
   2970000   290.85996      367.58758      18524.602      19308.349     -143.3155     
   2980000   287.37971      377.5933       18519.525      19308.298      72.440258    
   2990000   293.86767      367.61527      18528.37       19316.448     -129.98119    
   3000000   293.11608      374.39838      18531.899      19325.685     -50.319003    
   3010000   306.38211      379.18832      18481.783      19299.339      224.09739    
   3020000   289.65746      367.38461      18499.376      19281.199     -52.644712    
Loop time of 14.7584 on 16 procs for 50000 steps with 481 atoms

Performance: 14.636 ns/day, 1.640 hours/ns, 3387.896 timesteps/s, 1.630 Matom-step/s
100.0% CPU use with 16 MPI tasks x 1 OpenMP threads

MPI task timing breakdown:
Section |  min time  |  avg time  |  max time  |%varavg| %total
---------------------------------------------------------------
Pair    | 0.45802    | 1.9825     | 3.2297     |  59.2 | 13.43
Bond    | 1.3047     | 2.5265     | 3.1374     |  28.8 | 17.12
Neigh   | 0.02447    | 0.025626   | 0.027401   |   0.6 |  0.17
Comm    | 7.8722     | 9.1712     | 11.357     |  34.5 | 62.14
Output  | 0.006208   | 0.0090728  | 0.011171   |   1.6 |  0.06
Modify  | 0.39361    | 0.63204    | 0.8297     |  16.8 |  4.28
Other   |            | 0.4115     |            |       |  2.79

Nlocal:        30.0625 ave          37 max          24 min
Histogram: 2 1 3 0 3 1 3 0 1 2
Nghost:        2355.81 ave        2373 max        2346 min
Histogram: 4 2 1 2 2 1 2 0 1 1
Neighs:              0 ave           0 max           0 min
Histogram: 16 0 0 0 0 0 0 0 0 0

Total # of neighbors = 0
Ave neighs/atom = 0
Ave special neighs/atom = 15.567568
Neighbor list builds = 57
Dangerous builds = 0
unfix           myat1
next            cpt
jump            SELF loop
variable        zdes equal  -15+0.60*(${cpt}-1)
variable        zdes equal  -15+0.60*(51-1)
variable        zave equal xcm(H2,z)
fix             mytth2 H2 spring tether ${k1} 2.5 2.5 ${zdes} 0
fix             mytth2 H2 spring tether 1.7 2.5 2.5 ${zdes} 0
fix             mytth2 H2 spring tether 1.7 2.5 2.5 15 0
run             10000
Generated 0 of 1 mixed pair_coeff terms from geometric mixing rule
Per MPI rank memory allocation (min/avg/max) = 13.36 | 14.45 | 15 Mbytes
   Step          Temp          E_pair         E_mol          TotEng         Press     
   3020000   289.65746      367.38461      18499.376      19281.199     -52.644712    
   3030000   298.07857      368.79342      18512.422      19307.703     -19.170519    
Loop time of 2.85843 on 16 procs for 10000 steps with 481 atoms

Performance: 15.113 ns/day, 1.588 hours/ns, 3498.422 timesteps/s, 1.683 Matom-step/s
100.0% CPU use with 16 MPI tasks x 1 OpenMP threads

MPI task timing breakdown:
Section |  min time  |  avg time  |  max time  |%varavg| %total
---------------------------------------------------------------
Pair    | 0.1        | 0.39492    | 0.63588    |  25.9 | 13.82
Bond    | 0.28075    | 0.50318    | 0.62165    |  12.2 | 17.60
Neigh   | 0.0050154  | 0.0052485  | 0.0055962  |   0.3 |  0.18
Comm    | 1.4971     | 1.7481     | 2.1605     |  14.8 | 61.16
Output  | 0.000958   | 0.0015928  | 0.0020799  |   0.9 |  0.06
Modify  | 0.073544   | 0.12463    | 0.16617    |   8.2 |  4.36
Other   |            | 0.08076    |            |       |  2.83

Nlocal:        30.0625 ave          35 max          22 min
Histogram: 1 0 0 1 3 2 4 0 1 4
Nghost:        2366.31 ave        2385 max        2350 min
Histogram: 1 1 2 3 2 2 3 1 0 1
Neighs:              0 ave           0 max           0 min
Histogram: 16 0 0 0 0 0 0 0 0 0

Total # of neighbors = 0
Ave neighs/atom = 0
Ave special neighs/atom = 15.567568
Neighbor list builds = 12
Dangerous builds = 0
fix             myat1 all ave/time 100 10 1000 v_zave v_zdes file simulation_data/abpot/${cpt}.dat
fix             myat1 all ave/time 100 10 1000 v_zave v_zdes file simulation_data/abpot/51.dat
run             50000
Generated 0 of 1 mixed pair_coeff terms from geometric mixing rule
Per MPI rank memory allocation (min/avg/max) = 13.36 | 14.45 | 15 Mbytes
   Step          Temp          E_pair         E_mol          TotEng         Press     
   3030000   298.07857      368.79342      18512.422      19307.703     -19.170519    
   3040000   301.7702       372.65145      18535.407      19339.828      12.292872    
   3050000   295.078        367.12484      18524.534      19313.854     -82.8289      
   3060000   293.89571      371.87393      18497.213      19289.59      -17.949362    
   3070000   288.26426      371.48042      18527.683      19311.608     -96.998438    
   3080000   307.13205      374.59823      18517.513      19331.553     -38.863715    
Loop time of 14.215 on 16 procs for 50000 steps with 481 atoms

Performance: 15.195 ns/day, 1.579 hours/ns, 3517.415 timesteps/s, 1.692 Matom-step/s
100.0% CPU use with 16 MPI tasks x 1 OpenMP threads

MPI task timing breakdown:
Section |  min time  |  avg time  |  max time  |%varavg| %total
---------------------------------------------------------------
Pair    | 0.45983    | 1.9688     | 3.2337     |  58.1 | 13.85
Bond    | 1.5235     | 2.5181     | 3.0759     |  24.9 | 17.71
Neigh   | 0.023026   | 0.024      | 0.025592   |   0.6 |  0.17
Comm    | 7.4321     | 8.673      | 10.54      |  33.3 | 61.01
Output  | 0.0060867  | 0.0088343  | 0.010905   |   1.6 |  0.06
Modify  | 0.38884    | 0.61557    | 0.79959    |  16.5 |  4.33
Other   |            | 0.4067     |            |       |  2.86

Nlocal:        30.0625 ave          41 max          23 min
Histogram: 2 2 3 2 2 0 3 0 1 1
Nghost:        2362.19 ave        2385 max        2341 min
Histogram: 3 2 0 0 3 3 1 1 0 3
Neighs:              0 ave           0 max           0 min
Histogram: 16 0 0 0 0 0 0 0 0 0

Total # of neighbors = 0
Ave neighs/atom = 0
Ave special neighs/atom = 15.567568
Neighbor list builds = 55
Dangerous builds = 0
unfix           myat1
next            cpt
jump            SELF loop

Total wall time: 0:14:52
