# --- log file ---

variable pre equal 112 # desired pressure (Atm)
variable tem equal 300 # desired temperature (K)

variable k1 equal 1.7 # spring constant
variable k2 equal 3.5 # spring constant

units real
atom_style molecular
boundary p p p
neighbor 1.0 bin
neigh_modify delay 3 one 6000
bond_style harmonic
angle_style harmonic
dihedral_style opls
improper_style harmonic
pair_style hybrid lj/cut 14 sg 15 cb 30 # Fluid-fluid interactions have a cutoff of 15 Å, fluid-solid interactions have a cutoff of 30 Å
# *--* C-C parameters *--*
bond_style harmonic
angle_style harmonic
dihedral_style opls
improper_style harmonic
# *--* C-C parameters *--*


# 2. Read the graphite platelet data file and define potentials parameters
read_data       ../geometry/carbonPlatelets/simulation_data/abpot_sys.data  extra/atom/types 1
Reading data file ...
  orthogonal box = (-30 -30 -30) to (30 30 30)
  4 by 4 by 4 MPI processor grid
  reading atoms ...
  480 atoms
  reading velocities ...
  480 velocities
  scanning bonds ...
  2 = max bonds/atom
  scanning angles ...
  3 = max angles/atom
  scanning dihedrals ...
  8 = max dihedrals/atom
  scanning impropers ...
  2 = max impropers/atom
  orthogonal box = (-30 -30 -30) to (30 30 30)
  4 by 4 by 4 MPI processor grid
  reading bonds ...
  676 bonds
  reading angles ...
  1268 angles
  reading dihedrals ...
  2394 dihedrals
  reading impropers ...
  396 impropers
Finding 1-2 1-3 1-4 neighbors ...
  special bond factors lj:    0        0        0       
  special bond factors coul:  0        0        0       
     3 = max # of 1-2 neighbors
     6 = max # of 1-3 neighbors
    18 = max # of 1-4 neighbors
    18 = max # of special neighbors
  special bonds CPU = 0.002 seconds
  read_data CPU = 0.049 seconds
include         PARM.lammps

#////////////////////////////////////////////////////////////////////////////////////////////////////////////////////////////////
#//     Filename: PARM.lammps
#//     File Type: LAMMPS input script
#//     Description: This script defines the parameters for the simulation of hydrogen absorption in graphite platelets.
#//     Author: Edoardo Cabiati
#//     Date: 2024-07-27
#////////////////////////////////////////////////////////////////////////////////////////////////////////////////////////////////

mass 2 2.016 # For now at least, in accordance with the paper by Wang and Johnson,
             # 1998, the hydrogen atoms are regarded as simple spherical atoms

# //////////////////////////////////////    C-C potentials    //////////////////////////////////////
pair_coeff 1 1 lj/cut 0.066 3.4
bond_coeff 1 469 1.4
angle_coeff 1 63 120
dihedral_coeff 1 0 7.25 0 0
improper_coeff 1 5 180
special_bonds lj 0.0 0.0 0.5
Finding 1-2 1-3 1-4 neighbors ...
  special bond factors lj:    0        0        0.5     
  special bond factors coul:  0        0        0       
     3 = max # of 1-2 neighbors
     6 = max # of 1-3 neighbors
    18 = max # of 1-4 neighbors
    18 = max # of special neighbors
  special bonds CPU = 0.001 seconds
# //////////////////////////////////////    C-C potentials    //////////////////////////////////////
# -------------------------------------------------------------------------------------------------
# //////////////////////////////////////    H-H potentials    //////////////////////////////////////
variable alpha equal 1.713          #|
variable sigma equal 1.567          #|
variable gamma equal 0.00993        #|
variable c6 equal 12.14             #|      The parameters are all in atomic units, the conversion to kcal/mol
variable c8 equal 215.2             #|      is performed in the pair_sg.cpp file
variable c9 equal 143.1             #|
variable c10 equal 4813.9           #|
variable rc equal 8.321             #|
pair_coeff 2 2 sg ${alpha} ${sigma} ${gamma} ${c6} ${c8} ${c9} ${c10} ${rc} # H-H potentials
pair_coeff 2 2 sg 1.713 ${sigma} ${gamma} ${c6} ${c8} ${c9} ${c10} ${rc} 
pair_coeff 2 2 sg 1.713 1.567 ${gamma} ${c6} ${c8} ${c9} ${c10} ${rc} 
pair_coeff 2 2 sg 1.713 1.567 0.00993 ${c6} ${c8} ${c9} ${c10} ${rc} 
pair_coeff 2 2 sg 1.713 1.567 0.00993 12.14 ${c8} ${c9} ${c10} ${rc} 
pair_coeff 2 2 sg 1.713 1.567 0.00993 12.14 215.2 ${c9} ${c10} ${rc} 
pair_coeff 2 2 sg 1.713 1.567 0.00993 12.14 215.2 143.1 ${c10} ${rc} 
pair_coeff 2 2 sg 1.713 1.567 0.00993 12.14 215.2 143.1 4813.9 ${rc} 
pair_coeff 2 2 sg 1.713 1.567 0.00993 12.14 215.2 143.1 4813.9 8.321 
#pair_coeff 2 2 sg 1.713 1.567 0.00993 12.14 215.2 143.1 4813.9 8.321 # H-H potentials
# //////////////////////////////////////    H-H potentials    //////////////////////////////////////
# -------------------------------------------------------------------------------------------------
# //////////////////////////////////////    C-H potentials    //////////////////////////////////////
# Parameters taken from the paper by Wang and Johnson, 1998
variable sigma_CC equal 3.43 # Å
variable sigma_HH equal 3.075 # Å
variable sigma_CH_geo equal sqrt(${sigma_CC}*${sigma_HH}) # Å
variable sigma_CH_geo equal sqrt(3.43*${sigma_HH}) 
variable sigma_CH_geo equal sqrt(3.43*3.075) 
variable sigma_CH_arit equal 0.5*(${sigma_CC}+${sigma_HH}) # Å
variable sigma_CH_arit equal 0.5*(3.43+${sigma_HH}) 
variable sigma_CH_arit equal 0.5*(3.43+3.075) 

variable P_par equal 0.57 # Å^3
variable P_perp equal 1.995 # Å^3
variable P_h equal 0.81 # Å^3
variable E_h equal 2.337e5*(1/503.23) # K * 1/503.23 kcal/mol/K = kcal/mol
variable E_c equal 1.39254e5*(1/503.23) # K * 1/503.23 kcal/mol/K = kcal/mol

variable epsilon equal 4*(5/11)*v_E_h*v_E_c*v_P_h*(v_P_par+v_P_perp/2)/(v_sigma_CH_geo^6*(v_E_h+v_E_c)) # kcal/mol
# The formula taken from paper by Wang and Johnson, 1998 to construct epsilon does not seem to be consistent with the
# results obtained from the LAMMPS simulation. We will be using the value of epsilon obtained from the simplified
# version of the CB potential as 12-6 lennard-jones potential, presented in the paper "Theoretical investigation of the
# effect of graphite interlayer spacing on hydrogen absorption" by Rachel S. Aga, C. L. Fu, Maja Krčmar, and James R. Morris.
variable epsilon_sub equal 4*0.085094 # kcal/mol
variable sigma equal 2.97 # Å

pair_coeff 1 2 cb ${epsilon_sub} ${sigma} ${P_par} ${P_perp} # C-H potential
pair_coeff 1 2 cb 0.340376 ${sigma} ${P_par} ${P_perp} 
pair_coeff 1 2 cb 0.340376 2.97 ${P_par} ${P_perp} 
pair_coeff 1 2 cb 0.340376 2.97 0.57 ${P_perp} 
pair_coeff 1 2 cb 0.340376 2.97 0.57 1.995 
#pair_coeff 1 2 lj/cut 0.3025 2.065
# //////////////////////////////////////    C-H potentials    //////////////////////////////////////

# 3. Add a single hydrogen molecule to the system, close to the center of the first platelet
create_atoms    2 single 0 0 -2
Created 1 atoms
  using lattice units in orthogonal box = (-30 -30 -30) to (30 30 30)
  create_atoms CPU = 0.000 seconds

group           C type 1
480 atoms in group C
group           H2 type 2
1 atoms in group H2

# 4. Equilibration
timestep        0.05
fix             mytth1 C spring/self ${k2} # Apply a spring force to the carbon atoms
fix             mytth1 C spring/self 3.5 
velocity        all create ${tem} 48 rot yes mom yes dist gaussian # Initialize velocities
velocity        all create 300 48 rot yes mom yes dist gaussian 
fix             mynpt all npt temp ${tem} ${tem} 100 x ${pre} ${pre} 1000 y ${pre} ${pre} 1000 # Apply NPT ensemble to the system
fix             mynpt all npt temp 300 ${tem} 100 x ${pre} ${pre} 1000 y ${pre} ${pre} 1000 
fix             mynpt all npt temp 300 300 100 x ${pre} ${pre} 1000 y ${pre} ${pre} 1000 
fix             mynpt all npt temp 300 300 100 x 112 ${pre} 1000 y ${pre} ${pre} 1000 
fix             mynpt all npt temp 300 300 100 x 112 112 1000 y ${pre} ${pre} 1000 
fix             mynpt all npt temp 300 300 100 x 112 112 1000 y 112 ${pre} 1000 
fix             mynpt all npt temp 300 300 100 x 112 112 1000 y 112 112 1000 

thermo          10000
dump            dump all atom 1000 simulation_data/absorption_pot.lammpstrj

run             20000

CITE-CITE-CITE-CITE-CITE-CITE-CITE-CITE-CITE-CITE-CITE-CITE-CITE

Your simulation uses code contributions which should be cited:

- Type Label Framework: https://doi.org/10.1021/acs.jpcb.3c08419

@Article{Gissinger24,
 author = {Jacob R. Gissinger, Ilia Nikiforov, Yaser Afshar, Brendon Waters, Moon-ki Choi, Daniel S. Karls, Alexander Stukowski, Wonpil Im, Hendrik Heinz, Axel Kohlmeyer, and Ellad B. Tadmor},
 title = {Type Label Framework for Bonded Force Fields in LAMMPS},
 journal = {J. Phys. Chem. B},
 year =    2024,
 volume =  128,
 number =  13,
 pages =   {3282–-3297}
}

CITE-CITE-CITE-CITE-CITE-CITE-CITE-CITE-CITE-CITE-CITE-CITE-CITE

Generated 0 of 1 mixed pair_coeff terms from geometric mixing rule
Neighbor list info ...
  update: every = 1 steps, delay = 3 steps, check = yes
  max neighbors/atom: 6000, page size: 100000
  master list distance cutoff = 31
  ghost atom cutoff = 31
  binsize = 15.5, bins = 4 4 4
  4 neighbor lists, perpetual/occasional/extra = 4 0 0
  (1) pair lj/cut, perpetual, skip trim from (4)
      attributes: half, newton on, cut 15
      pair build: skip/trim
      stencil: none
      bin: none
  (2) pair sg, perpetual, skip trim from (4)
      attributes: half, newton on, cut 16
      pair build: skip/trim
      stencil: none
      bin: none
  (3) pair cb, perpetual, skip from (4)
      attributes: half, newton on
      pair build: skip
      stencil: none
      bin: none
  (4) neighbor class addition, perpetual
      attributes: half, newton on
      pair build: half/bin/newton
      stencil: half/bin/3d
      bin: standard
Per MPI rank memory allocation (min/avg/max) = 13.29 | 13.4 | 13.93 Mbytes
   Step          Temp          E_pair         E_mol          TotEng         Press          Volume    
         0   300            308.5124       19603.922      20341.671     -432.43506      216000       
     10000   308.71881      373.71132      18568.425      19383.847     -313.89117      172136.83    
     20000   319.74694      375.11214      18539.114      19371.717     -417.40409      126541.73    
Loop time of 8.09508 on 64 procs for 20000 steps with 481 atoms

Performance: 10.673 ns/day, 2.249 hours/ns, 2470.637 timesteps/s, 1.188 Matom-step/s
99.8% CPU use with 64 MPI tasks x 1 OpenMP threads

MPI task timing breakdown:
Section |  min time  |  avg time  |  max time  |%varavg| %total
---------------------------------------------------------------
Pair    | 0.1348     | 0.4456     | 2.9543     |  75.2 |  5.50
Bond    | 0.0040009  | 0.355      | 1.8731     | 102.2 |  4.39
Neigh   | 0.018814   | 0.021037   | 0.023155   |   0.7 |  0.26
Comm    | 2.259      | 4.6444     | 5.9141     |  49.4 | 57.37
Output  | 0.0038921  | 0.011136   | 0.019349   |   4.8 |  0.14
Modify  | 0.73296    | 2.2965     | 4.8719     |  86.4 | 28.37
Other   |            | 0.3214     |            |       |  3.97

Nlocal:        7.51562 ave          36 max           0 min
Histogram: 41 7 0 0 0 1 2 9 3 1
Nghost:        1804.95 ave        2371 max        1288 min
Histogram: 16 0 0 0 32 0 0 0 0 16
Neighs:              0 ave           0 max           0 min
Histogram: 64 0 0 0 0 0 0 0 0 0

Total # of neighbors = 0
Ave neighs/atom = 0
Ave special neighs/atom = 15.567568
Neighbor list builds = 52
Dangerous builds = 0
unfix           mynpt
unfix           mytth1

# 5. Umbrella sampling
fix             mynvt all nvt temp ${tem} ${tem} 100
fix             mynvt all nvt temp 300 ${tem} 100
fix             mynvt all nvt temp 300 300 100
fix             mytth1 C spring/self ${k2}
fix             mytth1 C spring/self 3.5

variable        cpt loop 51
label           loop
variable        zdes equal  -15+0.60*(${cpt}-1)
variable        zdes equal  -15+0.60*(1-1)
variable        zave equal xcm(H2,z)
fix             mytth2 H2 spring tether ${k1} 2.5 2.5 ${zdes} 0
fix             mytth2 H2 spring tether 1.7 2.5 2.5 ${zdes} 0
fix             mytth2 H2 spring tether 1.7 2.5 2.5 -15 0
run             10000
Generated 0 of 1 mixed pair_coeff terms from geometric mixing rule
Per MPI rank memory allocation (min/avg/max) = 13.32 | 13.62 | 14.95 Mbytes
   Step          Temp          E_pair         E_mol          TotEng         Press     
     20000   319.74694      375.11214      18539.114      19371.717     -417.40409    
     30000   257.69316      346.42716      18581.07       19296.202     -1165.2303    
Loop time of 3.393 on 64 procs for 10000 steps with 481 atoms

Performance: 12.732 ns/day, 1.885 hours/ns, 2947.241 timesteps/s, 1.418 Matom-step/s
100.0% CPU use with 64 MPI tasks x 1 OpenMP threads

MPI task timing breakdown:
Section |  min time  |  avg time  |  max time  |%varavg| %total
---------------------------------------------------------------
Pair    | 0.0033823  | 0.13128    | 0.70909    |  59.5 |  3.87
Bond    | 0.0010706  | 0.15867    | 0.84982    |  65.6 |  4.68
Neigh   | 0.045062   | 0.051089   | 0.057313   |   1.3 |  1.51
Comm    | 1.4187     | 2.5012     | 3.0345     |  35.4 | 73.72
Output  | 0.001585   | 0.004421   | 0.0075108  |   2.9 |  0.13
Modify  | 0.12954    | 0.41977    | 1.7725     |  74.6 | 12.37
Other   |            | 0.1266     |            |       |  3.73

Nlocal:        7.51562 ave          36 max           0 min
Histogram: 41 7 0 0 0 3 6 3 3 1
Nghost:         1808.5 ave        2382 max        1289 min
Histogram: 16 0 0 0 32 0 0 0 0 16
Neighs:              0 ave           0 max           0 min
Histogram: 64 0 0 0 0 0 0 0 0 0

Total # of neighbors = 0
Ave neighs/atom = 0
Ave special neighs/atom = 15.567568
Neighbor list builds = 133
Dangerous builds = 0
fix             myat1 all ave/time 1000 10 10000 v_zave v_zdes file simulation_data/abpot/${cpt}.dat
fix             myat1 all ave/time 1000 10 10000 v_zave v_zdes file simulation_data/abpot/1.dat
run             50000
Generated 0 of 1 mixed pair_coeff terms from geometric mixing rule
Per MPI rank memory allocation (min/avg/max) = 13.32 | 13.62 | 14.95 Mbytes
   Step          Temp          E_pair         E_mol          TotEng         Press     
     30000   257.69316      346.42716      18581.07       19296.202     -1165.2303    
     40000   280.13803      418.83419      18498.413      19318.066      705.07751    
     50000   303.46972      395.59157      18525.587      19355.379      200.83663    
     60000   321.60604      377.21237      18518.963      19356.326     -350.00441    
     70000   302.63186      381.97736      18514.864      19329.844     -57.455159    
     80000   301.66409      389.21872      18528.65       19349.486      45.781155    
Loop time of 16.6677 on 64 procs for 50000 steps with 481 atoms

Performance: 12.959 ns/day, 1.852 hours/ns, 2999.822 timesteps/s, 1.443 Matom-step/s
100.0% CPU use with 64 MPI tasks x 1 OpenMP threads

MPI task timing breakdown:
Section |  min time  |  avg time  |  max time  |%varavg| %total
---------------------------------------------------------------
Pair    | 0.017042   | 0.64803    | 3.5884     | 134.6 |  3.89
Bond    | 0.0053028  | 0.7894     | 4.3717     | 147.0 |  4.74
Neigh   | 0.17434    | 0.19769    | 0.22221    |   2.5 |  1.19
Comm    | 7.0467     | 12.356     | 15.008     |  79.0 | 74.13
Output  | 0.0078235  | 0.019887   | 0.031903   |   5.6 |  0.12
Modify  | 0.60876    | 2.0247     | 8.6696     | 165.1 | 12.15
Other   |            | 0.6324     |            |       |  3.79

Nlocal:        7.51562 ave          35 max           0 min
Histogram: 43 2 3 0 0 2 4 3 3 4
Nghost:        1817.89 ave        2408 max        1292 min
Histogram: 16 0 0 0 32 0 0 0 0 16
Neighs:              0 ave           0 max           0 min
Histogram: 64 0 0 0 0 0 0 0 0 0

Total # of neighbors = 0
Ave neighs/atom = 0
Ave special neighs/atom = 15.567568
Neighbor list builds = 516
Dangerous builds = 0
unfix           myat1
next            cpt
jump            SELF loop
variable        zdes equal  -15+0.60*(${cpt}-1)
variable        zdes equal  -15+0.60*(2-1)
variable        zave equal xcm(H2,z)
fix             mytth2 H2 spring tether ${k1} 2.5 2.5 ${zdes} 0
fix             mytth2 H2 spring tether 1.7 2.5 2.5 ${zdes} 0
fix             mytth2 H2 spring tether 1.7 2.5 2.5 -14.4 0
run             10000
Generated 0 of 1 mixed pair_coeff terms from geometric mixing rule
Per MPI rank memory allocation (min/avg/max) = 13.32 | 13.62 | 14.95 Mbytes
   Step          Temp          E_pair         E_mol          TotEng         Press     
     80000   301.66409      389.21872      18528.65       19349.486      45.781155    
     90000   305.58121      386.77106      18546.818      19370.812      17.237781    
Loop time of 3.19031 on 64 procs for 10000 steps with 481 atoms

Performance: 13.541 ns/day, 1.772 hours/ns, 3134.495 timesteps/s, 1.508 Matom-step/s
100.0% CPU use with 64 MPI tasks x 1 OpenMP threads

MPI task timing breakdown:
Section |  min time  |  avg time  |  max time  |%varavg| %total
---------------------------------------------------------------
Pair    | 0.0033955  | 0.12881    | 0.68527    |  59.6 |  4.04
Bond    | 0.0010563  | 0.15769    | 0.85266    |  65.8 |  4.94
Neigh   | 0.027235   | 0.031053   | 0.035059   |   1.0 |  0.97
Comm    | 1.3549     | 2.3684     | 2.8736     |  34.3 | 74.24
Output  | 0.0014895  | 0.0033564  | 0.0052626  |   2.1 |  0.11
Modify  | 0.1179     | 0.37523    | 1.6117     |  69.4 | 11.76
Other   |            | 0.1258     |            |       |  3.94

Nlocal:        7.51562 ave          34 max           0 min
Histogram: 41 6 1 0 0 1 3 4 4 4
Nghost:         1820.8 ave        2410 max        1292 min
Histogram: 16 0 0 0 32 0 0 0 0 16
Neighs:              0 ave           0 max           0 min
Histogram: 64 0 0 0 0 0 0 0 0 0

Total # of neighbors = 0
Ave neighs/atom = 0
Ave special neighs/atom = 15.567568
Neighbor list builds = 81
Dangerous builds = 0
fix             myat1 all ave/time 1000 10 10000 v_zave v_zdes file simulation_data/abpot/${cpt}.dat
fix             myat1 all ave/time 1000 10 10000 v_zave v_zdes file simulation_data/abpot/2.dat
run             50000
Generated 0 of 1 mixed pair_coeff terms from geometric mixing rule
Per MPI rank memory allocation (min/avg/max) = 13.32 | 13.62 | 14.95 Mbytes
   Step          Temp          E_pair         E_mol          TotEng         Press     
     90000   305.58121      386.77106      18546.818      19370.812      17.237781    
    100000   311.74218      374.93244      18582.413      19403.383     -279.03761    
    110000   299.27272      387.022        18541.932      19357.15       56.220403    
    120000   301.2951       390.60996      18541.069      19362.769     -18.974992    
    130000   311.27102      374.36322      18527.017      19346.744     -286.61031    
    140000   302.68802      386.26524      18558.284      19377.632      86.745366    
Loop time of 16.346 on 64 procs for 50000 steps with 481 atoms

Performance: 13.214 ns/day, 1.816 hours/ns, 3058.850 timesteps/s, 1.471 Matom-step/s
100.0% CPU use with 64 MPI tasks x 1 OpenMP threads

MPI task timing breakdown:
Section |  min time  |  avg time  |  max time  |%varavg| %total
---------------------------------------------------------------
Pair    | 0.016778   | 0.64913    | 3.4414     | 133.9 |  3.97
Bond    | 0.0052938  | 0.7894     | 4.4117     | 146.9 |  4.83
Neigh   | 0.099786   | 0.11303    | 0.1271     |   1.9 |  0.69
Comm    | 6.9859     | 12.157     | 14.794     |  78.6 | 74.37
Output  | 0.0076338  | 0.016117   | 0.024459   |   4.3 |  0.10
Modify  | 0.59066    | 1.9883     | 8.4892     | 162.0 | 12.16
Other   |            | 0.6334     |            |       |  3.87

Nlocal:        7.51562 ave          40 max           0 min
Histogram: 42 5 1 2 1 2 4 3 1 3
Nghost:        1816.58 ave        2397 max        1287 min
Histogram: 16 0 0 0 32 0 0 0 0 16
Neighs:              0 ave           0 max           0 min
Histogram: 64 0 0 0 0 0 0 0 0 0

Total # of neighbors = 0
Ave neighs/atom = 0
Ave special neighs/atom = 15.567568
Neighbor list builds = 287
Dangerous builds = 0
unfix           myat1
next            cpt
jump            SELF loop
variable        zdes equal  -15+0.60*(${cpt}-1)
variable        zdes equal  -15+0.60*(3-1)
variable        zave equal xcm(H2,z)
fix             mytth2 H2 spring tether ${k1} 2.5 2.5 ${zdes} 0
fix             mytth2 H2 spring tether 1.7 2.5 2.5 ${zdes} 0
fix             mytth2 H2 spring tether 1.7 2.5 2.5 -13.8 0
run             10000
Generated 0 of 1 mixed pair_coeff terms from geometric mixing rule
Per MPI rank memory allocation (min/avg/max) = 13.32 | 13.62 | 14.95 Mbytes
   Step          Temp          E_pair         E_mol          TotEng         Press     
    140000   302.68802      386.26524      18558.284      19377.632      86.745366    
    150000   288.73058      390.89244      18554.974      19358.979      120.23529    
Loop time of 3.38414 on 64 procs for 10000 steps with 481 atoms

Performance: 12.765 ns/day, 1.880 hours/ns, 2954.956 timesteps/s, 1.421 Matom-step/s
100.0% CPU use with 64 MPI tasks x 1 OpenMP threads

MPI task timing breakdown:
Section |  min time  |  avg time  |  max time  |%varavg| %total
---------------------------------------------------------------
Pair    | 0.0034074  | 0.13169    | 0.84802    |  62.0 |  3.89
Bond    | 0.0010555  | 0.15862    | 0.91025    |  66.9 |  4.69
Neigh   | 0.0068609  | 0.0077913  | 0.008717   |   0.5 |  0.23
Comm    | 1.3862     | 2.5278     | 3.0927     |  36.7 | 74.70
Output  | 0.0014658  | 0.0030632  | 0.0046819  |   1.9 |  0.09
Modify  | 0.11414    | 0.42852    | 1.8378     |  77.1 | 12.66
Other   |            | 0.1266     |            |       |  3.74

Nlocal:        7.51562 ave          32 max           0 min
Histogram: 40 8 0 0 0 0 0 5 4 7
Nghost:        1824.64 ave        2418 max        1292 min
Histogram: 16 0 0 0 32 0 0 0 0 16
Neighs:              0 ave           0 max           0 min
Histogram: 64 0 0 0 0 0 0 0 0 0

Total # of neighbors = 0
Ave neighs/atom = 0
Ave special neighs/atom = 15.567568
Neighbor list builds = 19
Dangerous builds = 0
fix             myat1 all ave/time 1000 10 10000 v_zave v_zdes file simulation_data/abpot/${cpt}.dat
fix             myat1 all ave/time 1000 10 10000 v_zave v_zdes file simulation_data/abpot/3.dat
run             50000
Generated 0 of 1 mixed pair_coeff terms from geometric mixing rule
Per MPI rank memory allocation (min/avg/max) = 13.32 | 13.62 | 14.95 Mbytes
   Step          Temp          E_pair         E_mol          TotEng         Press     
    150000   288.73058      390.89244      18554.974      19358.979      120.23529    
    160000   292.63165      384.48777      18532.01       19335.192     -101.29847    
    170000   302.86792      384.66578      18537.043      19355.049      39.836712    
    180000   318.3082       387.14189      18539.162      19381.735     -48.198607    
    190000   308.90447      387.18884      18554.277      19383.443     -62.896448    
    200000   299.57603      383.74317      18583.192      19395.565     -230.04359    
Loop time of 16.6943 on 64 procs for 50000 steps with 481 atoms

Performance: 12.939 ns/day, 1.855 hours/ns, 2995.036 timesteps/s, 1.441 Matom-step/s
100.0% CPU use with 64 MPI tasks x 1 OpenMP threads

MPI task timing breakdown:
Section |  min time  |  avg time  |  max time  |%varavg| %total
---------------------------------------------------------------
Pair    | 0.017233   | 0.65381    | 4.1418     | 136.3 |  3.92
Bond    | 0.005359   | 0.78745    | 4.2055     | 146.9 |  4.72
Neigh   | 0.026116   | 0.029507   | 0.033043   |   0.9 |  0.18
Comm    | 6.9094     | 12.467     | 15.239     |  80.8 | 74.68
Output  | 0.0075274  | 0.015327   | 0.023004   |   4.1 |  0.09
Modify  | 0.57517    | 2.1098     | 8.9941     | 170.0 | 12.64
Other   |            | 0.6311     |            |       |  3.78

Nlocal:        7.51562 ave          35 max           0 min
Histogram: 41 7 0 0 0 1 4 3 5 3
Nghost:        1824.08 ave        2418 max        1290 min
Histogram: 16 0 0 0 32 0 0 0 0 16
Neighs:              0 ave           0 max           0 min
Histogram: 64 0 0 0 0 0 0 0 0 0

Total # of neighbors = 0
Ave neighs/atom = 0
Ave special neighs/atom = 15.567568
Neighbor list builds = 74
Dangerous builds = 0
unfix           myat1
next            cpt
jump            SELF loop
variable        zdes equal  -15+0.60*(${cpt}-1)
variable        zdes equal  -15+0.60*(4-1)
variable        zave equal xcm(H2,z)
fix             mytth2 H2 spring tether ${k1} 2.5 2.5 ${zdes} 0
fix             mytth2 H2 spring tether 1.7 2.5 2.5 ${zdes} 0
fix             mytth2 H2 spring tether 1.7 2.5 2.5 -13.2 0
run             10000
Generated 0 of 1 mixed pair_coeff terms from geometric mixing rule
Per MPI rank memory allocation (min/avg/max) = 13.32 | 13.62 | 14.95 Mbytes
   Step          Temp          E_pair         E_mol          TotEng         Press     
    200000   299.57603      383.74317      18583.192      19395.565     -230.04359    
    210000   320.26509      385.2439       18538.833      19382.309     -23.806931    
Loop time of 3.34547 on 64 procs for 10000 steps with 481 atoms

Performance: 12.913 ns/day, 1.859 hours/ns, 2989.117 timesteps/s, 1.438 Matom-step/s
100.0% CPU use with 64 MPI tasks x 1 OpenMP threads

MPI task timing breakdown:
Section |  min time  |  avg time  |  max time  |%varavg| %total
---------------------------------------------------------------
Pair    | 0.0035251  | 0.13081    | 0.83935    |  61.5 |  3.91
Bond    | 0.0010655  | 0.15684    | 0.8523     |  65.6 |  4.69
Neigh   | 0.0055942  | 0.0064431  | 0.0072628  |   0.5 |  0.19
Comm    | 1.3803     | 2.5064     | 3.06       |  36.2 | 74.92
Output  | 0.0014512  | 0.0029855  | 0.0045218  |   1.8 |  0.09
Modify  | 0.11161    | 0.41627    | 1.8066     |  76.6 | 12.44
Other   |            | 0.1257     |            |       |  3.76

Nlocal:        7.51562 ave          33 max           0 min
Histogram: 42 4 2 0 0 0 3 4 4 5
Nghost:        1820.33 ave        2419 max        1291 min
Histogram: 16 0 0 0 32 0 0 0 0 16
Neighs:              0 ave           0 max           0 min
Histogram: 64 0 0 0 0 0 0 0 0 0

Total # of neighbors = 0
Ave neighs/atom = 0
Ave special neighs/atom = 15.567568
Neighbor list builds = 17
Dangerous builds = 0
fix             myat1 all ave/time 1000 10 10000 v_zave v_zdes file simulation_data/abpot/${cpt}.dat
fix             myat1 all ave/time 1000 10 10000 v_zave v_zdes file simulation_data/abpot/4.dat
run             50000
Generated 0 of 1 mixed pair_coeff terms from geometric mixing rule
Per MPI rank memory allocation (min/avg/max) = 13.32 | 13.62 | 14.95 Mbytes
   Step          Temp          E_pair         E_mol          TotEng         Press     
    210000   320.26509      385.2439       18538.833      19382.309     -23.806931    
    220000   306.52123      386.62653      18537.921      19363.115     -106.45754    
    230000   298.29159      388.80028      18510.827      19326.42      -21.925611    
    240000   275.86597      395.80349      18501.009      19291.518      222.66684    
    250000   286.1583       382.78516      18559.985      19352.202     -255.11151    
    260000   313.23458      391.77678      18515.98       19355.929      112.20752    
Loop time of 16.8247 on 64 procs for 50000 steps with 481 atoms

Performance: 12.838 ns/day, 1.869 hours/ns, 2971.822 timesteps/s, 1.429 Matom-step/s
100.0% CPU use with 64 MPI tasks x 1 OpenMP threads

MPI task timing breakdown:
Section |  min time  |  avg time  |  max time  |%varavg| %total
---------------------------------------------------------------
Pair    | 0.0173     | 0.65366    | 4.1255     | 136.5 |  3.89
Bond    | 0.0053342  | 0.7866     | 3.9355     | 146.2 |  4.68
Neigh   | 0.045774   | 0.051785   | 0.058223   |   1.3 |  0.31
Comm    | 6.942      | 12.555     | 15.346     |  80.7 | 74.62
Output  | 0.0076459  | 0.015448   | 0.023002   |   4.0 |  0.09
Modify  | 0.57708    | 2.1292     | 9.0707     | 171.3 | 12.66
Other   |            | 0.6334     |            |       |  3.76

Nlocal:        7.51562 ave          37 max           0 min
Histogram: 43 4 1 0 1 0 5 5 4 1
Nghost:         1822.3 ave        2413 max        1291 min
Histogram: 16 0 0 0 32 0 0 0 0 16
Neighs:              0 ave           0 max           0 min
Histogram: 64 0 0 0 0 0 0 0 0 0

Total # of neighbors = 0
Ave neighs/atom = 0
Ave special neighs/atom = 15.567568
Neighbor list builds = 132
Dangerous builds = 0
unfix           myat1
next            cpt
jump            SELF loop
variable        zdes equal  -15+0.60*(${cpt}-1)
variable        zdes equal  -15+0.60*(5-1)
variable        zave equal xcm(H2,z)
fix             mytth2 H2 spring tether ${k1} 2.5 2.5 ${zdes} 0
fix             mytth2 H2 spring tether 1.7 2.5 2.5 ${zdes} 0
fix             mytth2 H2 spring tether 1.7 2.5 2.5 -12.6 0
run             10000
Generated 0 of 1 mixed pair_coeff terms from geometric mixing rule
Per MPI rank memory allocation (min/avg/max) = 13.32 | 13.62 | 14.95 Mbytes
   Step          Temp          E_pair         E_mol          TotEng         Press     
    260000   313.23458      391.77678      18515.98       19355.929      112.20752    
    270000   295.15649      389.44587      18559.499      19371.251     -19.794435    
Loop time of 3.26388 on 64 procs for 10000 steps with 481 atoms

Performance: 13.236 ns/day, 1.813 hours/ns, 3063.841 timesteps/s, 1.474 Matom-step/s
100.0% CPU use with 64 MPI tasks x 1 OpenMP threads

MPI task timing breakdown:
Section |  min time  |  avg time  |  max time  |%varavg| %total
---------------------------------------------------------------
Pair    | 0.0033229  | 0.13108    | 0.82152    |  61.1 |  4.02
Bond    | 0.0010622  | 0.15749    | 0.82611    |  65.8 |  4.83
Neigh   | 0.0054392  | 0.0061962  | 0.0069696  |   0.5 |  0.19
Comm    | 1.3897     | 2.437      | 2.9754     |  35.5 | 74.67
Output  | 0.0014384  | 0.0029604  | 0.0044956  |   1.8 |  0.09
Modify  | 0.11357    | 0.40279    | 1.7159     |  73.1 | 12.34
Other   |            | 0.1264     |            |       |  3.87

Nlocal:        7.51562 ave          36 max           0 min
Histogram: 40 8 0 0 1 1 3 4 4 3
Nghost:         1822.2 ave        2417 max        1288 min
Histogram: 16 0 0 0 32 0 0 0 0 16
Neighs:              0 ave           0 max           0 min
Histogram: 64 0 0 0 0 0 0 0 0 0

Total # of neighbors = 0
Ave neighs/atom = 0
Ave special neighs/atom = 15.567568
Neighbor list builds = 16
Dangerous builds = 0
fix             myat1 all ave/time 1000 10 10000 v_zave v_zdes file simulation_data/abpot/${cpt}.dat
fix             myat1 all ave/time 1000 10 10000 v_zave v_zdes file simulation_data/abpot/5.dat
run             50000
Generated 0 of 1 mixed pair_coeff terms from geometric mixing rule
Per MPI rank memory allocation (min/avg/max) = 13.32 | 13.62 | 14.95 Mbytes
   Step          Temp          E_pair         E_mol          TotEng         Press     
    270000   295.15649      389.44587      18559.499      19371.251     -19.794435    
    280000   306.72824      384.61809      18552.979      19376.46      -202.52125    
    290000   294.56839      400.23264      18523.732      19345.43       411.70492    
    300000   303.4882       381.87667      18534.702      19350.806     -184.49685    
    310000   310.19277      381.77425      18557.464      19383.058     -321.70862    
    320000   311.2805       384.29434      18557.957      19387.628     -244.16611    
Loop time of 16.5816 on 64 procs for 50000 steps with 481 atoms

Performance: 13.026 ns/day, 1.842 hours/ns, 3015.386 timesteps/s, 1.450 Matom-step/s
100.0% CPU use with 64 MPI tasks x 1 OpenMP threads

MPI task timing breakdown:
Section |  min time  |  avg time  |  max time  |%varavg| %total
---------------------------------------------------------------
Pair    | 0.016921   | 0.65749    | 4.1519     | 137.1 |  3.97
Bond    | 0.0052958  | 0.78924    | 4.155      | 147.2 |  4.76
Neigh   | 0.031903   | 0.036171   | 0.040638   |   1.1 |  0.22
Comm    | 6.9313     | 12.362     | 15.116     |  80.4 | 74.55
Output  | 0.0075162  | 0.015297   | 0.022869   |   4.0 |  0.09
Modify  | 0.57947    | 2.0879     | 8.8523     | 167.3 | 12.59
Other   |            | 0.6334     |            |       |  3.82

Nlocal:        7.51562 ave          33 max           0 min
Histogram: 41 6 0 1 0 0 3 4 3 6
Nghost:        1824.55 ave        2418 max        1292 min
Histogram: 16 0 0 0 32 0 0 0 0 16
Neighs:              0 ave           0 max           0 min
Histogram: 64 0 0 0 0 0 0 0 0 0

Total # of neighbors = 0
Ave neighs/atom = 0
Ave special neighs/atom = 15.567568
Neighbor list builds = 94
Dangerous builds = 0
unfix           myat1
next            cpt
jump            SELF loop
variable        zdes equal  -15+0.60*(${cpt}-1)
variable        zdes equal  -15+0.60*(6-1)
variable        zave equal xcm(H2,z)
fix             mytth2 H2 spring tether ${k1} 2.5 2.5 ${zdes} 0
fix             mytth2 H2 spring tether 1.7 2.5 2.5 ${zdes} 0
fix             mytth2 H2 spring tether 1.7 2.5 2.5 -12 0
run             10000
Generated 0 of 1 mixed pair_coeff terms from geometric mixing rule
Per MPI rank memory allocation (min/avg/max) = 13.32 | 13.62 | 14.95 Mbytes
   Step          Temp          E_pair         E_mol          TotEng         Press     
    320000   311.2805       384.29434      18557.957      19387.628     -244.16611    
    330000   285.08488      385.98065      18543.524      19337.401     -72.697105    
Loop time of 3.43662 on 64 procs for 10000 steps with 481 atoms

Performance: 12.570 ns/day, 1.909 hours/ns, 2909.832 timesteps/s, 1.400 Matom-step/s
100.0% CPU use with 64 MPI tasks x 1 OpenMP threads

MPI task timing breakdown:
Section |  min time  |  avg time  |  max time  |%varavg| %total
---------------------------------------------------------------
Pair    | 0.0033921  | 0.13065    | 0.84715    |  61.3 |  3.80
Bond    | 0.0010551  | 0.15714    | 0.85811    |  65.7 |  4.57
Neigh   | 0.0055676  | 0.0063194  | 0.0070944  |   0.5 |  0.18
Comm    | 1.3865     | 2.5753     | 3.1458     |  37.1 | 74.94
Output  | 0.0015146  | 0.003062   | 0.0045997  |   1.8 |  0.09
Modify  | 0.11371    | 0.43609    | 1.8898     |  80.4 | 12.69
Other   |            | 0.1281     |            |       |  3.73

Nlocal:        7.51562 ave          36 max           0 min
Histogram: 42 5 1 0 0 2 4 2 6 2
Nghost:        1823.52 ave        2414 max        1292 min
Histogram: 16 0 0 0 32 0 0 0 0 16
Neighs:              0 ave           0 max           0 min
Histogram: 64 0 0 0 0 0 0 0 0 0

Total # of neighbors = 0
Ave neighs/atom = 0
Ave special neighs/atom = 15.567568
Neighbor list builds = 16
Dangerous builds = 0
fix             myat1 all ave/time 1000 10 10000 v_zave v_zdes file simulation_data/abpot/${cpt}.dat
fix             myat1 all ave/time 1000 10 10000 v_zave v_zdes file simulation_data/abpot/6.dat
run             50000
Generated 0 of 1 mixed pair_coeff terms from geometric mixing rule
Per MPI rank memory allocation (min/avg/max) = 13.32 | 13.62 | 14.95 Mbytes
   Step          Temp          E_pair         E_mol          TotEng         Press     
    330000   285.08488      385.98065      18543.524      19337.401     -72.697105    
    340000   280.0663       380.14969      18549.792      19330.658     -291.38722    
    350000   293.97418      388.59961      18521.009      19330.224      150.58948    
    360000   302.2883       381.11282      18541.562      19355.186     -159.22899    
    370000   309.99726      376.81407      18539.043      19359.397     -272.62725    
    380000   300.94125      384.34223      18539.005      19353.931     -100.30252    
Loop time of 16.9543 on 64 procs for 50000 steps with 481 atoms

Performance: 12.740 ns/day, 1.884 hours/ns, 2949.106 timesteps/s, 1.419 Matom-step/s
100.0% CPU use with 64 MPI tasks x 1 OpenMP threads

MPI task timing breakdown:
Section |  min time  |  avg time  |  max time  |%varavg| %total
---------------------------------------------------------------
Pair    | 0.016811   | 0.6545     | 4.282      | 137.3 |  3.86
Bond    | 0.0053126  | 0.78466    | 4.2198     | 146.8 |  4.63
Neigh   | 0.029004   | 0.033018   | 0.037247   |   1.1 |  0.19
Comm    | 6.9292     | 12.686     | 15.508     |  82.1 | 74.83
Output  | 0.0075596  | 0.015231   | 0.022712   |   4.0 |  0.09
Modify  | 0.56535    | 2.1491     | 9.2308     | 175.4 | 12.68
Other   |            | 0.6316     |            |       |  3.73

Nlocal:        7.51562 ave          36 max           0 min
Histogram: 42 6 0 0 0 1 6 1 6 2
Nghost:         1822.2 ave        2412 max        1288 min
Histogram: 16 0 0 0 32 0 0 0 0 16
Neighs:              0 ave           0 max           0 min
Histogram: 64 0 0 0 0 0 0 0 0 0

Total # of neighbors = 0
Ave neighs/atom = 0
Ave special neighs/atom = 15.567568
Neighbor list builds = 86
Dangerous builds = 0
unfix           myat1
next            cpt
jump            SELF loop
variable        zdes equal  -15+0.60*(${cpt}-1)
variable        zdes equal  -15+0.60*(7-1)
variable        zave equal xcm(H2,z)
fix             mytth2 H2 spring tether ${k1} 2.5 2.5 ${zdes} 0
fix             mytth2 H2 spring tether 1.7 2.5 2.5 ${zdes} 0
fix             mytth2 H2 spring tether 1.7 2.5 2.5 -11.4 0
run             10000
Generated 0 of 1 mixed pair_coeff terms from geometric mixing rule
Per MPI rank memory allocation (min/avg/max) = 13.32 | 13.62 | 14.95 Mbytes
   Step          Temp          E_pair         E_mol          TotEng         Press     
    380000   300.94125      384.34223      18539.005      19353.931     -100.30252    
    390000   297.16456      382.31633      18524.766      19332.262     -126.08048    
Loop time of 3.376 on 64 procs for 10000 steps with 481 atoms

Performance: 12.796 ns/day, 1.876 hours/ns, 2962.090 timesteps/s, 1.425 Matom-step/s
100.0% CPU use with 64 MPI tasks x 1 OpenMP threads

MPI task timing breakdown:
Section |  min time  |  avg time  |  max time  |%varavg| %total
---------------------------------------------------------------
Pair    | 0.0033238  | 0.13102    | 0.84467    |  61.1 |  3.88
Bond    | 0.0010709  | 0.15715    | 0.84117    |  65.7 |  4.65
Neigh   | 0.005626   | 0.0063062  | 0.007095   |   0.5 |  0.19
Comm    | 1.403      | 2.5228     | 3.0832     |  36.2 | 74.73
Output  | 0.0014871  | 0.0030012  | 0.004523   |   1.8 |  0.09
Modify  | 0.11777    | 0.42862    | 1.8139     |  76.3 | 12.70
Other   |            | 0.1271     |            |       |  3.76

Nlocal:        7.51562 ave          37 max           0 min
Histogram: 41 7 0 0 0 1 6 5 2 2
Nghost:        1821.73 ave        2419 max        1287 min
Histogram: 16 0 0 0 32 0 0 0 0 16
Neighs:              0 ave           0 max           0 min
Histogram: 64 0 0 0 0 0 0 0 0 0

Total # of neighbors = 0
Ave neighs/atom = 0
Ave special neighs/atom = 15.567568
Neighbor list builds = 16
Dangerous builds = 0
fix             myat1 all ave/time 1000 10 10000 v_zave v_zdes file simulation_data/abpot/${cpt}.dat
fix             myat1 all ave/time 1000 10 10000 v_zave v_zdes file simulation_data/abpot/7.dat
run             50000
Generated 0 of 1 mixed pair_coeff terms from geometric mixing rule
Per MPI rank memory allocation (min/avg/max) = 13.32 | 13.62 | 14.95 Mbytes
   Step          Temp          E_pair         E_mol          TotEng         Press     
    390000   297.16456      382.31633      18524.766      19332.262     -126.08048    
    400000   301.46886      377.70538      18531.142      19340.186     -154.14624    
    410000   294.32946      392.21789      18529.763      19343.104      127.46537    
    420000   312.43755      392.71562      18528.489      19368.237      60.542732    
    430000   294.9815       378.04826      18522.79       19322.894     -362.08139    
    440000   281.35814      385.15561      18522.714      19310.434     -188.3161     
Loop time of 16.7758 on 64 procs for 50000 steps with 481 atoms

Performance: 12.876 ns/day, 1.864 hours/ns, 2980.491 timesteps/s, 1.434 Matom-step/s
100.0% CPU use with 64 MPI tasks x 1 OpenMP threads

MPI task timing breakdown:
Section |  min time  |  avg time  |  max time  |%varavg| %total
---------------------------------------------------------------
Pair    | 0.01655    | 0.65549    | 4.2035     | 137.4 |  3.91
Bond    | 0.0052757  | 0.78693    | 4.1213     | 146.9 |  4.69
Neigh   | 0.024503   | 0.027795   | 0.031283   |   1.0 |  0.17
Comm    | 6.9459     | 12.563     | 15.341     |  80.9 | 74.89
Output  | 0.0075265  | 0.015192   | 0.022636   |   4.0 |  0.09
Modify  | 0.56742    | 2.0958     | 9.0407     | 171.5 | 12.49
Other   |            | 0.6315     |            |       |  3.76

Nlocal:        7.51562 ave          38 max           0 min
Histogram: 43 4 1 0 2 0 5 4 2 3
Nghost:        1819.86 ave        2410 max        1286 min
Histogram: 16 0 0 0 32 0 0 0 0 16
Neighs:              0 ave           0 max           0 min
Histogram: 64 0 0 0 0 0 0 0 0 0

Total # of neighbors = 0
Ave neighs/atom = 0
Ave special neighs/atom = 15.567568
Neighbor list builds = 71
Dangerous builds = 0
unfix           myat1
next            cpt
jump            SELF loop
variable        zdes equal  -15+0.60*(${cpt}-1)
variable        zdes equal  -15+0.60*(8-1)
variable        zave equal xcm(H2,z)
fix             mytth2 H2 spring tether ${k1} 2.5 2.5 ${zdes} 0
fix             mytth2 H2 spring tether 1.7 2.5 2.5 ${zdes} 0
fix             mytth2 H2 spring tether 1.7 2.5 2.5 -10.8 0
run             10000
Generated 0 of 1 mixed pair_coeff terms from geometric mixing rule
Per MPI rank memory allocation (min/avg/max) = 13.32 | 13.62 | 14.95 Mbytes
   Step          Temp          E_pair         E_mol          TotEng         Press     
    440000   281.35814      385.15561      18522.714      19310.434     -188.3161     
    450000   284.65778      397.18297      18521.123      19325.591      82.449725    
Loop time of 3.41364 on 64 procs for 10000 steps with 481 atoms

Performance: 12.655 ns/day, 1.896 hours/ns, 2929.425 timesteps/s, 1.409 Matom-step/s
100.0% CPU use with 64 MPI tasks x 1 OpenMP threads

MPI task timing breakdown:
Section |  min time  |  avg time  |  max time  |%varavg| %total
---------------------------------------------------------------
Pair    | 0.003341   | 0.13125    | 0.86492    |  61.8 |  3.84
Bond    | 0.0010542  | 0.15765    | 0.87151    |  66.3 |  4.62
Neigh   | 0.0045463  | 0.0052145  | 0.0059322  |   0.5 |  0.15
Comm    | 1.3846     | 2.5517     | 3.1281     |  36.8 | 74.75
Output  | 0.0014915  | 0.0030114  | 0.0045346  |   1.8 |  0.09
Modify  | 0.11246    | 0.43875    | 1.8719     |  78.0 | 12.85
Other   |            | 0.1261     |            |       |  3.69

Nlocal:        7.51562 ave          38 max           0 min
Histogram: 42 5 1 0 1 3 2 5 4 1
Nghost:        1820.98 ave        2416 max        1286 min
Histogram: 16 0 0 0 32 0 0 0 0 16
Neighs:              0 ave           0 max           0 min
Histogram: 64 0 0 0 0 0 0 0 0 0

Total # of neighbors = 0
Ave neighs/atom = 0
Ave special neighs/atom = 15.567568
Neighbor list builds = 14
Dangerous builds = 0
fix             myat1 all ave/time 1000 10 10000 v_zave v_zdes file simulation_data/abpot/${cpt}.dat
fix             myat1 all ave/time 1000 10 10000 v_zave v_zdes file simulation_data/abpot/8.dat
run             50000
Generated 0 of 1 mixed pair_coeff terms from geometric mixing rule
Per MPI rank memory allocation (min/avg/max) = 13.32 | 13.62 | 14.95 Mbytes
   Step          Temp          E_pair         E_mol          TotEng         Press     
    450000   284.65778      397.18297      18521.123      19325.591      82.449725    
    460000   298.7879       384.53917      18544.335      19356.376     -45.227981    
    470000   321.42228      386.93299      18522.601      19369.422     -48.279082    
    480000   321.19126      386.13936      18532.997      19378.693     -71.940858    
    490000   306.70182      387.05882      18539.712      19365.596     -233.7337     
    500000   289.10928      396.595        18519.99       19330.239      21.074494    
Loop time of 17.2758 on 64 procs for 50000 steps with 481 atoms

Performance: 12.503 ns/day, 1.920 hours/ns, 2894.214 timesteps/s, 1.392 Matom-step/s
100.0% CPU use with 64 MPI tasks x 1 OpenMP threads

MPI task timing breakdown:
Section |  min time  |  avg time  |  max time  |%varavg| %total
---------------------------------------------------------------
Pair    | 0.017002   | 0.65794    | 4.4269     | 138.5 |  3.81
Bond    | 0.0052938  | 0.78733    | 4.4478     | 148.1 |  4.56
Neigh   | 0.028971   | 0.03297    | 0.037209   |   1.1 |  0.19
Comm    | 7.0324     | 12.961     | 15.827     |  83.1 | 75.02
Output  | 0.0077963  | 0.015485   | 0.022963   |   3.9 |  0.09
Modify  | 0.57038    | 2.1916     | 9.4111     | 178.4 | 12.69
Other   |            | 0.6299     |            |       |  3.65

Nlocal:        7.51562 ave          37 max           0 min
Histogram: 43 4 1 0 1 2 2 5 4 2
Nghost:        1821.64 ave        2414 max        1287 min
Histogram: 16 0 0 0 32 0 0 0 0 16
Neighs:              0 ave           0 max           0 min
Histogram: 64 0 0 0 0 0 0 0 0 0

Total # of neighbors = 0
Ave neighs/atom = 0
Ave special neighs/atom = 15.567568
Neighbor list builds = 85
Dangerous builds = 0
unfix           myat1
next            cpt
jump            SELF loop
variable        zdes equal  -15+0.60*(${cpt}-1)
variable        zdes equal  -15+0.60*(9-1)
variable        zave equal xcm(H2,z)
fix             mytth2 H2 spring tether ${k1} 2.5 2.5 ${zdes} 0
fix             mytth2 H2 spring tether 1.7 2.5 2.5 ${zdes} 0
fix             mytth2 H2 spring tether 1.7 2.5 2.5 -10.2 0
run             10000
Generated 0 of 1 mixed pair_coeff terms from geometric mixing rule
Per MPI rank memory allocation (min/avg/max) = 13.32 | 13.62 | 14.95 Mbytes
   Step          Temp          E_pair         E_mol          TotEng         Press     
    500000   289.10928      396.595        18519.99       19330.239      21.074494    
    510000   302.46455      388.32074      18522.261      19343.345     -215.22684    
Loop time of 3.53996 on 64 procs for 10000 steps with 481 atoms

Performance: 12.204 ns/day, 1.967 hours/ns, 2824.888 timesteps/s, 1.359 Matom-step/s
100.0% CPU use with 64 MPI tasks x 1 OpenMP threads

MPI task timing breakdown:
Section |  min time  |  avg time  |  max time  |%varavg| %total
---------------------------------------------------------------
Pair    | 0.0033167  | 0.13308    | 0.95745    |  62.3 |  3.76
Bond    | 0.0010528  | 0.15846    | 0.89523    |  66.2 |  4.48
Neigh   | 0.0092373  | 0.010517   | 0.011979   |   0.6 |  0.30
Comm    | 1.3993     | 2.6559     | 3.2436     |  38.0 | 75.03
Output  | 0.0015227  | 0.0030876  | 0.0046464  |   1.8 |  0.09
Modify  | 0.1144     | 0.45248    | 1.9781     |  83.0 | 12.78
Other   |            | 0.1264     |            |       |  3.57

Nlocal:        7.51562 ave          35 max           0 min
Histogram: 43 2 3 0 0 1 2 4 8 1
Nghost:        1819.48 ave        2406 max        1289 min
Histogram: 16 0 0 0 32 0 0 0 0 16
Neighs:              0 ave           0 max           0 min
Histogram: 64 0 0 0 0 0 0 0 0 0

Total # of neighbors = 0
Ave neighs/atom = 0
Ave special neighs/atom = 15.567568
Neighbor list builds = 28
Dangerous builds = 0
fix             myat1 all ave/time 1000 10 10000 v_zave v_zdes file simulation_data/abpot/${cpt}.dat
fix             myat1 all ave/time 1000 10 10000 v_zave v_zdes file simulation_data/abpot/9.dat
run             50000
Generated 0 of 1 mixed pair_coeff terms from geometric mixing rule
Per MPI rank memory allocation (min/avg/max) = 13.32 | 13.62 | 14.95 Mbytes
   Step          Temp          E_pair         E_mol          TotEng         Press     
    510000   302.46455      388.32074      18522.261      19343.345     -215.22684    
    520000   305.95312      389.2071       18525.932      19352.894      73.745213    
    530000   286.6395       384.96202      18533.442      19328.525     -117.67411    
    540000   267.16488      391.89703      18537.925      19312.078     -4.9681167    
    550000   296.54557      379.84047      18541.191      19345.325     -239.16087    
    560000   305.16821      383.56059      18539.37       19359.562     -235.33572    
Loop time of 17.4589 on 64 procs for 50000 steps with 481 atoms

Performance: 12.372 ns/day, 1.940 hours/ns, 2863.867 timesteps/s, 1.378 Matom-step/s
100.0% CPU use with 64 MPI tasks x 1 OpenMP threads

MPI task timing breakdown:
Section |  min time  |  avg time  |  max time  |%varavg| %total
---------------------------------------------------------------
Pair    | 0.016706   | 0.65733    | 4.5465     | 138.5 |  3.77
Bond    | 0.0052752  | 0.78758    | 4.59       | 148.3 |  4.51
Neigh   | 0.02449    | 0.027974   | 0.031656   |   1.0 |  0.16
Comm    | 6.9715     | 13.088     | 16.019     |  84.3 | 74.96
Output  | 0.0077877  | 0.015488   | 0.02297    |   3.9 |  0.09
Modify  | 0.5611     | 2.255      | 9.697      | 182.7 | 12.92
Other   |            | 0.6277     |            |       |  3.60

Nlocal:        7.51562 ave          35 max           0 min
Histogram: 43 2 3 0 0 1 2 6 6 1
Nghost:        1819.48 ave        2412 max        1289 min
Histogram: 16 0 0 0 32 0 0 0 0 16
Neighs:              0 ave           0 max           0 min
Histogram: 64 0 0 0 0 0 0 0 0 0

Total # of neighbors = 0
Ave neighs/atom = 0
Ave special neighs/atom = 15.567568
Neighbor list builds = 75
Dangerous builds = 0
unfix           myat1
next            cpt
jump            SELF loop
variable        zdes equal  -15+0.60*(${cpt}-1)
variable        zdes equal  -15+0.60*(10-1)
variable        zave equal xcm(H2,z)
fix             mytth2 H2 spring tether ${k1} 2.5 2.5 ${zdes} 0
fix             mytth2 H2 spring tether 1.7 2.5 2.5 ${zdes} 0
fix             mytth2 H2 spring tether 1.7 2.5 2.5 -9.6 0
run             10000
Generated 0 of 1 mixed pair_coeff terms from geometric mixing rule
Per MPI rank memory allocation (min/avg/max) = 13.32 | 13.62 | 14.95 Mbytes
   Step          Temp          E_pair         E_mol          TotEng         Press     
    560000   305.16821      383.56059      18539.37       19359.562     -235.33572    
    570000   311.56523      397.70115      18537.776      19381.261      21.305058    
Loop time of 3.56767 on 64 procs for 10000 steps with 481 atoms

Performance: 12.109 ns/day, 1.982 hours/ns, 2802.948 timesteps/s, 1.348 Matom-step/s
100.0% CPU use with 64 MPI tasks x 1 OpenMP threads

MPI task timing breakdown:
Section |  min time  |  avg time  |  max time  |%varavg| %total
---------------------------------------------------------------
Pair    | 0.003316   | 0.13247    | 0.97786    |  62.7 |  3.71
Bond    | 0.0010529  | 0.15785    | 0.92718    |  66.6 |  4.42
Neigh   | 0.0056478  | 0.006458   | 0.0072848  |   0.5 |  0.18
Comm    | 1.3925     | 2.6732     | 3.2785     |  38.6 | 74.93
Output  | 0.0015437  | 0.0030807  | 0.0046227  |   1.8 |  0.09
Modify  | 0.11141    | 0.46895    | 2.0169     |  84.6 | 13.14
Other   |            | 0.1256     |            |       |  3.52

Nlocal:        7.51562 ave          36 max           0 min
Histogram: 43 5 0 0 0 2 3 5 4 2
Nghost:        1820.05 ave        2406 max        1288 min
Histogram: 16 0 0 0 32 0 0 0 0 16
Neighs:              0 ave           0 max           0 min
Histogram: 64 0 0 0 0 0 0 0 0 0

Total # of neighbors = 0
Ave neighs/atom = 0
Ave special neighs/atom = 15.567568
Neighbor list builds = 17
Dangerous builds = 0
fix             myat1 all ave/time 1000 10 10000 v_zave v_zdes file simulation_data/abpot/${cpt}.dat
fix             myat1 all ave/time 1000 10 10000 v_zave v_zdes file simulation_data/abpot/10.dat
run             50000
Generated 0 of 1 mixed pair_coeff terms from geometric mixing rule
Per MPI rank memory allocation (min/avg/max) = 13.32 | 13.62 | 14.95 Mbytes
   Step          Temp          E_pair         E_mol          TotEng         Press     
    570000   311.56523      397.70115      18537.776      19381.261      21.305058    
    580000   287.3971       396.96738      18554.944      19363.116     -79.973941    
    590000   289.07836      399.06928      18532.735      19345.415      95.024121    
    600000   299.25836      395.5518       18495.391      19319.118      76.635055    
    610000   280.08316      397.42608      18506.098      19304.264      22.100943    
    620000   294.91948      395.40799      18543.794      19361.169     -15.56727     
Loop time of 17.5082 on 64 procs for 50000 steps with 481 atoms

Performance: 12.337 ns/day, 1.945 hours/ns, 2855.804 timesteps/s, 1.374 Matom-step/s
100.0% CPU use with 64 MPI tasks x 1 OpenMP threads

MPI task timing breakdown:
Section |  min time  |  avg time  |  max time  |%varavg| %total
---------------------------------------------------------------
Pair    | 0.016637   | 0.66434    | 4.8201     | 140.2 |  3.79
Bond    | 0.0053318  | 0.78927    | 4.3578     | 148.3 |  4.51
Neigh   | 0.029501   | 0.033848   | 0.038178   |   1.1 |  0.19
Comm    | 6.9471     | 13.103     | 16.052     |  85.1 | 74.84
Output  | 0.0076512  | 0.015328   | 0.022815   |   3.9 |  0.09
Modify  | 0.56844    | 2.2702     | 9.7651     | 183.9 | 12.97
Other   |            | 0.6327     |            |       |  3.61

Nlocal:        7.51562 ave          36 max           0 min
Histogram: 42 5 1 0 0 2 2 6 3 3
Nghost:         1819.3 ave        2405 max        1288 min
Histogram: 16 0 0 0 32 0 0 0 0 16
Neighs:              0 ave           0 max           0 min
Histogram: 64 0 0 0 0 0 0 0 0 0

Total # of neighbors = 0
Ave neighs/atom = 0
Ave special neighs/atom = 15.567568
Neighbor list builds = 89
Dangerous builds = 0
unfix           myat1
next            cpt
jump            SELF loop
variable        zdes equal  -15+0.60*(${cpt}-1)
variable        zdes equal  -15+0.60*(11-1)
variable        zave equal xcm(H2,z)
fix             mytth2 H2 spring tether ${k1} 2.5 2.5 ${zdes} 0
fix             mytth2 H2 spring tether 1.7 2.5 2.5 ${zdes} 0
fix             mytth2 H2 spring tether 1.7 2.5 2.5 -9 0
run             10000
Generated 0 of 1 mixed pair_coeff terms from geometric mixing rule
Per MPI rank memory allocation (min/avg/max) = 13.32 | 13.62 | 14.95 Mbytes
   Step          Temp          E_pair         E_mol          TotEng         Press     
    620000   294.91948      395.40799      18543.794      19361.169     -15.56727     
    630000   315.22157      399.32782      18525.565      19375.908      96.848945    
Loop time of 3.51002 on 64 procs for 10000 steps with 481 atoms

Performance: 12.308 ns/day, 1.950 hours/ns, 2848.987 timesteps/s, 1.370 Matom-step/s
100.0% CPU use with 64 MPI tasks x 1 OpenMP threads

MPI task timing breakdown:
Section |  min time  |  avg time  |  max time  |%varavg| %total
---------------------------------------------------------------
Pair    | 0.003348   | 0.13393    | 1.0122     |  63.3 |  3.82
Bond    | 0.0010629  | 0.15774    | 0.84352    |  66.1 |  4.49
Neigh   | 0.0050363  | 0.0056949  | 0.0064345  |   0.5 |  0.16
Comm    | 1.3879     | 2.6288     | 3.2238     |  38.4 | 74.90
Output  | 0.0014838  | 0.0030094  | 0.0045344  |   1.8 |  0.09
Modify  | 0.11254    | 0.45518    | 1.9609     |  83.5 | 12.97
Other   |            | 0.1256     |            |       |  3.58

Nlocal:        7.51562 ave          35 max           0 min
Histogram: 42 4 2 0 0 1 1 7 6 1
Nghost:        1821.83 ave        2413 max        1289 min
Histogram: 16 0 0 0 32 0 0 0 0 16
Neighs:              0 ave           0 max           0 min
Histogram: 64 0 0 0 0 0 0 0 0 0

Total # of neighbors = 0
Ave neighs/atom = 0
Ave special neighs/atom = 15.567568
Neighbor list builds = 15
Dangerous builds = 0
fix             myat1 all ave/time 1000 10 10000 v_zave v_zdes file simulation_data/abpot/${cpt}.dat
fix             myat1 all ave/time 1000 10 10000 v_zave v_zdes file simulation_data/abpot/11.dat
run             50000
Generated 0 of 1 mixed pair_coeff terms from geometric mixing rule
Per MPI rank memory allocation (min/avg/max) = 13.32 | 13.62 | 14.95 Mbytes
   Step          Temp          E_pair         E_mol          TotEng         Press     
    630000   315.22157      399.32782      18525.565      19375.908      96.848945    
    640000   294.95402      398.79334      18517.477      19338.288      140.78431    
    650000   298.00403      389.5367       18513.421      19329.339     -195.3975     
    660000   306.73679      389.33664      18528.111      19356.323     -68.920944    
    670000   291.37738      393.9556       18536.37       19347.225     -127.01161    
    680000   301.99742      397.15386      18529.247      19358.496      38.024746    
Loop time of 17.6645 on 64 procs for 50000 steps with 481 atoms

Performance: 12.228 ns/day, 1.963 hours/ns, 2830.540 timesteps/s, 1.361 Matom-step/s
100.0% CPU use with 64 MPI tasks x 1 OpenMP threads

MPI task timing breakdown:
Section |  min time  |  avg time  |  max time  |%varavg| %total
---------------------------------------------------------------
Pair    | 0.016902   | 0.66729    | 5.0687     | 141.1 |  3.78
Bond    | 0.0052739  | 0.78621    | 4.2541     | 146.5 |  4.45
Neigh   | 0.026659   | 0.030179   | 0.034031   |   1.0 |  0.17
Comm    | 6.941      | 13.234     | 16.222     |  85.3 | 74.92
Output  | 0.0076551  | 0.015358   | 0.022817   |   3.9 |  0.09
Modify  | 0.57152    | 2.301      | 9.9339     | 185.9 | 13.03
Other   |            | 0.6301     |            |       |  3.57

Nlocal:        7.51562 ave          37 max           0 min
Histogram: 42 4 2 0 0 4 3 3 4 2
Nghost:        1824.55 ave        2416 max        1287 min
Histogram: 16 0 0 0 32 0 0 0 0 16
Neighs:              0 ave           0 max           0 min
Histogram: 64 0 0 0 0 0 0 0 0 0

Total # of neighbors = 0
Ave neighs/atom = 0
Ave special neighs/atom = 15.567568
Neighbor list builds = 79
Dangerous builds = 0
unfix           myat1
next            cpt
jump            SELF loop
variable        zdes equal  -15+0.60*(${cpt}-1)
variable        zdes equal  -15+0.60*(12-1)
variable        zave equal xcm(H2,z)
fix             mytth2 H2 spring tether ${k1} 2.5 2.5 ${zdes} 0
fix             mytth2 H2 spring tether 1.7 2.5 2.5 ${zdes} 0
fix             mytth2 H2 spring tether 1.7 2.5 2.5 -8.4 0
run             10000
Generated 0 of 1 mixed pair_coeff terms from geometric mixing rule
Per MPI rank memory allocation (min/avg/max) = 13.32 | 13.62 | 14.95 Mbytes
   Step          Temp          E_pair         E_mol          TotEng         Press     
    680000   301.99742      397.15386      18529.247      19358.496      38.024746    
    690000   294.72228      393.35233      18546.793      19361.831     -67.724333    
Loop time of 3.5054 on 64 procs for 10000 steps with 481 atoms

Performance: 12.324 ns/day, 1.947 hours/ns, 2852.738 timesteps/s, 1.372 Matom-step/s
100.0% CPU use with 64 MPI tasks x 1 OpenMP threads

MPI task timing breakdown:
Section |  min time  |  avg time  |  max time  |%varavg| %total
---------------------------------------------------------------
Pair    | 0.0034186  | 0.13411    | 1.0121     |  63.4 |  3.83
Bond    | 0.0010518  | 0.15774    | 0.8297     |  65.6 |  4.50
Neigh   | 0.0056265  | 0.0063159  | 0.0071019  |   0.4 |  0.18
Comm    | 1.3723     | 2.6228     | 3.2156     |  38.5 | 74.82
Output  | 0.0014912  | 0.003027   | 0.0045645  |   1.8 |  0.09
Modify  | 0.11254    | 0.45488    | 1.9744     |  83.9 | 12.98
Other   |            | 0.1265     |            |       |  3.61

Nlocal:        7.51562 ave          40 max           0 min
Histogram: 40 8 0 0 2 2 4 5 2 1
Nghost:        1825.39 ave        2420 max        1284 min
Histogram: 16 0 0 0 32 0 0 0 0 16
Neighs:              0 ave           0 max           0 min
Histogram: 64 0 0 0 0 0 0 0 0 0

Total # of neighbors = 0
Ave neighs/atom = 0
Ave special neighs/atom = 15.567568
Neighbor list builds = 16
Dangerous builds = 0
fix             myat1 all ave/time 1000 10 10000 v_zave v_zdes file simulation_data/abpot/${cpt}.dat
fix             myat1 all ave/time 1000 10 10000 v_zave v_zdes file simulation_data/abpot/12.dat
run             50000
Generated 0 of 1 mixed pair_coeff terms from geometric mixing rule
Per MPI rank memory allocation (min/avg/max) = 13.32 | 13.62 | 14.95 Mbytes
   Step          Temp          E_pair         E_mol          TotEng         Press     
    690000   294.72228      393.35233      18546.793      19361.831     -67.724333    
    700000   296.52165      382.18829      18507.664      19314.112     -367.46346    
    710000   278.1347       396.48427      18515.65       19310.087      35.170157    
    720000   299.78655      395.25166      18541.249      19365.431      19.756768    
    730000   299.68875      385.58606      18526.947      19341.324     -297.18401    
    740000   290.87001      386.50684      18516.547      19319.227     -256.54769    
Loop time of 17.8324 on 64 procs for 50000 steps with 481 atoms

Performance: 12.113 ns/day, 1.981 hours/ns, 2803.878 timesteps/s, 1.349 Matom-step/s
100.0% CPU use with 64 MPI tasks x 1 OpenMP threads

MPI task timing breakdown:
Section |  min time  |  avg time  |  max time  |%varavg| %total
---------------------------------------------------------------
Pair    | 0.016693   | 0.66922    | 5.1547     | 142.2 |  3.75
Bond    | 0.0052703  | 0.78734    | 4.3854     | 147.6 |  4.42
Neigh   | 0.028245   | 0.032179   | 0.036216   |   1.0 |  0.18
Comm    | 6.8961     | 13.377     | 16.391     |  87.0 | 75.02
Output  | 0.0077135  | 0.015421   | 0.022923   |   4.0 |  0.09
Modify  | 0.56407    | 2.3205     | 10.143     | 190.9 | 13.01
Other   |            | 0.6305     |            |       |  3.54

Nlocal:        7.51562 ave          34 max           0 min
Histogram: 42 5 1 0 0 0 2 7 4 3
Nghost:        1816.77 ave        2402 max        1290 min
Histogram: 16 0 0 0 32 0 0 0 0 16
Neighs:              0 ave           0 max           0 min
Histogram: 64 0 0 0 0 0 0 0 0 0

Total # of neighbors = 0
Ave neighs/atom = 0
Ave special neighs/atom = 15.567568
Neighbor list builds = 84
Dangerous builds = 0
unfix           myat1
next            cpt
jump            SELF loop
variable        zdes equal  -15+0.60*(${cpt}-1)
variable        zdes equal  -15+0.60*(13-1)
variable        zave equal xcm(H2,z)
fix             mytth2 H2 spring tether ${k1} 2.5 2.5 ${zdes} 0
fix             mytth2 H2 spring tether 1.7 2.5 2.5 ${zdes} 0
fix             mytth2 H2 spring tether 1.7 2.5 2.5 -7.8 0
run             10000
Generated 0 of 1 mixed pair_coeff terms from geometric mixing rule
Per MPI rank memory allocation (min/avg/max) = 13.32 | 13.62 | 14.95 Mbytes
   Step          Temp          E_pair         E_mol          TotEng         Press     
    740000   290.87001      386.50684      18516.547      19319.227     -256.54769    
    750000   288.97311      401.29211      18510.496      19325.248      197.7831     
Loop time of 3.63381 on 64 procs for 10000 steps with 481 atoms

Performance: 11.888 ns/day, 2.019 hours/ns, 2751.931 timesteps/s, 1.324 Matom-step/s
100.0% CPU use with 64 MPI tasks x 1 OpenMP threads

MPI task timing breakdown:
Section |  min time  |  avg time  |  max time  |%varavg| %total
---------------------------------------------------------------
Pair    | 0.0033436  | 0.13335    | 1.05       |  63.5 |  3.67
Bond    | 0.0010507  | 0.15732    | 0.93089    |  66.2 |  4.33
Neigh   | 0.0068157  | 0.0077981  | 0.0087582  |   0.5 |  0.21
Comm    | 1.3784     | 2.7357     | 3.3471     |  39.6 | 75.28
Output  | 0.001564   | 0.0030761  | 0.0046046  |   1.7 |  0.08
Modify  | 0.11173    | 0.47138    | 2.0965     |  88.3 | 12.97
Other   |            | 0.1252     |            |       |  3.45

Nlocal:        7.51562 ave          34 max           0 min
Histogram: 41 6 1 0 0 0 3 7 2 4
Nghost:         1822.3 ave        2411 max        1290 min
Histogram: 16 0 0 0 32 0 0 0 0 16
Neighs:              0 ave           0 max           0 min
Histogram: 64 0 0 0 0 0 0 0 0 0

Total # of neighbors = 0
Ave neighs/atom = 0
Ave special neighs/atom = 15.567568
Neighbor list builds = 21
Dangerous builds = 0
fix             myat1 all ave/time 1000 10 10000 v_zave v_zdes file simulation_data/abpot/${cpt}.dat
fix             myat1 all ave/time 1000 10 10000 v_zave v_zdes file simulation_data/abpot/13.dat
run             50000
Generated 0 of 1 mixed pair_coeff terms from geometric mixing rule
Per MPI rank memory allocation (min/avg/max) = 13.32 | 13.62 | 14.95 Mbytes
   Step          Temp          E_pair         E_mol          TotEng         Press     
    750000   288.97311      401.29211      18510.496      19325.248      197.7831     
    760000   300.83963      397.0281       18524.656      19352.122      19.858097    
    770000   297.04843      386.58859      18543.435      19355.037     -203.84021    
    780000   280.56816      392.02045      18550.724      19344.178     -198.24816    
    790000   286.61828      401.86868      18507.795      19319.754      246.85379    
    800000   290.77652      385.19967      18536.774      19338.014     -346.89834    
Loop time of 17.6864 on 64 procs for 50000 steps with 481 atoms

Performance: 12.213 ns/day, 1.965 hours/ns, 2827.034 timesteps/s, 1.360 Matom-step/s
100.0% CPU use with 64 MPI tasks x 1 OpenMP threads

MPI task timing breakdown:
Section |  min time  |  avg time  |  max time  |%varavg| %total
---------------------------------------------------------------
Pair    | 0.016729   | 0.67419    | 5.1451     | 140.9 |  3.81
Bond    | 0.0053384  | 0.79116    | 4.2217     | 146.6 |  4.47
Neigh   | 0.037653   | 0.041834   | 0.04725    |   1.2 |  0.24
Comm    | 6.9532     | 13.262     | 16.241     |  85.0 | 74.98
Output  | 0.0075698  | 0.014577   | 0.021384   |   3.7 |  0.08
Modify  | 0.5678     | 2.2765     | 9.9672     | 186.3 | 12.87
Other   |            | 0.6263     |            |       |  3.54

Nlocal:        7.51562 ave          38 max           0 min
Histogram: 42 5 1 0 1 2 5 4 2 2
Nghost:        1819.95 ave        2408 max        1286 min
Histogram: 16 0 0 0 32 0 0 0 0 16
Neighs:              0 ave           0 max           0 min
Histogram: 64 0 0 0 0 0 0 0 0 0

Total # of neighbors = 0
Ave neighs/atom = 0
Ave special neighs/atom = 15.567568
Neighbor list builds = 109
Dangerous builds = 0
unfix           myat1
next            cpt
jump            SELF loop
variable        zdes equal  -15+0.60*(${cpt}-1)
variable        zdes equal  -15+0.60*(14-1)
variable        zave equal xcm(H2,z)
fix             mytth2 H2 spring tether ${k1} 2.5 2.5 ${zdes} 0
fix             mytth2 H2 spring tether 1.7 2.5 2.5 ${zdes} 0
fix             mytth2 H2 spring tether 1.7 2.5 2.5 -7.2 0
run             10000
Generated 0 of 1 mixed pair_coeff terms from geometric mixing rule
Per MPI rank memory allocation (min/avg/max) = 13.32 | 13.62 | 14.95 Mbytes
   Step          Temp          E_pair         E_mol          TotEng         Press     
    800000   290.77652      385.19967      18536.774      19338.014     -346.89834    
    810000   308.01051      391.50602      18534.617      19366.821     -16.409301    
Loop time of 3.54243 on 64 procs for 10000 steps with 481 atoms

Performance: 12.195 ns/day, 1.968 hours/ns, 2822.922 timesteps/s, 1.358 Matom-step/s
100.0% CPU use with 64 MPI tasks x 1 OpenMP threads

MPI task timing breakdown:
Section |  min time  |  avg time  |  max time  |%varavg| %total
---------------------------------------------------------------
Pair    | 0.0031634  | 0.13537    | 1.0418     |  63.6 |  3.82
Bond    | 0.0010789  | 0.1583     | 0.84377    |  65.6 |  4.47
Neigh   | 0.006819   | 0.0078092  | 0.0088103  |   0.6 |  0.22
Comm    | 1.3762     | 2.6597     | 3.261      |  38.3 | 75.08
Output  | 0.001506   | 0.0028391  | 0.0041661  |   1.6 |  0.08
Modify  | 0.1119     | 0.45754    | 2.0265     |  84.0 | 12.92
Other   |            | 0.1208     |            |       |  3.41

Nlocal:        7.51562 ave          35 max           0 min
Histogram: 41 6 1 0 0 1 4 3 5 3
Nghost:        1824.55 ave        2417 max        1289 min
Histogram: 16 0 0 0 32 0 0 0 0 16
Neighs:              0 ave           0 max           0 min
Histogram: 64 0 0 0 0 0 0 0 0 0

Total # of neighbors = 0
Ave neighs/atom = 0
Ave special neighs/atom = 15.567568
Neighbor list builds = 19
Dangerous builds = 0
fix             myat1 all ave/time 1000 10 10000 v_zave v_zdes file simulation_data/abpot/${cpt}.dat
fix             myat1 all ave/time 1000 10 10000 v_zave v_zdes file simulation_data/abpot/14.dat
run             50000
Generated 0 of 1 mixed pair_coeff terms from geometric mixing rule
Per MPI rank memory allocation (min/avg/max) = 13.32 | 13.62 | 14.95 Mbytes
   Step          Temp          E_pair         E_mol          TotEng         Press     
    810000   308.01051      391.50602      18534.617      19366.821     -16.409301    
    820000   302.3443       394.68773      18541.644      19368.923     -34.143843    
    830000   289.60149      381.66687      18501.708      19297.733     -311.64354    
    840000   302.65089      402.63457      18506.86       19342.524      269.35082    
    850000   299.15835      394.98345      18531.901      19354.917      45.25405     
    860000   311.14683      391.28676      18531.646      19368.118     -105.39982    
Loop time of 17.7513 on 64 procs for 50000 steps with 481 atoms

Performance: 12.168 ns/day, 1.972 hours/ns, 2816.690 timesteps/s, 1.355 Matom-step/s
100.0% CPU use with 64 MPI tasks x 1 OpenMP threads

MPI task timing breakdown:
Section |  min time  |  avg time  |  max time  |%varavg| %total
---------------------------------------------------------------
Pair    | 0.016713   | 0.67777    | 5.1751     | 141.6 |  3.82
Bond    | 0.0053976  | 0.79227    | 4.2904     | 147.1 |  4.46
Neigh   | 0.031565   | 0.036278   | 0.041193   |   1.2 |  0.20
Comm    | 6.8699     | 13.341     | 16.336     |  85.4 | 75.15
Output  | 0.0075914  | 0.014366   | 0.02093    |   3.6 |  0.08
Modify  | 0.56261    | 2.2853     | 10.185     | 187.4 | 12.87
Other   |            | 0.6046     |            |       |  3.41

Nlocal:        7.51562 ave          33 max           0 min
Histogram: 43 2 3 0 0 1 0 6 4 5
Nghost:        1818.64 ave        2408 max        1291 min
Histogram: 16 0 0 0 32 0 0 0 0 16
Neighs:              0 ave           0 max           0 min
Histogram: 64 0 0 0 0 0 0 0 0 0

Total # of neighbors = 0
Ave neighs/atom = 0
Ave special neighs/atom = 15.567568
Neighbor list builds = 94
Dangerous builds = 0
unfix           myat1
next            cpt
jump            SELF loop
variable        zdes equal  -15+0.60*(${cpt}-1)
variable        zdes equal  -15+0.60*(15-1)
variable        zave equal xcm(H2,z)
fix             mytth2 H2 spring tether ${k1} 2.5 2.5 ${zdes} 0
fix             mytth2 H2 spring tether 1.7 2.5 2.5 ${zdes} 0
fix             mytth2 H2 spring tether 1.7 2.5 2.5 -6.6 0
run             10000
Generated 0 of 1 mixed pair_coeff terms from geometric mixing rule
Per MPI rank memory allocation (min/avg/max) = 13.32 | 13.62 | 14.95 Mbytes
   Step          Temp          E_pair         E_mol          TotEng         Press     
    860000   311.14683      391.28676      18531.646      19368.118     -105.39982    
    870000   326.05833      397.67286      18538.402      19402.595      76.54566     
Loop time of 3.50044 on 64 procs for 10000 steps with 481 atoms

Performance: 12.341 ns/day, 1.945 hours/ns, 2856.786 timesteps/s, 1.374 Matom-step/s
100.0% CPU use with 64 MPI tasks x 1 OpenMP threads

MPI task timing breakdown:
Section |  min time  |  avg time  |  max time  |%varavg| %total
---------------------------------------------------------------
Pair    | 0.0031722  | 0.13579    | 1.0212     |  63.4 |  3.88
Bond    | 0.0010757  | 0.15838    | 0.84922    |  65.5 |  4.52
Neigh   | 0.0057111  | 0.0065175  | 0.007379   |   0.5 |  0.19
Comm    | 1.3803     | 2.6364     | 3.2184     |  37.3 | 75.32
Output  | 0.0014955  | 0.0028486  | 0.0042051  |   1.6 |  0.08
Modify  | 0.11188    | 0.43944    | 1.9816     |  81.0 | 12.55
Other   |            | 0.121      |            |       |  3.46

Nlocal:        7.51562 ave          35 max           0 min
Histogram: 41 6 1 0 1 1 1 4 6 3
Nghost:        1820.23 ave        2408 max        1289 min
Histogram: 16 0 0 0 32 0 0 0 0 16
Neighs:              0 ave           0 max           0 min
Histogram: 64 0 0 0 0 0 0 0 0 0

Total # of neighbors = 0
Ave neighs/atom = 0
Ave special neighs/atom = 15.567568
Neighbor list builds = 16
Dangerous builds = 0
fix             myat1 all ave/time 1000 10 10000 v_zave v_zdes file simulation_data/abpot/${cpt}.dat
fix             myat1 all ave/time 1000 10 10000 v_zave v_zdes file simulation_data/abpot/15.dat
run             50000
Generated 0 of 1 mixed pair_coeff terms from geometric mixing rule
Per MPI rank memory allocation (min/avg/max) = 13.32 | 13.62 | 14.95 Mbytes
   Step          Temp          E_pair         E_mol          TotEng         Press     
    870000   326.05833      397.67286      18538.402      19402.595      76.54566     
    880000   282.65381      401.91801      18521.025      19327.361      260.88673    
    890000   301.4918       390.52856      18507.118      19329.018     -7.1435722    
    900000   283.51629      388.21466      18518.917      19312.783     -210.71481    
    910000   305.62376      398.61603      18500.642      19336.541      116.1819     
    920000   293.91966      398.49106      18533.737      19352.765      113.25445    
Loop time of 17.8741 on 64 procs for 50000 steps with 481 atoms

Performance: 12.085 ns/day, 1.986 hours/ns, 2797.345 timesteps/s, 1.346 Matom-step/s
100.0% CPU use with 64 MPI tasks x 1 OpenMP threads

MPI task timing breakdown:
Section |  min time  |  avg time  |  max time  |%varavg| %total
---------------------------------------------------------------
Pair    | 0.016512   | 0.67543    | 5.2004     | 141.3 |  3.78
Bond    | 0.0053603  | 0.79023    | 4.328      | 146.4 |  4.42
Neigh   | 0.02679    | 0.030695   | 0.034743   |   1.1 |  0.17
Comm    | 6.8825     | 13.429     | 16.459     |  86.0 | 75.13
Output  | 0.0076263  | 0.014403   | 0.020966   |   3.6 |  0.08
Modify  | 0.55613    | 2.3243     | 10.295     | 189.8 | 13.00
Other   |            | 0.6099     |            |       |  3.41

Nlocal:        7.51562 ave          36 max           0 min
Histogram: 40 8 0 0 1 2 3 2 5 3
Nghost:        1821.55 ave        2412 max        1292 min
Histogram: 16 0 0 0 32 0 0 0 0 16
Neighs:              0 ave           0 max           0 min
Histogram: 64 0 0 0 0 0 0 0 0 0

Total # of neighbors = 0
Ave neighs/atom = 0
Ave special neighs/atom = 15.567568
Neighbor list builds = 79
Dangerous builds = 0
unfix           myat1
next            cpt
jump            SELF loop
variable        zdes equal  -15+0.60*(${cpt}-1)
variable        zdes equal  -15+0.60*(16-1)
variable        zave equal xcm(H2,z)
fix             mytth2 H2 spring tether ${k1} 2.5 2.5 ${zdes} 0
fix             mytth2 H2 spring tether 1.7 2.5 2.5 ${zdes} 0
fix             mytth2 H2 spring tether 1.7 2.5 2.5 -6 0
run             10000
Generated 0 of 1 mixed pair_coeff terms from geometric mixing rule
Per MPI rank memory allocation (min/avg/max) = 13.32 | 13.62 | 14.95 Mbytes
   Step          Temp          E_pair         E_mol          TotEng         Press     
    920000   293.91966      398.49106      18533.737      19352.765      113.25445    
    930000   297.19035      387.80111      18524.28       19337.298     -180.45349    
Loop time of 3.62858 on 64 procs for 10000 steps with 481 atoms

Performance: 11.905 ns/day, 2.016 hours/ns, 2755.901 timesteps/s, 1.326 Matom-step/s
100.0% CPU use with 64 MPI tasks x 1 OpenMP threads

MPI task timing breakdown:
Section |  min time  |  avg time  |  max time  |%varavg| %total
---------------------------------------------------------------
Pair    | 0.0032869  | 0.13502    | 1.0424     |  63.3 |  3.72
Bond    | 0.0010734  | 0.15808    | 0.90852    |  65.7 |  4.36
Neigh   | 0.0063705  | 0.00725    | 0.008187   |   0.5 |  0.20
Comm    | 1.3704     | 2.7288     | 3.3503     |  39.0 | 75.20
Output  | 0.0015148  | 0.0028476  | 0.0041818  |   1.6 |  0.08
Modify  | 0.10963    | 0.4765     | 2.1196     |  86.8 | 13.13
Other   |            | 0.1201     |            |       |  3.31

Nlocal:        7.51562 ave          35 max           0 min
Histogram: 42 4 2 0 1 1 5 2 0 7
Nghost:        1818.64 ave        2407 max        1291 min
Histogram: 16 0 0 0 32 0 0 0 0 16
Neighs:              0 ave           0 max           0 min
Histogram: 64 0 0 0 0 0 0 0 0 0

Total # of neighbors = 0
Ave neighs/atom = 0
Ave special neighs/atom = 15.567568
Neighbor list builds = 18
Dangerous builds = 0
fix             myat1 all ave/time 1000 10 10000 v_zave v_zdes file simulation_data/abpot/${cpt}.dat
fix             myat1 all ave/time 1000 10 10000 v_zave v_zdes file simulation_data/abpot/16.dat
run             50000
Generated 0 of 1 mixed pair_coeff terms from geometric mixing rule
Per MPI rank memory allocation (min/avg/max) = 13.32 | 13.62 | 14.95 Mbytes
   Step          Temp          E_pair         E_mol          TotEng         Press     
    930000   297.19035      387.80111      18524.28       19337.298     -180.45349    
    940000   296.77489      385.02941      18500.324      19309.975     -124.96297    
    950000   286.91152      388.58038      18547.436      19346.526     -153.42686    
    960000   308.47109      390.49451      18542.757      19374.608      16.656189    
    970000   294.62742      393.89738      18529.874      19345.321     -80.055571    
    980000   278.02055      393.68978      18536.704      19328.182      23.988088    
Loop time of 18.2666 on 64 procs for 50000 steps with 481 atoms

Performance: 11.825 ns/day, 2.030 hours/ns, 2737.240 timesteps/s, 1.317 Matom-step/s
100.0% CPU use with 64 MPI tasks x 1 OpenMP threads

MPI task timing breakdown:
Section |  min time  |  avg time  |  max time  |%varavg| %total
---------------------------------------------------------------
Pair    | 0.017735   | 0.65833    | 5.2715     | 140.8 |  3.60
Bond    | 0.0053627  | 0.77558    | 4.7146     | 145.9 |  4.25
Neigh   | 0.028869   | 0.033462   | 0.038177   |   1.2 |  0.18
Comm    | 6.8771     | 13.71      | 16.771     |  87.6 | 75.06
Output  | 0.0078441  | 0.014604   | 0.021138   |   3.5 |  0.08
Modify  | 0.60226    | 2.4305     | 10.598     | 194.5 | 13.31
Other   |            | 0.6438     |            |       |  3.52

Nlocal:        7.51562 ave          37 max           0 min
Histogram: 43 3 2 0 0 4 4 1 4 3
Nghost:         1820.8 ave        2410 max        1287 min
Histogram: 16 0 0 0 32 0 0 0 0 16
Neighs:              0 ave           0 max           0 min
Histogram: 64 0 0 0 0 0 0 0 0 0

Total # of neighbors = 0
Ave neighs/atom = 0
Ave special neighs/atom = 15.567568
Neighbor list builds = 91
Dangerous builds = 0
unfix           myat1
next            cpt
jump            SELF loop
variable        zdes equal  -15+0.60*(${cpt}-1)
variable        zdes equal  -15+0.60*(17-1)
variable        zave equal xcm(H2,z)
fix             mytth2 H2 spring tether ${k1} 2.5 2.5 ${zdes} 0
fix             mytth2 H2 spring tether 1.7 2.5 2.5 ${zdes} 0
fix             mytth2 H2 spring tether 1.7 2.5 2.5 -5.4 0
run             10000
Generated 0 of 1 mixed pair_coeff terms from geometric mixing rule
Per MPI rank memory allocation (min/avg/max) = 13.32 | 13.62 | 14.95 Mbytes
   Step          Temp          E_pair         E_mol          TotEng         Press     
    980000   278.02055      393.68978      18536.704      19328.182      23.988088    
    990000   285.53901      383.97536      18525.039      19317.56      -279.112      
Loop time of 3.64963 on 64 procs for 10000 steps with 481 atoms

Performance: 11.837 ns/day, 2.028 hours/ns, 2740.002 timesteps/s, 1.318 Matom-step/s
100.0% CPU use with 64 MPI tasks x 1 OpenMP threads

MPI task timing breakdown:
Section |  min time  |  avg time  |  max time  |%varavg| %total
---------------------------------------------------------------
Pair    | 0.0034276  | 0.13106    | 1.0499     |  62.8 |  3.59
Bond    | 0.0010599  | 0.15436    | 0.92106    |  64.8 |  4.23
Neigh   | 0.0070779  | 0.0082445  | 0.0095305  |   0.7 |  0.23
Comm    | 1.3895     | 2.7411     | 3.3429     |  38.3 | 75.11
[...]
Section |  min time  |  avg time  |  max time  |%varavg| %total
---------------------------------------------------------------
Pair    | 0.0034493  | 0.127      | 0.71187    |  59.7 |  4.11
Bond    | 0.0011021  | 0.15575    | 0.85924    |  65.6 |  5.04
Neigh   | 0.0045073  | 0.005238   | 0.0059748  |   0.5 |  0.17
Comm    | 1.2953     | 2.2972     | 2.7948     |  33.4 | 74.39
Output  | 0.0015     | 0.0029246  | 0.0043209  |   1.7 |  0.09
Modify  | 0.11948    | 0.3709     | 1.5143     |  64.5 | 12.01
Other   |            | 0.1292     |            |       |  4.18

Nlocal:        7.51562 ave          35 max           0 min
Histogram: 41 6 1 0 0 1 5 2 4 4
Nghost:        1822.95 ave        2416 max        1290 min
Histogram: 16 0 0 0 32 0 0 0 0 16
Neighs:              0 ave           0 max           0 min
Histogram: 64 0 0 0 0 0 0 0 0 0

Total # of neighbors = 0
Ave neighs/atom = 0
Ave special neighs/atom = 15.567568
Neighbor list builds = 14
Dangerous builds = 0
fix             myat1 all ave/time 1000 10 10000 v_zave v_zdes file simulation_data/abpot/${cpt}.dat
fix             myat1 all ave/time 1000 10 10000 v_zave v_zdes file simulation_data/abpot/47.dat
run             50000
Generated 0 of 1 mixed pair_coeff terms from geometric mixing rule
Per MPI rank memory allocation (min/avg/max) = 13.32 | 13.62 | 14.95 Mbytes
   Step          Temp          E_pair         E_mol          TotEng         Press     
   2790000   305.24086      383.32922      18510.976      19331.04      -151.59081    
   2800000   303.24342      386.89809      18516.161      19336.936      11.852396    
   2810000   271.99351      383.56661      18534.396      19307.128     -180.57107    
   2820000   291.09296      389.71288      18505.919      19312.124      26.628126    
   2830000   289.16432      383.99225      18519.039      19316.765     -55.855603    
   2840000   307.35619      384.43293      18530.801      19354.996     -17.269357    
Loop time of 15.1633 on 64 procs for 50000 steps with 481 atoms

Performance: 14.245 ns/day, 1.685 hours/ns, 3297.440 timesteps/s, 1.586 Matom-step/s
100.0% CPU use with 64 MPI tasks x 1 OpenMP threads

MPI task timing breakdown:
Section |  min time  |  avg time  |  max time  |%varavg| %total
---------------------------------------------------------------
Pair    | 0.017388   | 0.63337    | 3.5793     | 133.5 |  4.18
Bond    | 0.0054986  | 0.77528    | 4.0422     | 144.3 |  5.11
Neigh   | 0.025886   | 0.029982   | 0.034237   |   1.1 |  0.20
Comm    | 6.2528     | 11.301     | 13.68      |  73.4 | 74.53
Output  | 0.0073189  | 0.014111   | 0.02069    |   3.6 |  0.09
Modify  | 0.60652    | 1.7649     | 7.2502     | 141.1 | 11.64
Other   |            | 0.6449     |            |       |  4.25

Nlocal:        7.51562 ave          34 max           0 min
Histogram: 42 4 2 0 0 1 3 5 3 4
Nghost:        1818.08 ave        2408 max        1290 min
Histogram: 16 0 0 0 32 0 0 0 0 16
Neighs:              0 ave           0 max           0 min
Histogram: 64 0 0 0 0 0 0 0 0 0

Total # of neighbors = 0
Ave neighs/atom = 0
Ave special neighs/atom = 15.567568
Neighbor list builds = 81
Dangerous builds = 0
unfix           myat1
next            cpt
jump            SELF loop
variable        zdes equal  -15+0.60*(${cpt}-1)
variable        zdes equal  -15+0.60*(48-1)
variable        zave equal xcm(H2,z)
fix             mytth2 H2 spring tether ${k1} 2.5 2.5 ${zdes} 0
fix             mytth2 H2 spring tether 1.7 2.5 2.5 ${zdes} 0
fix             mytth2 H2 spring tether 1.7 2.5 2.5 13.2 0
run             10000
Generated 0 of 1 mixed pair_coeff terms from geometric mixing rule
Per MPI rank memory allocation (min/avg/max) = 13.32 | 13.62 | 14.95 Mbytes
   Step          Temp          E_pair         E_mol          TotEng         Press     
   2840000   307.35619      384.43293      18530.801      19354.996     -17.269357    
   2850000   316.89987      393.77516      18532.628      19379.82       112.17195    
Loop time of 3.05127 on 64 procs for 10000 steps with 481 atoms

Performance: 14.158 ns/day, 1.695 hours/ns, 3277.322 timesteps/s, 1.576 Matom-step/s
100.0% CPU use with 64 MPI tasks x 1 OpenMP threads

MPI task timing breakdown:
Section |  min time  |  avg time  |  max time  |%varavg| %total
---------------------------------------------------------------
Pair    | 0.0033914  | 0.1265     | 0.70433    |  59.3 |  4.15
Bond    | 0.0011008  | 0.15512    | 0.82818    |  64.5 |  5.08
Neigh   | 0.0051239  | 0.0059182  | 0.006767   |   0.5 |  0.19
Comm    | 1.3372     | 2.2647     | 2.753      |  32.7 | 74.22
Output  | 0.0014596  | 0.002797   | 0.0041454  |   1.6 |  0.09
Modify  | 0.12014    | 0.3674     | 1.4679     |  62.7 | 12.04
Other   |            | 0.1288     |            |       |  4.22

Nlocal:        7.51562 ave          32 max           0 min
Histogram: 42 4 2 0 0 0 1 3 8 4
Nghost:        1820.61 ave        2414 max        1292 min
Histogram: 16 0 0 0 32 0 0 0 0 16
Neighs:              0 ave           0 max           0 min
Histogram: 64 0 0 0 0 0 0 0 0 0

Total # of neighbors = 0
Ave neighs/atom = 0
Ave special neighs/atom = 15.567568
Neighbor list builds = 16
Dangerous builds = 0
fix             myat1 all ave/time 1000 10 10000 v_zave v_zdes file simulation_data/abpot/${cpt}.dat
fix             myat1 all ave/time 1000 10 10000 v_zave v_zdes file simulation_data/abpot/48.dat
run             50000
Generated 0 of 1 mixed pair_coeff terms from geometric mixing rule
Per MPI rank memory allocation (min/avg/max) = 13.32 | 13.62 | 14.95 Mbytes
   Step          Temp          E_pair         E_mol          TotEng         Press     
   2850000   316.89987      393.77516      18532.628      19379.82       112.17195    
   2860000   316.54864      391.0633       18529.582      19373.559      55.006704    
   2870000   308.88965      390.76047      18497.383      19330.099      48.356337    
   2880000   298.5349       384.35103      18528.701      19340.192     -79.826548    
   2890000   299.07071      384.83454      18529.483      19342.224     -56.180974    
   2900000   298.99661      379.79786      18502.288      19309.887     -56.190141    
Loop time of 15.3792 on 64 procs for 50000 steps with 481 atoms

Performance: 14.045 ns/day, 1.709 hours/ns, 3251.134 timesteps/s, 1.564 Matom-step/s
100.0% CPU use with 64 MPI tasks x 1 OpenMP threads

MPI task timing breakdown:
Section |  min time  |  avg time  |  max time  |%varavg| %total
---------------------------------------------------------------
Pair    | 0.01757    | 0.6384     | 3.6742     | 133.4 |  4.15
Bond    | 0.0053891  | 0.78224    | 4.1375     | 145.5 |  5.09
Neigh   | 0.023253   | 0.026746   | 0.030367   |   1.0 |  0.17
Comm    | 6.1756     | 11.477     | 13.872     |  74.3 | 74.63
Output  | 0.0072909  | 0.01404    | 0.020583   |   3.6 |  0.09
Modify  | 0.62935    | 1.7952     | 7.4604     | 144.5 | 11.67
Other   |            | 0.6456     |            |       |  4.20

Nlocal:        7.51562 ave          37 max           0 min
Histogram: 43 4 1 0 1 2 1 7 4 1
Nghost:         1820.7 ave        2416 max        1292 min
Histogram: 16 0 0 0 32 0 0 0 0 16
Neighs:              0 ave           0 max           0 min
Histogram: 64 0 0 0 0 0 0 0 0 0

Total # of neighbors = 0
Ave neighs/atom = 0
Ave special neighs/atom = 15.567568
Neighbor list builds = 70
Dangerous builds = 0
unfix           myat1
next            cpt
jump            SELF loop
variable        zdes equal  -15+0.60*(${cpt}-1)
variable        zdes equal  -15+0.60*(49-1)
variable        zave equal xcm(H2,z)
fix             mytth2 H2 spring tether ${k1} 2.5 2.5 ${zdes} 0
fix             mytth2 H2 spring tether 1.7 2.5 2.5 ${zdes} 0
fix             mytth2 H2 spring tether 1.7 2.5 2.5 13.8 0
run             10000
Generated 0 of 1 mixed pair_coeff terms from geometric mixing rule
Per MPI rank memory allocation (min/avg/max) = 13.32 | 13.62 | 14.95 Mbytes
   Step          Temp          E_pair         E_mol          TotEng         Press     
   2900000   298.99661      379.79786      18502.288      19309.887     -56.190141    
   2910000   284.86953      386.36897      18498.387      19292.344      49.144354    
Loop time of 3.09274 on 64 procs for 10000 steps with 481 atoms

Performance: 13.968 ns/day, 1.718 hours/ns, 3233.377 timesteps/s, 1.555 Matom-step/s
100.0% CPU use with 64 MPI tasks x 1 OpenMP threads

MPI task timing breakdown:
Section |  min time  |  avg time  |  max time  |%varavg| %total
---------------------------------------------------------------
Pair    | 0.0032621  | 0.12867    | 0.78738    |  60.5 |  4.16
Bond    | 0.0010686  | 0.15778    | 0.90405    |  66.2 |  5.10
Neigh   | 0.0047842  | 0.0054779  | 0.0061675  |   0.4 |  0.18
Comm    | 1.1116     | 2.3024     | 2.7907     |  33.8 | 74.44
Output  | 0.0014771  | 0.002827   | 0.0041796  |   1.6 |  0.09
Modify  | 0.12674    | 0.36621    | 1.5092     |  64.3 | 11.84
Other   |            | 0.1294     |            |       |  4.18

Nlocal:        7.51562 ave          33 max           0 min
Histogram: 41 6 1 0 0 0 3 3 7 3
Nghost:        1821.64 ave        2417 max        1291 min
Histogram: 16 0 0 0 32 0 0 0 0 16
Neighs:              0 ave           0 max           0 min
Histogram: 64 0 0 0 0 0 0 0 0 0

Total # of neighbors = 0
Ave neighs/atom = 0
Ave special neighs/atom = 15.567568
Neighbor list builds = 14
Dangerous builds = 0
fix             myat1 all ave/time 1000 10 10000 v_zave v_zdes file simulation_data/abpot/${cpt}.dat
fix             myat1 all ave/time 1000 10 10000 v_zave v_zdes file simulation_data/abpot/49.dat
run             50000
Generated 0 of 1 mixed pair_coeff terms from geometric mixing rule
Per MPI rank memory allocation (min/avg/max) = 13.32 | 13.62 | 14.95 Mbytes
   Step          Temp          E_pair         E_mol          TotEng         Press     
   2910000   284.86953      386.36897      18498.387      19292.344      49.144354    
   2920000   295.01761      382.52044      18543.966      19348.595     -158.48567    
   2930000   300.56475      379.97354      18535.072      19345.09      -152.9723     
   2940000   288.9102       383.30807      18513.462      19310.139      7.7864393    
   2950000   291.15159      380.9896       18509.632      19307.198     -112.90601    
   2960000   296.33264      384.97853      18527.628      19336.596      42.171691    
Loop time of 15.349 on 64 procs for 50000 steps with 481 atoms

Performance: 14.073 ns/day, 1.705 hours/ns, 3257.546 timesteps/s, 1.567 Matom-step/s
100.0% CPU use with 64 MPI tasks x 1 OpenMP threads

MPI task timing breakdown:
Section |  min time  |  avg time  |  max time  |%varavg| %total
---------------------------------------------------------------
Pair    | 0.017738   | 0.6392     | 3.5038     | 132.3 |  4.16
Bond    | 0.0053968  | 0.78284    | 4.0661     | 144.6 |  5.10
Neigh   | 0.020254   | 0.023407   | 0.026731   |   1.0 |  0.15
Comm    | 6.7266     | 11.427     | 13.863     |  73.8 | 74.45
Output  | 0.0074114  | 0.014147   | 0.020703   |   3.6 |  0.09
Modify  | 0.60562    | 1.818      | 7.4399     | 143.5 | 11.84
Other   |            | 0.644      |            |       |  4.20

Nlocal:        7.51562 ave          35 max           0 min
Histogram: 42 4 2 0 0 0 4 5 4 3
Nghost:        1821.73 ave        2410 max        1290 min
Histogram: 16 0 0 0 32 0 0 0 0 16
Neighs:              0 ave           0 max           0 min
Histogram: 64 0 0 0 0 0 0 0 0 0

Total # of neighbors = 0
Ave neighs/atom = 0
Ave special neighs/atom = 15.567568
Neighbor list builds = 64
Dangerous builds = 0
unfix           myat1
next            cpt
jump            SELF loop
variable        zdes equal  -15+0.60*(${cpt}-1)
variable        zdes equal  -15+0.60*(50-1)
variable        zave equal xcm(H2,z)
fix             mytth2 H2 spring tether ${k1} 2.5 2.5 ${zdes} 0
fix             mytth2 H2 spring tether 1.7 2.5 2.5 ${zdes} 0
fix             mytth2 H2 spring tether 1.7 2.5 2.5 14.4 0
run             10000
Generated 0 of 1 mixed pair_coeff terms from geometric mixing rule
Per MPI rank memory allocation (min/avg/max) = 13.32 | 13.62 | 14.95 Mbytes
   Step          Temp          E_pair         E_mol          TotEng         Press     
   2960000   296.33264      384.97853      18527.628      19336.596      42.171691    
   2970000   316.55714      382.46797      18525.501      19360.896     -13.732508    
Loop time of 3.07981 on 64 procs for 10000 steps with 481 atoms

Performance: 14.027 ns/day, 1.711 hours/ns, 3246.951 timesteps/s, 1.562 Matom-step/s
100.0% CPU use with 64 MPI tasks x 1 OpenMP threads

MPI task timing breakdown:
Section |  min time  |  avg time  |  max time  |%varavg| %total
---------------------------------------------------------------
Pair    | 0.0034233  | 0.12808    | 0.70256    |  59.6 |  4.16
Bond    | 0.001087   | 0.15675    | 0.81342    |  64.7 |  5.09
Neigh   | 0.0044616  | 0.005194   | 0.0059204  |   0.5 |  0.17
Comm    | 1.2904     | 2.3023     | 2.7857     |  33.3 | 74.75
Output  | 0.0014915  | 0.0028278  | 0.0041664  |   1.6 |  0.09
Modify  | 0.1191     | 0.35504    | 1.4991     |  65.3 | 11.53
Other   |            | 0.1297     |            |       |  4.21

Nlocal:        7.51562 ave          36 max           0 min
Histogram: 41 7 0 0 1 1 2 6 4 2
Nghost:        1822.86 ave        2414 max        1293 min
Histogram: 16 0 0 0 32 0 0 0 0 16
Neighs:              0 ave           0 max           0 min
Histogram: 64 0 0 0 0 0 0 0 0 0

Total # of neighbors = 0
Ave neighs/atom = 0
Ave special neighs/atom = 15.567568
Neighbor list builds = 14
Dangerous builds = 0
fix             myat1 all ave/time 1000 10 10000 v_zave v_zdes file simulation_data/abpot/${cpt}.dat
fix             myat1 all ave/time 1000 10 10000 v_zave v_zdes file simulation_data/abpot/50.dat
run             50000
Generated 0 of 1 mixed pair_coeff terms from geometric mixing rule
Per MPI rank memory allocation (min/avg/max) = 13.32 | 13.62 | 14.95 Mbytes
   Step          Temp          E_pair         E_mol          TotEng         Press     
   2970000   316.55714      382.46797      18525.501      19360.896     -13.732508    
   2980000   323.1543       378.36516      18534.402      19375.133     -225.3353     
   2990000   309.57005      390.03976      18525.19       19358.159      144.32465    
   3000000   277.7512       389.40935      18533.458      19320.271      76.249223    
   3010000   289.2959       377.30864      18530.457      19321.687     -206.14631    
   3020000   331.00275      384.85739      18531.826      19390.278     -89.414342    
Loop time of 15.4264 on 64 procs for 50000 steps with 481 atoms

Performance: 14.002 ns/day, 1.714 hours/ns, 3241.189 timesteps/s, 1.559 Matom-step/s
100.0% CPU use with 64 MPI tasks x 1 OpenMP threads

MPI task timing breakdown:
Section |  min time  |  avg time  |  max time  |%varavg| %total
---------------------------------------------------------------
Pair    | 0.017504   | 0.6405     | 3.5878     | 133.4 |  4.15
Bond    | 0.0053856  | 0.78455    | 4.0736     | 145.1 |  5.09
Neigh   | 0.017974   | 0.020711   | 0.023505   |   0.9 |  0.13
Comm    | 6.3734     | 11.498     | 13.931     |  74.4 | 74.54
Output  | 0.0073227  | 0.014068   | 0.020651   |   3.6 |  0.09
Modify  | 0.61109    | 1.8232     | 7.5023     | 144.8 | 11.82
Other   |            | 0.6451     |            |       |  4.18

Nlocal:        7.51562 ave          37 max           0 min
Histogram: 40 8 0 0 1 3 1 4 5 2
Nghost:         1819.3 ave        2405 max        1294 min
Histogram: 16 0 0 0 32 0 0 0 0 16
Neighs:              0 ave           0 max           0 min
Histogram: 64 0 0 0 0 0 0 0 0 0

Total # of neighbors = 0
Ave neighs/atom = 0
Ave special neighs/atom = 15.567568
Neighbor list builds = 55
Dangerous builds = 0
unfix           myat1
next            cpt
jump            SELF loop
variable        zdes equal  -15+0.60*(${cpt}-1)
variable        zdes equal  -15+0.60*(51-1)
variable        zave equal xcm(H2,z)
fix             mytth2 H2 spring tether ${k1} 2.5 2.5 ${zdes} 0
fix             mytth2 H2 spring tether 1.7 2.5 2.5 ${zdes} 0
fix             mytth2 H2 spring tether 1.7 2.5 2.5 15 0
run             10000
Generated 0 of 1 mixed pair_coeff terms from geometric mixing rule
Per MPI rank memory allocation (min/avg/max) = 13.32 | 13.62 | 14.95 Mbytes
   Step          Temp          E_pair         E_mol          TotEng         Press     
   3020000   331.00275      384.85739      18531.826      19390.278     -89.414342    
   3030000   311.56872      386.19771      18519.959      19351.946      53.76561     
Loop time of 3.29424 on 64 procs for 10000 steps with 481 atoms

Performance: 13.114 ns/day, 1.830 hours/ns, 3035.601 timesteps/s, 1.460 Matom-step/s
100.0% CPU use with 64 MPI tasks x 1 OpenMP threads

MPI task timing breakdown:
Section |  min time  |  avg time  |  max time  |%varavg| %total
---------------------------------------------------------------
Pair    | 0.0034559  | 0.12814    | 0.67587    |  59.2 |  3.89
Bond    | 0.0010878  | 0.15668    | 0.85108    |  65.1 |  4.76
Neigh   | 0.0035182  | 0.0040369  | 0.0045811  |   0.4 |  0.12
Comm    | 1.4408     | 2.4685     | 2.9955     |  34.7 | 74.93
Output  | 0.0015888  | 0.0029346  | 0.0042951  |   1.6 |  0.09
Modify  | 0.12227    | 0.40468    | 1.709      |  73.7 | 12.28
Other   |            | 0.1293     |            |       |  3.92

Nlocal:        7.51562 ave          36 max           0 min
Histogram: 40 8 0 0 0 1 5 4 5 1
Nghost:        1820.89 ave        2416 max        1292 min
Histogram: 16 0 0 0 32 0 0 0 0 16
Neighs:              0 ave           0 max           0 min
Histogram: 64 0 0 0 0 0 0 0 0 0

Total # of neighbors = 0
Ave neighs/atom = 0
Ave special neighs/atom = 15.567568
Neighbor list builds = 10
Dangerous builds = 0
fix             myat1 all ave/time 1000 10 10000 v_zave v_zdes file simulation_data/abpot/${cpt}.dat
fix             myat1 all ave/time 1000 10 10000 v_zave v_zdes file simulation_data/abpot/51.dat
run             50000
Generated 0 of 1 mixed pair_coeff terms from geometric mixing rule
Per MPI rank memory allocation (min/avg/max) = 13.32 | 13.62 | 14.95 Mbytes
   Step          Temp          E_pair         E_mol          TotEng         Press     
   3030000   311.56872      386.19771      18519.959      19351.946      53.76561     
   3040000   299.0365       385.29228      18519.543      19332.693     -54.040882    
   3050000   297.79462      377.79678      18496.369      19300.247     -235.0759     
   3060000   278.27379      382.82835      18515.692      19296.671     -175.70904    
   3070000   292.68602      392.00205      18526.518      19337.292      285.97595    
   3080000   312.60681      376.58059      18539.753      19363.608     -153.97025    
Loop time of 15.396 on 64 procs for 50000 steps with 481 atoms

Performance: 14.030 ns/day, 1.711 hours/ns, 3247.596 timesteps/s, 1.562 Matom-step/s
100.0% CPU use with 64 MPI tasks x 1 OpenMP threads

MPI task timing breakdown:
Section |  min time  |  avg time  |  max time  |%varavg| %total
---------------------------------------------------------------
Pair    | 0.017603   | 0.63869    | 3.4476     | 132.1 |  4.15
Bond    | 0.0054133  | 0.78236    | 4.1419     | 144.9 |  5.08
Neigh   | 0.020619   | 0.023733   | 0.026915   |   1.0 |  0.15
Comm    | 6.6056     | 11.493     | 13.918     |  73.7 | 74.65
Output  | 0.0074587  | 0.014292   | 0.020898   |   3.6 |  0.09
Modify  | 0.61073    | 1.8        | 7.4412     | 144.6 | 11.69
Other   |            | 0.6441     |            |       |  4.18

Nlocal:        7.51562 ave          37 max           0 min
Histogram: 40 8 0 0 1 5 1 2 4 3
Nghost:        1824.08 ave        2418 max        1287 min
Histogram: 16 0 0 0 32 0 0 0 0 16
Neighs:              0 ave           0 max           0 min
Histogram: 64 0 0 0 0 0 0 0 0 0

Total # of neighbors = 0
Ave neighs/atom = 0
Ave special neighs/atom = 15.567568
Neighbor list builds = 62
Dangerous builds = 0
unfix           myat1
next            cpt
jump            SELF loop

Total wall time: 0:17:34
