# --- log file ---

variable pre equal 112 # desired pressure (Atm)
variable tem equal 300 # desired temperature (K)

variable k1 equal 5.1 # spring constant
variable k2 equal 3.5 # spring constant

units real
atom_style molecular
boundary p p p
neighbor 1.0 bin
neigh_modify delay 3 one 6000
bond_style harmonic
angle_style harmonic
dihedral_style opls
improper_style harmonic
pair_style hybrid lj/cut 14 sg 15 cb 30 # Fluid-fluid interactions have a cutoff of 15 Å, fluid-solid interactions have a cutoff of 30 Å
# *--* C-C parameters *--*
bond_style harmonic
angle_style harmonic
dihedral_style opls
improper_style harmonic
# *--* C-C parameters *--*


# 2. Read the graphite platelet data file and define potentials parameters
read_data       ../geometry/carbonPlatelets/simulation_data/abpot_sys.data  extra/atom/types 1
Reading data file ...
  orthogonal box = (-30 -30 -30) to (30 30 30)
  3 by 4 by 4 MPI processor grid
  reading atoms ...
  480 atoms
  reading velocities ...
  480 velocities
  scanning bonds ...
  2 = max bonds/atom
  scanning angles ...
  3 = max angles/atom
  scanning dihedrals ...
  8 = max dihedrals/atom
  scanning impropers ...
  2 = max impropers/atom
  orthogonal box = (-30 -30 -30) to (30 30 30)
  3 by 4 by 4 MPI processor grid
  reading bonds ...
  676 bonds
  reading angles ...
  1268 angles
  reading dihedrals ...
  2394 dihedrals
  reading impropers ...
  396 impropers
Finding 1-2 1-3 1-4 neighbors ...
  special bond factors lj:    0        0        0       
  special bond factors coul:  0        0        0       
     3 = max # of 1-2 neighbors
     6 = max # of 1-3 neighbors
    18 = max # of 1-4 neighbors
    18 = max # of special neighbors
  special bonds CPU = 0.003 seconds
  read_data CPU = 0.053 seconds
include         PARM.lammps

#////////////////////////////////////////////////////////////////////////////////////////////////////////////////////////////////
#//     Filename: PARM.lammps
#//     File Type: LAMMPS input script
#//     Description: This script defines the parameters for the simulation of hydrogen absorption in graphite platelets.
#//     Author: Edoardo Cabiati
#//     Date: 2024-07-27
#////////////////////////////////////////////////////////////////////////////////////////////////////////////////////////////////

mass 2 2.016 # For now at least, in accordance with the paper by Wang and Johnson,
             # 1998, the hydrogen atoms are regarded as simple spherical atoms

# //////////////////////////////////////    C-C potentials    //////////////////////////////////////
pair_coeff 1 1 lj/cut 0.066 3.4
bond_coeff 1 469 1.4
angle_coeff 1 63 120
dihedral_coeff 1 0 7.25 0 0
improper_coeff 1 5 180
special_bonds lj 0.0 0.0 0.5
Finding 1-2 1-3 1-4 neighbors ...
  special bond factors lj:    0        0        0.5     
  special bond factors coul:  0        0        0       
     3 = max # of 1-2 neighbors
     6 = max # of 1-3 neighbors
    18 = max # of 1-4 neighbors
    18 = max # of special neighbors
  special bonds CPU = 0.001 seconds
# //////////////////////////////////////    C-C potentials    //////////////////////////////////////
# -------------------------------------------------------------------------------------------------
# //////////////////////////////////////    H-H potentials    //////////////////////////////////////
variable alpha equal 1.713          #|
variable sigma equal 1.567          #|
variable gamma equal 0.00993        #|
variable c6 equal 12.14             #|      The parameters are all in atomic units, the conversion to kcal/mol
variable c8 equal 215.2             #|      is performed in the pair_sg.cpp file
variable c9 equal 143.1             #|
variable c10 equal 4813.9           #|
variable rc equal 8.321             #|
pair_coeff 2 2 sg ${alpha} ${sigma} ${gamma} ${c6} ${c8} ${c9} ${c10} ${rc} # H-H potentials
pair_coeff 2 2 sg 1.713 ${sigma} ${gamma} ${c6} ${c8} ${c9} ${c10} ${rc} 
pair_coeff 2 2 sg 1.713 1.567 ${gamma} ${c6} ${c8} ${c9} ${c10} ${rc} 
pair_coeff 2 2 sg 1.713 1.567 0.00993 ${c6} ${c8} ${c9} ${c10} ${rc} 
pair_coeff 2 2 sg 1.713 1.567 0.00993 12.14 ${c8} ${c9} ${c10} ${rc} 
pair_coeff 2 2 sg 1.713 1.567 0.00993 12.14 215.2 ${c9} ${c10} ${rc} 
pair_coeff 2 2 sg 1.713 1.567 0.00993 12.14 215.2 143.1 ${c10} ${rc} 
pair_coeff 2 2 sg 1.713 1.567 0.00993 12.14 215.2 143.1 4813.9 ${rc} 
pair_coeff 2 2 sg 1.713 1.567 0.00993 12.14 215.2 143.1 4813.9 8.321 
#pair_coeff 2 2 sg 1.713 1.567 0.00993 12.14 215.2 143.1 4813.9 8.321 # H-H potentials
# //////////////////////////////////////    H-H potentials    //////////////////////////////////////
# -------------------------------------------------------------------------------------------------
# //////////////////////////////////////    C-H potentials    //////////////////////////////////////
variable sigma_CC equal 3.43 # Å
variable sigma_HH equal 3.075 # Å
variable sigma_CH_geo equal sqrt(${sigma_CC}*${sigma_HH}) # Å
variable sigma_CH_geo equal sqrt(3.43*${sigma_HH}) 
variable sigma_CH_geo equal sqrt(3.43*3.075) 
variable sigma_CH_arit equal 0.5*(${sigma_CC}+${sigma_HH}) # Å
variable sigma_CH_arit equal 0.5*(3.43+${sigma_HH}) 
variable sigma_CH_arit equal 0.5*(3.43+3.075) 

variable P_par equal 0.57 # Å^3
variable P_perp equal 1.995 # Å^3
variable P_h equal 0.81 # Å^3
variable E_h equal 2.337e5*(1/503.23) # K * 1/503.23 kcal/mol/K = kcal/mol
variable E_c equal 1.39254e5*(1/503.23) # K * 1/503.23 kcal/mol/K = kcal/mol

variable epsilon equal 4*v_E_h*v_E_c*v_P_h*(v_P_par+v_P_perp/2)/(v_sigma_CH_geo^6*(v_E_h+v_E_c)) # kcal/mol

pair_coeff 1 2 cb ${epsilon} ${sigma_CH_geo} ${P_par} ${P_perp} # C-H potential
pair_coeff 1 2 cb 0.750549668586509 ${sigma_CH_geo} ${P_par} ${P_perp} 
pair_coeff 1 2 cb 0.750549668586509 3.24765299870537 ${P_par} ${P_perp} 
pair_coeff 1 2 cb 0.750549668586509 3.24765299870537 0.57 ${P_perp} 
pair_coeff 1 2 cb 0.750549668586509 3.24765299870537 0.57 1.995 
#pair_coeff 1 2 lj/cut 0.3025 2.065
# //////////////////////////////////////    C-H potentials    //////////////////////////////////////

# 3. Add a single hydrogen molecule to the system, close to the center of the first platelet
create_atoms    2 single 0 0 -2
Created 1 atoms
  using lattice units in orthogonal box = (-30 -30 -30) to (30 30 30)
  create_atoms CPU = 0.000 seconds

group           C type 1
480 atoms in group C
group           H2 type 2
1 atoms in group H2

# 4. Equilibration
timestep        0.05
fix             mytth1 C spring/self ${k2} # Apply a spring force to the carbon atoms
fix             mytth1 C spring/self 3.5 
velocity        all create ${tem} 48 rot yes mom yes dist gaussian # Initialize velocities
velocity        all create 300 48 rot yes mom yes dist gaussian 
fix             mynpt all npt temp ${tem} ${tem} 100 x ${pre} ${pre} 1000 y ${pre} ${pre} 1000 # Apply NPT ensemble to the system
fix             mynpt all npt temp 300 ${tem} 100 x ${pre} ${pre} 1000 y ${pre} ${pre} 1000 
fix             mynpt all npt temp 300 300 100 x ${pre} ${pre} 1000 y ${pre} ${pre} 1000 
fix             mynpt all npt temp 300 300 100 x 112 ${pre} 1000 y ${pre} ${pre} 1000 
fix             mynpt all npt temp 300 300 100 x 112 112 1000 y ${pre} ${pre} 1000 
fix             mynpt all npt temp 300 300 100 x 112 112 1000 y 112 ${pre} 1000 
fix             mynpt all npt temp 300 300 100 x 112 112 1000 y 112 112 1000 

thermo          10000
dump            dump all atom 1000 simulation_data/absorption_pot.lammpstrj

run             20000

CITE-CITE-CITE-CITE-CITE-CITE-CITE-CITE-CITE-CITE-CITE-CITE-CITE

Your simulation uses code contributions which should be cited:

- Type Label Framework: https://doi.org/10.1021/acs.jpcb.3c08419

@Article{Gissinger24,
 author = {Jacob R. Gissinger, Ilia Nikiforov, Yaser Afshar, Brendon Waters, Moon-ki Choi, Daniel S. Karls, Alexander Stukowski, Wonpil Im, Hendrik Heinz, Axel Kohlmeyer, and Ellad B. Tadmor},
 title = {Type Label Framework for Bonded Force Fields in LAMMPS},
 journal = {J. Phys. Chem. B},
 year =    2024,
 volume =  128,
 number =  13,
 pages =   {3282–-3297}
}

CITE-CITE-CITE-CITE-CITE-CITE-CITE-CITE-CITE-CITE-CITE-CITE-CITE

Generated 0 of 1 mixed pair_coeff terms from geometric mixing rule
Neighbor list info ...
  update: every = 1 steps, delay = 3 steps, check = yes
  max neighbors/atom: 6000, page size: 100000
  master list distance cutoff = 31
  ghost atom cutoff = 31
  binsize = 15.5, bins = 4 4 4
  4 neighbor lists, perpetual/occasional/extra = 4 0 0
  (1) pair lj/cut, perpetual, skip trim from (4)
      attributes: half, newton on, cut 15
      pair build: skip/trim
      stencil: none
      bin: none
  (2) pair sg, perpetual, skip trim from (4)
      attributes: half, newton on, cut 16
      pair build: skip/trim
      stencil: none
      bin: none
  (3) pair cb, perpetual, skip from (4)
      attributes: half, newton on
      pair build: skip
      stencil: none
      bin: none
  (4) neighbor class addition, perpetual
      attributes: half, newton on
      pair build: half/bin/newton
      stencil: half/bin/3d
      bin: standard
Per MPI rank memory allocation (min/avg/max) = 13.28 | 13.37 | 13.93 Mbytes
   Step          Temp          E_pair         E_mol          TotEng         Press          Volume    
         0   300            308.43814      19603.922      20341.597     -432.48369      216000       
     10000   308.72719      373.58236      18568.419      19383.724     -313.9945       172136.64    
     20000   322.02648      371.05675      18538.378      19370.187     -418.66256      126544.33    
Loop time of 9.37151 on 48 procs for 20000 steps with 481 atoms

Performance: 9.219 ns/day, 2.603 hours/ns, 2134.128 timesteps/s, 1.027 Matom-step/s
99.9% CPU use with 48 MPI tasks x 1 OpenMP threads

MPI task timing breakdown:
Section |  min time  |  avg time  |  max time  |%varavg| %total
---------------------------------------------------------------
Pair    | 0.12982    | 0.5724     | 2.4402     |  80.1 |  6.11
Bond    | 0.0042994  | 0.49732    | 3.108      | 121.8 |  5.31
Neigh   | 0.027433   | 0.03079    | 0.033794   |   1.1 |  0.33
Comm    | 3.0609     | 5.3898     | 7.8433     |  74.6 | 57.51
Output  | 0.0045366  | 0.010566   | 0.017412   |   4.2 |  0.11
Modify  | 0.75381    | 2.5182     | 5.5566     | 117.2 | 26.87
Other   |            | 0.3524     |            |       |  3.76

Nlocal:        10.0208 ave          42 max           0 min
Histogram: 21 4 10 5 0 1 0 3 3 1
Nghost:        1907.85 ave        2370 max        1332 min
Histogram: 8 0 0 0 24 0 0 0 0 16
Neighs:              0 ave           0 max           0 min
Histogram: 48 0 0 0 0 0 0 0 0 0

Total # of neighbors = 0
Ave neighs/atom = 0
Ave special neighs/atom = 15.567568
Neighbor list builds = 55
Dangerous builds = 0
unfix           mynpt
unfix           mytth1

# 5. Umbrella sampling
fix             mynvt all nvt temp ${tem} ${tem} 100
fix             mynvt all nvt temp 300 ${tem} 100
fix             mynvt all nvt temp 300 300 100
fix             mytth1 C spring/self ${k2}
fix             mytth1 C spring/self 3.5

variable        cpt loop 51
label           loop
variable        zdes equal  -15+0.60*(${cpt}-1)
variable        zdes equal  -15+0.60*(1-1)
variable        zave equal xcm(H2,z)
fix             mytth2 H2 spring tether ${k1} 2.5 2.5 ${zdes} 0
fix             mytth2 H2 spring tether 5.1 2.5 2.5 ${zdes} 0
fix             mytth2 H2 spring tether 5.1 2.5 2.5 -15 0
run             10000
Generated 0 of 1 mixed pair_coeff terms from geometric mixing rule
Per MPI rank memory allocation (min/avg/max) = 13.32 | 13.74 | 14.98 Mbytes
   Step          Temp          E_pair         E_mol          TotEng         Press     
     20000   322.02648      371.05675      18538.378      19370.187     -418.66256    
     30000   246.6866       339.79635      18587.621      19280.373     -1059.5988    
Loop time of 3.99049 on 48 procs for 10000 steps with 481 atoms

Performance: 10.826 ns/day, 2.217 hours/ns, 2505.955 timesteps/s, 1.205 Matom-step/s
100.0% CPU use with 48 MPI tasks x 1 OpenMP threads

MPI task timing breakdown:
Section |  min time  |  avg time  |  max time  |%varavg| %total
---------------------------------------------------------------
Pair    | 0.0034567  | 0.19199    | 1.2962     |  65.7 |  4.81
Bond    | 0.001096   | 0.21613    | 0.99955    |  61.0 |  5.42
Neigh   | 0.071619   | 0.078583   | 0.085456   |   1.5 |  1.97
Comm    | 1.311      | 2.9154     | 3.5228     |  37.1 | 73.06
Output  | 0.0017488  | 0.0041792  | 0.0068807  |   2.5 |  0.10
Modify  | 0.14232    | 0.44405    | 1.7016     |  82.2 | 11.13
Other   |            | 0.1402     |            |       |  3.51

Nlocal:        10.0208 ave          41 max           0 min
Histogram: 22 5 6 6 1 1 1 1 2 3
Nghost:        1914.25 ave        2388 max        1334 min
Histogram: 8 0 0 0 24 0 0 0 0 16
Neighs:              0 ave           0 max           0 min
Histogram: 48 0 0 0 0 0 0 0 0 0

Total # of neighbors = 0
Ave neighs/atom = 0
Ave special neighs/atom = 15.567568
Neighbor list builds = 140
Dangerous builds = 0
fix             myat1 all ave/time 1000 10 10000 v_zave v_zdes file simulation_data/abpot/${cpt}.dat
fix             myat1 all ave/time 1000 10 10000 v_zave v_zdes file simulation_data/abpot/1.dat
run             50000
Generated 0 of 1 mixed pair_coeff terms from geometric mixing rule
Per MPI rank memory allocation (min/avg/max) = 13.32 | 13.79 | 14.98 Mbytes
   Step          Temp          E_pair         E_mol          TotEng         Press     
     30000   246.6866       339.79635      18587.621      19280.373     -1059.5988    
     40000   282.50552      417.22805      18511.783      19333.217      647.81719    
     50000   303.0711       380.14393      18552.643      19366.417      96.105908    
     60000   310.06451      363.88974      18562.693      19370.22      -256.79101    
     70000   322.4777       366.28713      18562.751      19390.436     -275.91529    
     80000   277.57765      387.11776      18562.308      19346.581      290.82864    
Loop time of 19.5634 on 48 procs for 50000 steps with 481 atoms

Performance: 11.041 ns/day, 2.174 hours/ns, 2555.799 timesteps/s, 1.229 Matom-step/s
100.0% CPU use with 48 MPI tasks x 1 OpenMP threads

MPI task timing breakdown:
Section |  min time  |  avg time  |  max time  |%varavg| %total
---------------------------------------------------------------
Pair    | 0.017329   | 0.96995    | 6.1252     | 148.5 |  4.96
Bond    | 0.0054375  | 1.0837     | 5.2715     | 137.2 |  5.54
Neigh   | 0.099139   | 0.10825    | 0.11754    |   1.7 |  0.55
Comm    | 7.0084     | 14.272     | 17.47      |  85.1 | 72.95
Output  | 0.0092632  | 0.018874   | 0.0287     |   4.6 |  0.10
Modify  | 0.73118    | 2.352      | 8.7906     | 182.0 | 12.02
Other   |            | 0.7581     |            |       |  3.88

Nlocal:        10.0208 ave          42 max           0 min
Histogram: 22 2 13 2 1 1 2 1 1 3
Nghost:        1931.85 ave        2414 max        1333 min
Histogram: 8 0 0 0 24 0 0 0 0 16
Neighs:              0 ave           0 max           0 min
Histogram: 48 0 0 0 0 0 0 0 0 0

Total # of neighbors = 0
Ave neighs/atom = 0
Ave special neighs/atom = 15.567568
Neighbor list builds = 191
Dangerous builds = 0
unfix           myat1
next            cpt
jump            SELF loop
variable        zdes equal  -15+0.60*(${cpt}-1)
variable        zdes equal  -15+0.60*(2-1)
variable        zave equal xcm(H2,z)
fix             mytth2 H2 spring tether ${k1} 2.5 2.5 ${zdes} 0
fix             mytth2 H2 spring tether 5.1 2.5 2.5 ${zdes} 0
fix             mytth2 H2 spring tether 5.1 2.5 2.5 -14.4 0
run             10000
Generated 0 of 1 mixed pair_coeff terms from geometric mixing rule
Per MPI rank memory allocation (min/avg/max) = 13.32 | 13.82 | 14.98 Mbytes
   Step          Temp          E_pair         E_mol          TotEng         Press     
     80000   277.57765      387.11776      18562.308      19346.581      290.82864    
     90000   311.26746      372.18484      18541.382      19358.925     -132.35414    
Loop time of 3.97495 on 48 procs for 10000 steps with 481 atoms

Performance: 10.868 ns/day, 2.208 hours/ns, 2515.754 timesteps/s, 1.210 Matom-step/s
100.0% CPU use with 48 MPI tasks x 1 OpenMP threads

MPI task timing breakdown:
Section |  min time  |  avg time  |  max time  |%varavg| %total
---------------------------------------------------------------
Pair    | 0.0034171  | 0.19191    | 1.2079     |  67.1 |  4.83
Bond    | 0.0010584  | 0.21409    | 1.0663     |  62.0 |  5.39
Neigh   | 0.010218   | 0.01126    | 0.012248   |   0.6 |  0.28
Comm    | 1.4772     | 2.9148     | 3.564      |  39.5 | 73.33
Output  | 0.0017107  | 0.003464   | 0.0052497  |   2.0 |  0.09
Modify  | 0.14308    | 0.49589    | 1.88       |  85.7 | 12.48
Other   |            | 0.1435     |            |       |  3.61

Nlocal:        10.0208 ave          43 max           0 min
Histogram: 21 6 9 4 0 2 0 2 2 2
Nghost:        1925.23 ave        2400 max        1337 min
Histogram: 8 0 0 0 24 0 0 0 0 16
Neighs:              0 ave           0 max           0 min
Histogram: 48 0 0 0 0 0 0 0 0 0

Total # of neighbors = 0
Ave neighs/atom = 0
Ave special neighs/atom = 15.567568
Neighbor list builds = 20
Dangerous builds = 0
fix             myat1 all ave/time 1000 10 10000 v_zave v_zdes file simulation_data/abpot/${cpt}.dat
fix             myat1 all ave/time 1000 10 10000 v_zave v_zdes file simulation_data/abpot/2.dat
run             50000
Generated 0 of 1 mixed pair_coeff terms from geometric mixing rule
Per MPI rank memory allocation (min/avg/max) = 13.32 | 13.83 | 14.98 Mbytes
   Step          Temp          E_pair         E_mol          TotEng         Press     
     90000   311.26746      372.18484      18541.382      19358.925     -132.35414    
    100000   296.50112      357.6029       18576.499      19358.333     -603.01997    
    110000   279.52704      383.86745      18535.004      19318.816      116.645      
    120000   291.89721      373.77366      18541.71       19333.127     -11.047605    
    130000   308.8469       361.63796      18567.375      19370.908     -354.733      
    140000   316.92195      375.56205      18548.711      19377.721      16.584988    
Loop time of 20.1028 on 48 procs for 50000 steps with 481 atoms

Performance: 10.745 ns/day, 2.234 hours/ns, 2487.215 timesteps/s, 1.196 Matom-step/s
100.0% CPU use with 48 MPI tasks x 1 OpenMP threads

MPI task timing breakdown:
Section |  min time  |  avg time  |  max time  |%varavg| %total
---------------------------------------------------------------
Pair    | 0.017331   | 0.97154    | 6.6895     | 150.4 |  4.83
Bond    | 0.0054641  | 1.084      | 5.0957     | 138.3 |  5.39
Neigh   | 0.042637   | 0.0466     | 0.050444   |   1.2 |  0.23
Comm    | 6.6232     | 14.803     | 17.953     |  86.7 | 73.64
Output  | 0.0086254  | 0.016128   | 0.023447   |   3.8 |  0.08
Modify  | 0.7272     | 2.4458     | 9.2155     | 190.3 | 12.17
Other   |            | 0.7357     |            |       |  3.66

Nlocal:        10.0208 ave          40 max           0 min
Histogram: 21 4 8 6 1 0 1 1 4 2
Nghost:         1930.1 ave        2409 max        1338 min
Histogram: 8 0 0 0 24 0 0 0 0 16
Neighs:              0 ave           0 max           0 min
Histogram: 48 0 0 0 0 0 0 0 0 0

Total # of neighbors = 0
Ave neighs/atom = 0
Ave special neighs/atom = 15.567568
Neighbor list builds = 80
Dangerous builds = 0
unfix           myat1
next            cpt
jump            SELF loop
variable        zdes equal  -15+0.60*(${cpt}-1)
variable        zdes equal  -15+0.60*(3-1)
variable        zave equal xcm(H2,z)
fix             mytth2 H2 spring tether ${k1} 2.5 2.5 ${zdes} 0
fix             mytth2 H2 spring tether 5.1 2.5 2.5 ${zdes} 0
fix             mytth2 H2 spring tether 5.1 2.5 2.5 -13.8 0
run             10000
Generated 0 of 1 mixed pair_coeff terms from geometric mixing rule
Per MPI rank memory allocation (min/avg/max) = 13.32 | 13.83 | 14.98 Mbytes
   Step          Temp          E_pair         E_mol          TotEng         Press     
    140000   316.92195      375.56205      18548.711      19377.721      16.584988    
    150000   326.39949      393.36205      18528.959      19389.329      536.41974    
Loop time of 4.02572 on 48 procs for 10000 steps with 481 atoms

Performance: 10.731 ns/day, 2.237 hours/ns, 2484.026 timesteps/s, 1.195 Matom-step/s
100.0% CPU use with 48 MPI tasks x 1 OpenMP threads

MPI task timing breakdown:
Section |  min time  |  avg time  |  max time  |%varavg| %total
---------------------------------------------------------------
Pair    | 0.0033724  | 0.19505    | 1.2565     |  66.6 |  4.85
Bond    | 0.0010463  | 0.21883    | 0.99987    |  62.0 |  5.44
Neigh   | 0.010048   | 0.01092    | 0.011898   |   0.5 |  0.27
Comm    | 1.4301     | 2.9623     | 3.5955     |  38.2 | 73.58
Output  | 0.0017148  | 0.003153   | 0.0045961  |   1.6 |  0.08
Modify  | 0.15428    | 0.48302    | 1.8144     |  82.8 | 12.00
Other   |            | 0.1525     |            |       |  3.79

Nlocal:        10.0208 ave          37 max           0 min
Histogram: 21 8 3 5 2 1 0 2 2 4
Nghost:        1939.85 ave        2425 max        1336 min
Histogram: 8 0 0 0 24 0 0 0 0 16
Neighs:              0 ave           0 max           0 min
Histogram: 48 0 0 0 0 0 0 0 0 0

Total # of neighbors = 0
Ave neighs/atom = 0
Ave special neighs/atom = 15.567568
Neighbor list builds = 19
Dangerous builds = 0
fix             myat1 all ave/time 1000 10 10000 v_zave v_zdes file simulation_data/abpot/${cpt}.dat
fix             myat1 all ave/time 1000 10 10000 v_zave v_zdes file simulation_data/abpot/3.dat
run             50000
Generated 0 of 1 mixed pair_coeff terms from geometric mixing rule
Per MPI rank memory allocation (min/avg/max) = 13.32 | 13.84 | 14.98 Mbytes
   Step          Temp          E_pair         E_mol          TotEng         Press     
    150000   326.39949      393.36205      18528.959      19389.329      536.41974    
    160000   283.44566      355.01404      18563.107      19323.672     -470.66161    
    170000   308.3302       375.95006      18542.671      19359.777      14.91288     
    180000   308.915        383.03001      18557.041      19382.063      387.23806    
    190000   311.90073      361.17755      18571.19       19378.631     -379.28135    
    200000   294.35986      369.57595      18538.103      19328.846     -221.30423    
Loop time of 20.0829 on 48 procs for 50000 steps with 481 atoms

Performance: 10.755 ns/day, 2.231 hours/ns, 2489.679 timesteps/s, 1.198 Matom-step/s
100.0% CPU use with 48 MPI tasks x 1 OpenMP threads

MPI task timing breakdown:
Section |  min time  |  avg time  |  max time  |%varavg| %total
---------------------------------------------------------------
Pair    | 0.01706    | 0.98116    | 6.5335     | 150.2 |  4.89
Bond    | 0.0054479  | 1.1017     | 5.0082     | 140.6 |  5.49
Neigh   | 0.038673   | 0.042145   | 0.045649   |   1.1 |  0.21
Comm    | 6.7919     | 14.725     | 17.898     |  85.9 | 73.32
Output  | 0.008581   | 0.015726   | 0.022571   |   3.6 |  0.08
Modify  | 0.75464    | 2.4719     | 9.0515     | 183.8 | 12.31
Other   |            | 0.7452     |            |       |  3.71

Nlocal:        10.0208 ave          38 max           0 min
Histogram: 19 7 7 6 1 0 0 2 4 2
Nghost:         1916.6 ave        2389 max        1335 min
Histogram: 8 0 0 0 24 0 0 0 0 16
Neighs:              0 ave           0 max           0 min
Histogram: 48 0 0 0 0 0 0 0 0 0

Total # of neighbors = 0
Ave neighs/atom = 0
Ave special neighs/atom = 15.567568
Neighbor list builds = 73
Dangerous builds = 0
unfix           myat1
next            cpt
jump            SELF loop
variable        zdes equal  -15+0.60*(${cpt}-1)
variable        zdes equal  -15+0.60*(4-1)
variable        zave equal xcm(H2,z)
fix             mytth2 H2 spring tether ${k1} 2.5 2.5 ${zdes} 0
fix             mytth2 H2 spring tether 5.1 2.5 2.5 ${zdes} 0
fix             mytth2 H2 spring tether 5.1 2.5 2.5 -13.2 0
run             10000
Generated 0 of 1 mixed pair_coeff terms from geometric mixing rule
Per MPI rank memory allocation (min/avg/max) = 13.32 | 13.84 | 14.98 Mbytes
   Step          Temp          E_pair         E_mol          TotEng         Press     
    200000   294.35986      369.57595      18538.103      19328.846     -221.30423    
    210000   290.92134      390.55829      18514.112      19320.917      510.89084    
Loop time of 4.05754 on 48 procs for 10000 steps with 481 atoms

Performance: 10.647 ns/day, 2.254 hours/ns, 2464.550 timesteps/s, 1.185 Matom-step/s
100.0% CPU use with 48 MPI tasks x 1 OpenMP threads

MPI task timing breakdown:
Section |  min time  |  avg time  |  max time  |%varavg| %total
---------------------------------------------------------------
Pair    | 0.0034512  | 0.19715    | 1.2462     |  67.8 |  4.86
Bond    | 0.0010874  | 0.22409    | 1.1192     |  65.3 |  5.52
Neigh   | 0.0062983  | 0.0068795  | 0.0074466  |   0.4 |  0.17
Comm    | 1.4954     | 2.9884     | 3.6432     |  39.5 | 73.65
Output  | 0.0016888  | 0.0030985  | 0.0045287  |   1.7 |  0.08
Modify  | 0.15027    | 0.4898     | 1.995      |  84.4 | 12.07
Other   |            | 0.1481     |            |       |  3.65

Nlocal:        10.0208 ave          37 max           0 min
Histogram: 20 5 7 6 2 0 0 1 3 4
Nghost:        1936.62 ave        2418 max        1337 min
Histogram: 8 0 0 0 24 0 0 0 0 16
Neighs:              0 ave           0 max           0 min
Histogram: 48 0 0 0 0 0 0 0 0 0

Total # of neighbors = 0
Ave neighs/atom = 0
Ave special neighs/atom = 15.567568
Neighbor list builds = 12
Dangerous builds = 0
fix             myat1 all ave/time 1000 10 10000 v_zave v_zdes file simulation_data/abpot/${cpt}.dat
fix             myat1 all ave/time 1000 10 10000 v_zave v_zdes file simulation_data/abpot/4.dat
run             50000
Generated 0 of 1 mixed pair_coeff terms from geometric mixing rule
Per MPI rank memory allocation (min/avg/max) = 13.32 | 13.84 | 14.98 Mbytes
   Step          Temp          E_pair         E_mol          TotEng         Press     
    210000   290.92134      390.55829      18514.112      19320.917      510.89084    
    220000   303.50818      364.12958      18533.589      19331.975     -317.20481    
    230000   294.39758      372.60048      18562.616      19356.437     -28.85378     
    240000   301.47416      380.50949      18547.965      19359.82       98.234898    
    250000   313.4528       380.11664      18528.044      19356.646      197.00214    
    260000   292.78607      363.17682      18547.697      19329.789     -198.95893    
Loop time of 20.0824 on 48 procs for 50000 steps with 481 atoms

Performance: 10.756 ns/day, 2.231 hours/ns, 2489.740 timesteps/s, 1.198 Matom-step/s
100.0% CPU use with 48 MPI tasks x 1 OpenMP threads

MPI task timing breakdown:
Section |  min time  |  avg time  |  max time  |%varavg| %total
---------------------------------------------------------------
Pair    | 0.016998   | 0.96271    | 6.231      | 152.5 |  4.79
Bond    | 0.0053707  | 1.1027     | 5.7243     | 147.3 |  5.49
Neigh   | 0.044265   | 0.048417   | 0.052087   |   1.1 |  0.24
Comm    | 7.2881     | 14.664     | 18.021     |  93.2 | 73.02
Output  | 0.0086667  | 0.015826   | 0.022679   |   3.6 |  0.08
Modify  | 0.74153    | 2.5534     | 10.277     | 198.6 | 12.71
Other   |            | 0.7358     |            |       |  3.66

Nlocal:        10.0208 ave          46 max           0 min
Histogram: 22 7 7 4 1 1 2 1 1 2
Nghost:        1920.73 ave        2397 max        1327 min
Histogram: 8 0 0 0 24 0 0 0 0 16
Neighs:              0 ave           0 max           0 min
Histogram: 48 0 0 0 0 0 0 0 0 0

Total # of neighbors = 0
Ave neighs/atom = 0
Ave special neighs/atom = 15.567568
Neighbor list builds = 84
Dangerous builds = 0
unfix           myat1
next            cpt
jump            SELF loop
variable        zdes equal  -15+0.60*(${cpt}-1)
variable        zdes equal  -15+0.60*(5-1)
variable        zave equal xcm(H2,z)
fix             mytth2 H2 spring tether ${k1} 2.5 2.5 ${zdes} 0
fix             mytth2 H2 spring tether 5.1 2.5 2.5 ${zdes} 0
fix             mytth2 H2 spring tether 5.1 2.5 2.5 -12.6 0
run             10000
Generated 0 of 1 mixed pair_coeff terms from geometric mixing rule
Per MPI rank memory allocation (min/avg/max) = 13.32 | 13.85 | 14.98 Mbytes
   Step          Temp          E_pair         E_mol          TotEng         Press     
    260000   292.78607      363.17682      18547.697      19329.789     -198.95893    
    270000   278.30679      376.01382      18558.464      19332.676     -27.012659    
Loop time of 4.09237 on 48 procs for 10000 steps with 481 atoms

Performance: 10.556 ns/day, 2.274 hours/ns, 2443.570 timesteps/s, 1.175 Matom-step/s
100.0% CPU use with 48 MPI tasks x 1 OpenMP threads

MPI task timing breakdown:
Section |  min time  |  avg time  |  max time  |%varavg| %total
---------------------------------------------------------------
Pair    | 0.0034144  | 0.18928    | 1.294      |  68.1 |  4.63
Bond    | 0.0010655  | 0.21793    | 1.0347     |  65.4 |  5.33
Neigh   | 0.015418   | 0.016834   | 0.017931   |   0.6 |  0.41
Comm    | 1.4366     | 2.9935     | 3.6879     |  43.3 | 73.15
Output  | 0.0017822  | 0.0031838  | 0.0045896  |   1.6 |  0.08
Modify  | 0.14939    | 0.52438    | 2.1795     |  95.2 | 12.81
Other   |            | 0.1473     |            |       |  3.60

Nlocal:        10.0208 ave          41 max           0 min
Histogram: 21 4 10 5 0 0 3 0 3 2
Nghost:        1922.35 ave        2403 max        1332 min
Histogram: 8 0 0 0 24 0 0 0 0 16
Neighs:              0 ave           0 max           0 min
Histogram: 48 0 0 0 0 0 0 0 0 0

Total # of neighbors = 0
Ave neighs/atom = 0
Ave special neighs/atom = 15.567568
Neighbor list builds = 29
Dangerous builds = 0
fix             myat1 all ave/time 1000 10 10000 v_zave v_zdes file simulation_data/abpot/${cpt}.dat
fix             myat1 all ave/time 1000 10 10000 v_zave v_zdes file simulation_data/abpot/5.dat
run             50000
Generated 0 of 1 mixed pair_coeff terms from geometric mixing rule
Per MPI rank memory allocation (min/avg/max) = 13.32 | 13.85 | 14.98 Mbytes
   Step          Temp          E_pair         E_mol          TotEng         Press     
    270000   278.30679      376.01382      18558.464      19332.676     -27.012659    
    280000   297.38905      388.72536      18527.977      19342.204      237.73345    
    290000   300.304        369.0408       18571.445      19370.158     -282.85006    
    300000   296.40261      360.35295      18576.722      19361.165     -455.71157    
    310000   277.52837      385.56211      18544.607      19327.254      250.83381    
    320000   278.06261      377.75747      18535.029      19310.635      143.37141    
Loop time of 20.4947 on 48 procs for 50000 steps with 481 atoms

Performance: 10.539 ns/day, 2.277 hours/ns, 2439.658 timesteps/s, 1.173 Matom-step/s
100.0% CPU use with 48 MPI tasks x 1 OpenMP threads

MPI task timing breakdown:
Section |  min time  |  avg time  |  max time  |%varavg| %total
---------------------------------------------------------------
Pair    | 0.017113   | 0.91398    | 6.6183     | 149.9 |  4.46
Bond    | 0.005334   | 1.0548     | 5.3091     | 141.8 |  5.15
Neigh   | 0.043057   | 0.047121   | 0.050658   |   1.1 |  0.23
Comm    | 6.9954     | 15.087     | 18.402     |  94.2 | 73.62
Output  | 0.0087272  | 0.015578   | 0.022233   |   3.5 |  0.08
Modify  | 0.71299    | 2.6609     | 10.919     | 209.8 | 12.98
Other   |            | 0.7148     |            |       |  3.49

Nlocal:        10.0208 ave          37 max           0 min
Histogram: 21 5 8 3 2 1 0 1 3 4
Nghost:        1937.35 ave        2421 max        1336 min
Histogram: 8 0 0 0 24 0 0 0 0 16
Neighs:              0 ave           0 max           0 min
Histogram: 48 0 0 0 0 0 0 0 0 0

Total # of neighbors = 0
Ave neighs/atom = 0
Ave special neighs/atom = 15.567568
Neighbor list builds = 81
Dangerous builds = 0
unfix           myat1
next            cpt
jump            SELF loop
variable        zdes equal  -15+0.60*(${cpt}-1)
variable        zdes equal  -15+0.60*(6-1)
variable        zave equal xcm(H2,z)
fix             mytth2 H2 spring tether ${k1} 2.5 2.5 ${zdes} 0
fix             mytth2 H2 spring tether 5.1 2.5 2.5 ${zdes} 0
fix             mytth2 H2 spring tether 5.1 2.5 2.5 -12 0
run             10000
Generated 0 of 1 mixed pair_coeff terms from geometric mixing rule
Per MPI rank memory allocation (min/avg/max) = 13.32 | 13.85 | 14.98 Mbytes
   Step          Temp          E_pair         E_mol          TotEng         Press     
    320000   278.06261      377.75747      18535.029      19310.635      143.37141    
    330000   293.87086      359.468        18553.98       19333.916     -497.18075    
Loop time of 4.14206 on 48 procs for 10000 steps with 481 atoms

Performance: 10.430 ns/day, 2.301 hours/ns, 2414.256 timesteps/s, 1.161 Matom-step/s
99.9% CPU use with 48 MPI tasks x 1 OpenMP threads

MPI task timing breakdown:
Section |  min time  |  avg time  |  max time  |%varavg| %total
---------------------------------------------------------------
Pair    | 0.0034217  | 0.17747    | 1.2951     |  68.1 |  4.28
Bond    | 0.0010524  | 0.20549    | 1.0875     |  62.8 |  4.96
Neigh   | 0.004989   | 0.0055657  | 0.0060143  |   0.4 |  0.13
Comm    | 1.4868     | 3.0574     | 3.7687     |  43.7 | 73.81
Output  | 0.0016828  | 0.0029829  | 0.0042945  |   1.5 |  0.07
Modify  | 0.13619    | 0.55918    | 2.2692     |  97.4 | 13.50
Other   |            | 0.134      |            |       |  3.24

Nlocal:        10.0208 ave          40 max           0 min
Histogram: 20 6 6 6 2 0 1 1 4 2
Nghost:        1927.73 ave        2408 max        1334 min
Histogram: 8 0 0 0 24 0 0 0 0 16
Neighs:              0 ave           0 max           0 min
Histogram: 48 0 0 0 0 0 0 0 0 0

Total # of neighbors = 0
Ave neighs/atom = 0
Ave special neighs/atom = 15.567568
Neighbor list builds = 10
Dangerous builds = 0
fix             myat1 all ave/time 1000 10 10000 v_zave v_zdes file simulation_data/abpot/${cpt}.dat
fix             myat1 all ave/time 1000 10 10000 v_zave v_zdes file simulation_data/abpot/6.dat
run             50000
Generated 0 of 1 mixed pair_coeff terms from geometric mixing rule
Per MPI rank memory allocation (min/avg/max) = 13.32 | 13.85 | 14.98 Mbytes
   Step          Temp          E_pair         E_mol          TotEng         Press     
    330000   293.87086      359.468        18553.98       19333.916     -497.18075    
    340000   322.34983      368.88124      18533.142      19363.237     -17.248884    
    350000   306.7212       378.87279      18553.726      19371.452      73.006451    
    360000   295.26301      371.40828      18548.604      19342.471     -46.037973    
    370000   302.57254      366.11594      18548.332      19347.366     -320.14929    
    380000   300.15322      378.96485      18531.783      19340.203      190.74654    
Loop time of 20.6376 on 48 procs for 50000 steps with 481 atoms

Performance: 10.466 ns/day, 2.293 hours/ns, 2422.757 timesteps/s, 1.165 Matom-step/s
100.0% CPU use with 48 MPI tasks x 1 OpenMP threads

MPI task timing breakdown:
Section |  min time  |  avg time  |  max time  |%varavg| %total
---------------------------------------------------------------
Pair    | 0.018383   | 0.88373    | 6.43       | 148.8 |  4.28
Bond    | 0.005521   | 1.0279     | 5.1598     | 138.2 |  4.98
Neigh   | 0.027792   | 0.030771   | 0.03284    |   0.9 |  0.15
Comm    | 7.4455     | 15.294     | 18.704     |  91.0 | 74.11
Output  | 0.0083754  | 0.014964   | 0.021374   |   3.5 |  0.07
Modify  | 0.6919     | 2.6952     | 10.438     | 204.2 | 13.06
Other   |            | 0.6908     |            |       |  3.35

Nlocal:        10.0208 ave          50 max           0 min
Histogram: 20 10 8 3 0 3 1 0 2 1
Nghost:        1927.98 ave        2403 max        1329 min
Histogram: 8 0 0 0 24 0 0 0 0 16
Neighs:              0 ave           0 max           0 min
Histogram: 48 0 0 0 0 0 0 0 0 0

Total # of neighbors = 0
Ave neighs/atom = 0
Ave special neighs/atom = 15.567568
Neighbor list builds = 55
Dangerous builds = 0
unfix           myat1
next            cpt
jump            SELF loop
variable        zdes equal  -15+0.60*(${cpt}-1)
variable        zdes equal  -15+0.60*(7-1)
variable        zave equal xcm(H2,z)
fix             mytth2 H2 spring tether ${k1} 2.5 2.5 ${zdes} 0
fix             mytth2 H2 spring tether 5.1 2.5 2.5 ${zdes} 0
fix             mytth2 H2 spring tether 5.1 2.5 2.5 -11.4 0
run             10000
Generated 0 of 1 mixed pair_coeff terms from geometric mixing rule
Per MPI rank memory allocation (min/avg/max) = 13.32 | 13.86 | 14.98 Mbytes
   Step          Temp          E_pair         E_mol          TotEng         Press     
    380000   300.15322      378.96485      18531.783      19340.203      190.74654    
    390000   305.92044      371.07162      18524.389      19333.169     -54.179683    
Loop time of 4.37157 on 48 procs for 10000 steps with 481 atoms

Performance: 9.882 ns/day, 2.429 hours/ns, 2287.508 timesteps/s, 1.100 Matom-step/s
100.0% CPU use with 48 MPI tasks x 1 OpenMP threads

MPI task timing breakdown:
Section |  min time  |  avg time  |  max time  |%varavg| %total
---------------------------------------------------------------
Pair    | 0.0034382  | 0.17579    | 1.296      |  67.3 |  4.02
Bond    | 0.0010844  | 0.20434    | 1.0692     |  61.9 |  4.67
Neigh   | 0.0063401  | 0.0069367  | 0.0073915  |   0.4 |  0.16
Comm    | 1.7121     | 3.266      | 3.9719     |  43.3 | 74.71
Output  | 0.0017828  | 0.0030797  | 0.0043915  |   1.5 |  0.07
Modify  | 0.14108    | 0.57456    | 2.3774     | 100.6 | 13.14
Other   |            | 0.1409     |            |       |  3.22

Nlocal:        10.0208 ave          44 max           0 min
Histogram: 21 7 8 4 0 2 1 2 1 2
Nghost:        1929.23 ave        2408 max        1329 min
Histogram: 8 0 0 0 24 0 0 0 0 16
Neighs:              0 ave           0 max           0 min
Histogram: 48 0 0 0 0 0 0 0 0 0

Total # of neighbors = 0
Ave neighs/atom = 0
Ave special neighs/atom = 15.567568
Neighbor list builds = 12
Dangerous builds = 0
fix             myat1 all ave/time 1000 10 10000 v_zave v_zdes file simulation_data/abpot/${cpt}.dat
fix             myat1 all ave/time 1000 10 10000 v_zave v_zdes file simulation_data/abpot/7.dat
run             50000
Generated 0 of 1 mixed pair_coeff terms from geometric mixing rule
Per MPI rank memory allocation (min/avg/max) = 13.32 | 13.86 | 14.98 Mbytes
   Step          Temp          E_pair         E_mol          TotEng         Press     
    390000   305.92044      371.07162      18524.389      19333.169     -54.179683    
    400000   312.49903      370.38399      18542.876      19360.38      -20.463445    
    410000   338.11011      372.67847      18540.628      19397.071     -16.67279     
    420000   303.07573      378.23343      18537.714      19349.585      29.479741    
    430000   305.17         374.06245      18514.385      19325.081     -122.71459    
    440000   300.71141      369.69574      18513.35       19313.3       -88.006735    
Loop time of 20.9986 on 48 procs for 50000 steps with 481 atoms

Performance: 10.286 ns/day, 2.333 hours/ns, 2381.115 timesteps/s, 1.145 Matom-step/s
100.0% CPU use with 48 MPI tasks x 1 OpenMP threads

MPI task timing breakdown:
Section |  min time  |  avg time  |  max time  |%varavg| %total
---------------------------------------------------------------
Pair    | 0.017181   | 0.8873     | 5.8205     | 147.9 |  4.23
Bond    | 0.0053849  | 1.0374     | 5.44       | 140.7 |  4.94
Neigh   | 0.038235   | 0.042083   | 0.044833   |   1.0 |  0.20
Comm    | 8.2681     | 15.583     | 18.986     |  90.9 | 74.21
Output  | 0.0086423  | 0.015111   | 0.021423   |   3.4 |  0.07
Modify  | 0.72892    | 2.7356     | 10.683     | 203.4 | 13.03
Other   |            | 0.6982     |            |       |  3.33

Nlocal:        10.0208 ave          47 max           0 min
Histogram: 20 8 10 1 3 1 0 3 1 1
Nghost:         1929.1 ave        2416 max        1326 min
Histogram: 8 0 0 0 24 0 0 0 0 16
Neighs:              0 ave           0 max           0 min
Histogram: 48 0 0 0 0 0 0 0 0 0

Total # of neighbors = 0
Ave neighs/atom = 0
Ave special neighs/atom = 15.567568
Neighbor list builds = 75
Dangerous builds = 0
unfix           myat1
next            cpt
jump            SELF loop
variable        zdes equal  -15+0.60*(${cpt}-1)
variable        zdes equal  -15+0.60*(8-1)
variable        zave equal xcm(H2,z)
fix             mytth2 H2 spring tether ${k1} 2.5 2.5 ${zdes} 0
fix             mytth2 H2 spring tether 5.1 2.5 2.5 ${zdes} 0
fix             mytth2 H2 spring tether 5.1 2.5 2.5 -10.8 0
run             10000
Generated 0 of 1 mixed pair_coeff terms from geometric mixing rule
Per MPI rank memory allocation (min/avg/max) = 13.32 | 13.86 | 14.98 Mbytes
   Step          Temp          E_pair         E_mol          TotEng         Press     
    440000   300.71141      369.69574      18513.35       19313.3       -88.006735    
    450000   294.7129       379.26674      18506.838      19307.777      97.856218    
Loop time of 3.61928 on 48 procs for 10000 steps with 481 atoms

Performance: 11.936 ns/day, 2.011 hours/ns, 2762.983 timesteps/s, 1.329 Matom-step/s
100.0% CPU use with 48 MPI tasks x 1 OpenMP threads

MPI task timing breakdown:
Section |  min time  |  avg time  |  max time  |%varavg| %total
---------------------------------------------------------------
Pair    | 0.0036569  | 0.15659    | 0.8965     |  56.2 |  4.33
Bond    | 0.0010798  | 0.19219    | 0.93313    |  58.0 |  5.31
Neigh   | 0.0071064  | 0.0081666  | 0.0089505  |   0.7 |  0.23
Comm    | 1.557      | 2.6848     | 3.2606     |  34.2 | 74.18
Output  | 0.0013965  | 0.0026586  | 0.0039512  |   1.6 |  0.07
Modify  | 0.12993    | 0.441      | 1.7509     |  78.7 | 12.18
Other   |            | 0.1339     |            |       |  3.70

Nlocal:        10.0208 ave          46 max           0 min
Histogram: 21 8 8 3 2 1 0 2 2 1
Nghost:        1928.85 ave        2414 max        1327 min
Histogram: 8 0 0 0 24 0 0 0 0 16
Neighs:              0 ave           0 max           0 min
Histogram: 48 0 0 0 0 0 0 0 0 0

Total # of neighbors = 0
Ave neighs/atom = 0
Ave special neighs/atom = 15.567568
Neighbor list builds = 20
Dangerous builds = 0
fix             myat1 all ave/time 1000 10 10000 v_zave v_zdes file simulation_data/abpot/${cpt}.dat
fix             myat1 all ave/time 1000 10 10000 v_zave v_zdes file simulation_data/abpot/8.dat
run             50000
Generated 0 of 1 mixed pair_coeff terms from geometric mixing rule
Per MPI rank memory allocation (min/avg/max) = 13.32 | 13.86 | 14.98 Mbytes
   Step          Temp          E_pair         E_mol          TotEng         Press     
    450000   294.7129       379.26674      18506.838      19307.777      97.856218    
    460000   314.45725      365.78538      18511.084      19326.791     -126.14508    
    470000   306.27477      369.89141      18532.906      19341.012     -136.37333    
    480000   304.43399      380.60621      18513.584      19329.771      185.81292    
    490000   291.05281      371.70868      18501.723      19289.867     -44.134112    
    500000   290.22206      373.66367      18542.422      19331.332      0.16824323   
Loop time of 16.2572 on 48 procs for 50000 steps with 481 atoms

Performance: 13.286 ns/day, 1.806 hours/ns, 3075.562 timesteps/s, 1.479 Matom-step/s
100.0% CPU use with 48 MPI tasks x 1 OpenMP threads

MPI task timing breakdown:
Section |  min time  |  avg time  |  max time  |%varavg| %total
---------------------------------------------------------------
Pair    | 0.017914   | 0.75556    | 4.023      | 120.6 |  4.65
Bond    | 0.0053335  | 0.94047    | 4.3637     | 127.1 |  5.78
Neigh   | 0.026517   | 0.031042   | 0.034223   |   1.4 |  0.19
Comm    | 6.5795     | 12.055     | 14.596     |  71.1 | 74.15
Output  | 0.0064559  | 0.012212   | 0.017863   |   3.3 |  0.08
Modify  | 0.63619    | 1.8137     | 7.0926     | 158.3 | 11.16
Other   |            | 0.6489     |            |       |  3.99

Nlocal:        10.0208 ave          40 max           0 min
Histogram: 21 6 6 4 3 0 1 2 3 2
Nghost:        1938.48 ave        2423 max        1335 min
Histogram: 8 0 0 0 24 0 0 0 0 16
Neighs:              0 ave           0 max           0 min
Histogram: 48 0 0 0 0 0 0 0 0 0

Total # of neighbors = 0
Ave neighs/atom = 0
Ave special neighs/atom = 15.567568
Neighbor list builds = 80
Dangerous builds = 0
unfix           myat1
next            cpt
jump            SELF loop
variable        zdes equal  -15+0.60*(${cpt}-1)
variable        zdes equal  -15+0.60*(9-1)
variable        zave equal xcm(H2,z)
fix             mytth2 H2 spring tether ${k1} 2.5 2.5 ${zdes} 0
fix             mytth2 H2 spring tether 5.1 2.5 2.5 ${zdes} 0
fix             mytth2 H2 spring tether 5.1 2.5 2.5 -10.2 0
run             10000
Generated 0 of 1 mixed pair_coeff terms from geometric mixing rule
Per MPI rank memory allocation (min/avg/max) = 13.32 | 13.86 | 14.98 Mbytes
   Step          Temp          E_pair         E_mol          TotEng         Press     
    500000   290.22206      373.66367      18542.422      19331.332      0.16824323   
    510000   306.58567      375.37485      18544.186      19358.22      -4.5762439    
Loop time of 3.2444 on 48 procs for 10000 steps with 481 atoms

Performance: 13.315 ns/day, 1.802 hours/ns, 3082.237 timesteps/s, 1.483 Matom-step/s
100.0% CPU use with 48 MPI tasks x 1 OpenMP threads

MPI task timing breakdown:
Section |  min time  |  avg time  |  max time  |%varavg| %total
---------------------------------------------------------------
Pair    | 0.0032408  | 0.15173    | 0.76844    |  53.5 |  4.68
Bond    | 0.0010638  | 0.18858    | 0.86071    |  56.4 |  5.81
Neigh   | 0.0059881  | 0.0070225  | 0.0077791  |   0.6 |  0.22
Comm    | 1.3624     | 2.4044     | 2.9193     |  31.5 | 74.11
Output  | 0.0012545  | 0.0023233  | 0.0034188  |   1.4 |  0.07
Modify  | 0.1214     | 0.36082    | 1.401      |  70.3 | 11.12
Other   |            | 0.1295     |            |       |  3.99

Nlocal:        10.0208 ave          44 max           0 min
Histogram: 21 5 11 2 1 2 2 0 1 3
Nghost:        1927.85 ave        2405 max        1329 min
Histogram: 8 0 0 0 24 0 0 0 0 16
Neighs:              0 ave           0 max           0 min
Histogram: 48 0 0 0 0 0 0 0 0 0

Total # of neighbors = 0
Ave neighs/atom = 0
Ave special neighs/atom = 15.567568
Neighbor list builds = 19
Dangerous builds = 0
fix             myat1 all ave/time 1000 10 10000 v_zave v_zdes file simulation_data/abpot/${cpt}.dat
fix             myat1 all ave/time 1000 10 10000 v_zave v_zdes file simulation_data/abpot/9.dat
run             50000
Generated 0 of 1 mixed pair_coeff terms from geometric mixing rule
Per MPI rank memory allocation (min/avg/max) = 13.32 | 13.86 | 14.98 Mbytes
   Step          Temp          E_pair         E_mol          TotEng         Press     
    510000   306.58567      375.37485      18544.186      19358.22      -4.5762439    
    520000   304.48707      369.61047      18540.144      19345.411     -37.189421    
    530000   296.21473      382.86165      18547.878      19354.56       35.378656    
    540000   301.33491      379.12629      18535.365      19345.638     -30.23547     
    550000   294.25048      373.40293      18537.172      19331.585     -155.10511    
    560000   293.53193      365.64326      18531.92       19317.546     -259.75156    
Loop time of 16.1277 on 48 procs for 50000 steps with 481 atoms

Performance: 13.393 ns/day, 1.792 hours/ns, 3100.256 timesteps/s, 1.491 Matom-step/s
100.0% CPU use with 48 MPI tasks x 1 OpenMP threads

MPI task timing breakdown:
Section |  min time  |  avg time  |  max time  |%varavg| %total
---------------------------------------------------------------
Pair    | 0.016459   | 0.74202    | 3.7771     | 121.1 |  4.60
Bond    | 0.0053425  | 0.93008    | 4.1507     | 126.7 |  5.77
Neigh   | 0.025331   | 0.028681   | 0.031139   |   1.0 |  0.18
Comm    | 7.0653     | 11.985     | 14.589     |  73.1 | 74.31
Output  | 0.006169   | 0.011897   | 0.017493   |   3.4 |  0.07
Modify  | 0.57365    | 1.8359     | 7.1834     | 166.1 | 11.38
Other   |            | 0.5942     |            |       |  3.68

Nlocal:        10.0208 ave          47 max           0 min
Histogram: 22 6 9 3 1 0 3 2 1 1
Nghost:         1932.6 ave        2416 max        1335 min
Histogram: 8 0 0 0 24 0 0 0 0 16
Neighs:              0 ave           0 max           0 min
Histogram: 48 0 0 0 0 0 0 0 0 0

Total # of neighbors = 0
Ave neighs/atom = 0
Ave special neighs/atom = 15.567568
Neighbor list builds = 74
Dangerous builds = 0
unfix           myat1
next            cpt
jump            SELF loop
variable        zdes equal  -15+0.60*(${cpt}-1)
variable        zdes equal  -15+0.60*(10-1)
variable        zave equal xcm(H2,z)
fix             mytth2 H2 spring tether ${k1} 2.5 2.5 ${zdes} 0
fix             mytth2 H2 spring tether 5.1 2.5 2.5 ${zdes} 0
fix             mytth2 H2 spring tether 5.1 2.5 2.5 -9.6 0
run             10000
Generated 0 of 1 mixed pair_coeff terms from geometric mixing rule
Per MPI rank memory allocation (min/avg/max) = 13.32 | 13.86 | 14.98 Mbytes
   Step          Temp          E_pair         E_mol          TotEng         Press     
    560000   293.53193      365.64326      18531.92       19317.546     -259.75156    
    570000   308.63887      374.06332      18536.176      19351.836     -94.011005    
Loop time of 3.34213 on 48 procs for 10000 steps with 481 atoms

Performance: 12.926 ns/day, 1.857 hours/ns, 2992.106 timesteps/s, 1.439 Matom-step/s
100.0% CPU use with 48 MPI tasks x 1 OpenMP threads

MPI task timing breakdown:
Section |  min time  |  avg time  |  max time  |%varavg| %total
---------------------------------------------------------------
Pair    | 0.0032682  | 0.14793    | 0.77419    |  54.8 |  4.43
Bond    | 0.0010636  | 0.18604    | 0.85649    |  57.4 |  5.57
Neigh   | 0.0057976  | 0.0063387  | 0.0068624  |   0.4 |  0.19
Comm    | 1.4731     | 2.4856     | 3.0286     |  34.4 | 74.37
Output  | 0.0012884  | 0.0023594  | 0.0034528  |   1.4 |  0.07
Modify  | 0.11872    | 0.396      | 1.6006     |  79.9 | 11.85
Other   |            | 0.1178     |            |       |  3.53

Nlocal:        10.0208 ave          52 max           0 min
Histogram: 23 9 8 1 0 3 0 2 1 1
Nghost:         1930.6 ave        2410 max        1331 min
Histogram: 8 0 0 0 24 0 0 0 0 16
Neighs:              0 ave           0 max           0 min
Histogram: 48 0 0 0 0 0 0 0 0 0

Total # of neighbors = 0
Ave neighs/atom = 0
Ave special neighs/atom = 15.567568
Neighbor list builds = 16
Dangerous builds = 0
fix             myat1 all ave/time 1000 10 10000 v_zave v_zdes file simulation_data/abpot/${cpt}.dat
fix             myat1 all ave/time 1000 10 10000 v_zave v_zdes file simulation_data/abpot/10.dat
run             50000
Generated 0 of 1 mixed pair_coeff terms from geometric mixing rule
Per MPI rank memory allocation (min/avg/max) = 13.32 | 13.86 | 14.98 Mbytes
   Step          Temp          E_pair         E_mol          TotEng         Press     
    570000   308.63887      374.06332      18536.176      19351.836     -94.011005    
    580000   308.8292       368.90966      18561.993      19372.772     -161.55235    
    590000   296.9551       380.42037      18559.428      19364.728      57.498357    
    600000   282.12371      370.20142      18514.724      19288.585     -217.74947    
    610000   294.10722      368.78817      18529.618      19319.212     -110.45874    
    620000   284.86147      372.84057      18559.516      19339.933     -146.77907    
Loop time of 16.5033 on 48 procs for 50000 steps with 481 atoms

Performance: 13.088 ns/day, 1.834 hours/ns, 3029.698 timesteps/s, 1.457 Matom-step/s
100.0% CPU use with 48 MPI tasks x 1 OpenMP threads

MPI task timing breakdown:
Section |  min time  |  avg time  |  max time  |%varavg| %total
---------------------------------------------------------------
Pair    | 0.016418   | 0.73884    | 3.9158     | 122.4 |  4.48
Bond    | 0.0054174  | 0.92508    | 4.1962     | 127.9 |  5.61
Neigh   | 0.019108   | 0.020871   | 0.02235    |   0.7 |  0.13
Comm    | 7.2376     | 12.286     | 15         |  75.4 | 74.44
Output  | 0.0062438  | 0.011744   | 0.017166   |   3.2 |  0.07
Modify  | 0.57081    | 1.9431     | 7.6962     | 175.3 | 11.77
Other   |            | 0.5781     |            |       |  3.50

Nlocal:        10.0208 ave          41 max           0 min
Histogram: 21 6 10 2 1 0 1 2 3 2
Nghost:         1927.6 ave        2402 max        1332 min
Histogram: 8 0 0 0 24 0 0 0 0 16
Neighs:              0 ave           0 max           0 min
Histogram: 48 0 0 0 0 0 0 0 0 0

Total # of neighbors = 0
Ave neighs/atom = 0
Ave special neighs/atom = 15.567568
Neighbor list builds = 52
Dangerous builds = 0
unfix           myat1
next            cpt
jump            SELF loop
variable        zdes equal  -15+0.60*(${cpt}-1)
variable        zdes equal  -15+0.60*(11-1)
variable        zave equal xcm(H2,z)
fix             mytth2 H2 spring tether ${k1} 2.5 2.5 ${zdes} 0
fix             mytth2 H2 spring tether 5.1 2.5 2.5 ${zdes} 0
fix             mytth2 H2 spring tether 5.1 2.5 2.5 -9 0
run             10000
Generated 0 of 1 mixed pair_coeff terms from geometric mixing rule
Per MPI rank memory allocation (min/avg/max) = 13.32 | 13.86 | 14.98 Mbytes
   Step          Temp          E_pair         E_mol          TotEng         Press     
    620000   284.86147      372.84057      18559.516      19339.933     -146.77907    
    630000   293.08257      390.21576      18514.62       19324.175      42.732937    
Loop time of 3.47706 on 48 procs for 10000 steps with 481 atoms

Performance: 12.424 ns/day, 1.932 hours/ns, 2875.996 timesteps/s, 1.383 Matom-step/s
100.0% CPU use with 48 MPI tasks x 1 OpenMP threads

MPI task timing breakdown:
Section |  min time  |  avg time  |  max time  |%varavg| %total
---------------------------------------------------------------
Pair    | 0.0033322  | 0.14878    | 0.84856    |  55.6 |  4.28
Bond    | 0.0010612  | 0.18507    | 0.85988    |  57.5 |  5.32
Neigh   | 0.0047561  | 0.0052212  | 0.0055901  |   0.3 |  0.15
Comm    | 1.5389     | 2.5887     | 3.1595     |  35.2 | 74.45
Output  | 0.0012364  | 0.0022938  | 0.0033665  |   1.4 |  0.07
Modify  | 0.11699    | 0.4316     | 1.704      |  83.6 | 12.41
Other   |            | 0.1154     |            |       |  3.32

Nlocal:        10.0208 ave          41 max           0 min
Histogram: 22 3 10 5 0 1 0 2 3 2
Nghost:         1928.6 ave        2412 max        1335 min
Histogram: 8 0 0 0 24 0 0 0 0 16
Neighs:              0 ave           0 max           0 min
Histogram: 48 0 0 0 0 0 0 0 0 0

Total # of neighbors = 0
Ave neighs/atom = 0
Ave special neighs/atom = 15.567568
Neighbor list builds = 12
Dangerous builds = 0
fix             myat1 all ave/time 1000 10 10000 v_zave v_zdes file simulation_data/abpot/${cpt}.dat
fix             myat1 all ave/time 1000 10 10000 v_zave v_zdes file simulation_data/abpot/11.dat
run             50000
Generated 0 of 1 mixed pair_coeff terms from geometric mixing rule
Per MPI rank memory allocation (min/avg/max) = 13.32 | 13.86 | 14.98 Mbytes
   Step          Temp          E_pair         E_mol          TotEng         Press     
    630000   293.08257      390.21576      18514.62       19324.175      42.732937    
    640000   308.51141      391.7684       18506.375      19339.559     -31.99014     
    650000   319.99617      391.68894      18529.097      19378.633      145.17805    
    660000   288.95998      390.26727      18555.615      19359.323     -79.338035    
    670000   302.94358      392.18698      18513.049      19338.684     -100.576      
    680000   296.90281      396.87619      18505.509      19327.191      99.529781    
Loop time of 16.6404 on 48 procs for 50000 steps with 481 atoms

Performance: 12.980 ns/day, 1.849 hours/ns, 3004.732 timesteps/s, 1.445 Matom-step/s
100.0% CPU use with 48 MPI tasks x 1 OpenMP threads

MPI task timing breakdown:
Section |  min time  |  avg time  |  max time  |%varavg| %total
---------------------------------------------------------------
Pair    | 0.016608   | 0.74661    | 4.1442     | 124.7 |  4.49
Bond    | 0.0053498  | 0.92528    | 3.8505     | 126.2 |  5.56
Neigh   | 0.021927   | 0.023951   | 0.025705   |   0.7 |  0.14
Comm    | 7.5401     | 12.387     | 15.16      |  76.7 | 74.44
Output  | 0.0063392  | 0.011756   | 0.01709    |   3.2 |  0.07
Modify  | 0.57113    | 1.9691     | 7.8316     | 179.4 | 11.83
Other   |            | 0.5766     |            |       |  3.47

Nlocal:        10.0208 ave          56 max           0 min
Histogram: 21 11 9 2 0 1 0 3 0 1
Nghost:        1930.85 ave        2408 max        1317 min
Histogram: 8 0 0 0 24 0 0 0 0 16
Neighs:              0 ave           0 max           0 min
Histogram: 48 0 0 0 0 0 0 0 0 0

Total # of neighbors = 0
Ave neighs/atom = 0
Ave special neighs/atom = 15.567568
Neighbor list builds = 58
Dangerous builds = 0
unfix           myat1
next            cpt
jump            SELF loop
variable        zdes equal  -15+0.60*(${cpt}-1)
variable        zdes equal  -15+0.60*(12-1)
variable        zave equal xcm(H2,z)
fix             mytth2 H2 spring tether ${k1} 2.5 2.5 ${zdes} 0
fix             mytth2 H2 spring tether 5.1 2.5 2.5 ${zdes} 0
fix             mytth2 H2 spring tether 5.1 2.5 2.5 -8.4 0
run             10000
Generated 0 of 1 mixed pair_coeff terms from geometric mixing rule
Per MPI rank memory allocation (min/avg/max) = 13.32 | 13.86 | 14.98 Mbytes
   Step          Temp          E_pair         E_mol          TotEng         Press     
    680000   296.90281      396.87619      18505.509      19327.191      99.529781    
    690000   299.89663      392.35321      18540.393      19361.835     -51.814678    
Loop time of 3.3299 on 48 procs for 10000 steps with 481 atoms

Performance: 12.973 ns/day, 1.850 hours/ns, 3003.091 timesteps/s, 1.444 Matom-step/s
100.0% CPU use with 48 MPI tasks x 1 OpenMP threads

MPI task timing breakdown:
Section |  min time  |  avg time  |  max time  |%varavg| %total
---------------------------------------------------------------
Pair    | 0.0033023  | 0.14897    | 0.81163    |  55.6 |  4.47
Bond    | 0.0010672  | 0.18459    | 0.7375     |  56.0 |  5.54
Neigh   | 0.0055902  | 0.0061355  | 0.006595   |   0.4 |  0.18
Comm    | 1.586      | 2.4689     | 3.0047     |  34.1 | 74.14
Output  | 0.0012448  | 0.0022947  | 0.0036123  |   1.4 |  0.07
Modify  | 0.11177    | 0.40292    | 1.6106     |  80.0 | 12.10
Other   |            | 0.116      |            |       |  3.48

Nlocal:        10.0208 ave          52 max           0 min
Histogram: 24 6 8 3 1 2 1 1 1 1
Nghost:         1929.6 ave        2418 max        1321 min
Histogram: 8 0 0 0 24 0 0 0 0 16
Neighs:              0 ave           0 max           0 min
Histogram: 48 0 0 0 0 0 0 0 0 0

Total # of neighbors = 0
Ave neighs/atom = 0
Ave special neighs/atom = 15.567568
Neighbor list builds = 15
Dangerous builds = 0
fix             myat1 all ave/time 1000 10 10000 v_zave v_zdes file simulation_data/abpot/${cpt}.dat
fix             myat1 all ave/time 1000 10 10000 v_zave v_zdes file simulation_data/abpot/12.dat
run             50000
Generated 0 of 1 mixed pair_coeff terms from geometric mixing rule
Per MPI rank memory allocation (min/avg/max) = 13.32 | 13.86 | 14.98 Mbytes
   Step          Temp          E_pair         E_mol          TotEng         Press     
    690000   299.89663      392.35321      18540.393      19361.835     -51.814678    
    700000   295.16171      385.88019      18558.84       19367.034     -216.11914    
    710000   287.42481      397.45533      18528.902      19337.601     -66.497996    
    720000   289.76         397.53022      18534.109      19346.225      26.794438    
    730000   307.15083      381.97424      18527.602      19349.044     -311.6681     
    740000   300.07232      395.23756      18541.473      19366.051     -28.425223    
Loop time of 17.0452 on 48 procs for 50000 steps with 481 atoms

Performance: 12.672 ns/day, 1.894 hours/ns, 2933.383 timesteps/s, 1.411 Matom-step/s
100.0% CPU use with 48 MPI tasks x 1 OpenMP threads

MPI task timing breakdown:
Section |  min time  |  avg time  |  max time  |%varavg| %total
---------------------------------------------------------------
Pair    | 0.016798   | 0.74446    | 4.252      | 125.5 |  4.37
Bond    | 0.0053179  | 0.92303    | 3.824      | 126.1 |  5.42
Neigh   | 0.028461   | 0.031047   | 0.033393   |   0.8 |  0.18
Comm    | 7.8245     | 12.742     | 15.395     |  79.4 | 74.75
Output  | 0.0062124  | 0.011613   | 0.016964   |   3.2 |  0.07
Modify  | 0.56128    | 2.0167     | 8.2986     | 190.0 | 11.83
Other   |            | 0.5768     |            |       |  3.38

Nlocal:        10.0208 ave          43 max           0 min
Histogram: 20 8 7 5 0 1 1 3 2 1
Nghost:         1928.1 ave        2407 max        1330 min
Histogram: 8 0 0 0 24 0 0 0 0 16
Neighs:              0 ave           0 max           0 min
Histogram: 48 0 0 0 0 0 0 0 0 0

Total # of neighbors = 0
Ave neighs/atom = 0
Ave special neighs/atom = 15.567568
Neighbor list builds = 77
Dangerous builds = 0
unfix           myat1
next            cpt
jump            SELF loop
variable        zdes equal  -15+0.60*(${cpt}-1)
variable        zdes equal  -15+0.60*(13-1)
variable        zave equal xcm(H2,z)
fix             mytth2 H2 spring tether ${k1} 2.5 2.5 ${zdes} 0
fix             mytth2 H2 spring tether 5.1 2.5 2.5 ${zdes} 0
fix             mytth2 H2 spring tether 5.1 2.5 2.5 -7.8 0
run             10000
Generated 0 of 1 mixed pair_coeff terms from geometric mixing rule
Per MPI rank memory allocation (min/avg/max) = 13.32 | 13.86 | 14.98 Mbytes
   Step          Temp          E_pair         E_mol          TotEng         Press     
    740000   300.07232      395.23756      18541.473      19366.051     -28.425223    
    750000   312.05798      400.48629      18520.592      19367.567      243.6667     
Loop time of 3.29011 on 48 procs for 10000 steps with 481 atoms

Performance: 13.130 ns/day, 1.828 hours/ns, 3039.408 timesteps/s, 1.462 Matom-step/s
100.0% CPU use with 48 MPI tasks x 1 OpenMP threads

MPI task timing breakdown:
Section |  min time  |  avg time  |  max time  |%varavg| %total
---------------------------------------------------------------
Pair    | 0.0033049  | 0.14905    | 0.80924    |  55.6 |  4.53
Bond    | 0.001063   | 0.18479    | 0.80809    |  56.5 |  5.62
Neigh   | 0.0094751  | 0.010392   | 0.011179   |   0.5 |  0.32
Comm    | 1.5307     | 2.4446     | 2.9882     |  34.3 | 74.30
Output  | 0.0012453  | 0.0023261  | 0.0034226  |   1.4 |  0.07
Modify  | 0.11649    | 0.38389    | 1.5689     |  79.9 | 11.67
Other   |            | 0.115      |            |       |  3.50

Nlocal:        10.0208 ave          42 max           0 min
Histogram: 22 6 4 7 1 1 1 2 2 2
Nghost:        1933.23 ave        2418 max        1333 min
Histogram: 8 0 0 0 24 0 0 0 0 16
Neighs:              0 ave           0 max           0 min
Histogram: 48 0 0 0 0 0 0 0 0 0

Total # of neighbors = 0
Ave neighs/atom = 0
Ave special neighs/atom = 15.567568
Neighbor list builds = 26
Dangerous builds = 0
fix             myat1 all ave/time 1000 10 10000 v_zave v_zdes file simulation_data/abpot/${cpt}.dat
fix             myat1 all ave/time 1000 10 10000 v_zave v_zdes file simulation_data/abpot/13.dat
run             50000
Generated 0 of 1 mixed pair_coeff terms from geometric mixing rule
Per MPI rank memory allocation (min/avg/max) = 13.32 | 13.86 | 14.98 Mbytes
   Step          Temp          E_pair         E_mol          TotEng         Press     
    750000   312.05798      400.48629      18520.592      19367.567      243.6667     
    760000   298.14581      388.47951      18527.376      19342.439     -247.41346    
    770000   291.5816       398.43709      18504.413      19320.042      92.00318     
    780000   293.49033      394.85368      18493.193      19307.969      97.864914    
    790000   307.17833      384.28451      18536.88       19360.672     -313.25946    
    800000   304.9944       396.91191      18526.087      19359.382      2.9087359    
Loop time of 16.5395 on 48 procs for 50000 steps with 481 atoms

Performance: 13.060 ns/day, 1.838 hours/ns, 3023.061 timesteps/s, 1.454 Matom-step/s
100.0% CPU use with 48 MPI tasks x 1 OpenMP threads

MPI task timing breakdown:
Section |  min time  |  avg time  |  max time  |%varavg| %total
---------------------------------------------------------------
Pair    | 0.017094   | 0.7456     | 4.2314     | 125.1 |  4.51
Bond    | 0.0053616  | 0.92386    | 3.7779     | 125.9 |  5.59
Neigh   | 0.044586   | 0.048262   | 0.051723   |   1.0 |  0.29
Comm    | 7.4626     | 12.336     | 15.128     |  76.4 | 74.59
Output  | 0.0060044  | 0.011321   | 0.016587   |   3.2 |  0.07
Modify  | 0.56229    | 1.9031     | 7.6563     | 179.6 | 11.51
Other   |            | 0.5711     |            |       |  3.45

Nlocal:        10.0208 ave          40 max           0 min
Histogram: 20 7 6 4 3 0 1 3 0 4
Nghost:         1923.6 ave        2399 max        1336 min
Histogram: 8 0 0 0 24 0 0 0 0 16
Neighs:              0 ave           0 max           0 min
Histogram: 48 0 0 0 0 0 0 0 0 0

Total # of neighbors = 0
Ave neighs/atom = 0
Ave special neighs/atom = 15.567568
Neighbor list builds = 119
Dangerous builds = 0
unfix           myat1
next            cpt
jump            SELF loop
variable        zdes equal  -15+0.60*(${cpt}-1)
variable        zdes equal  -15+0.60*(14-1)
variable        zave equal xcm(H2,z)
fix             mytth2 H2 spring tether ${k1} 2.5 2.5 ${zdes} 0
fix             mytth2 H2 spring tether 5.1 2.5 2.5 ${zdes} 0
fix             mytth2 H2 spring tether 5.1 2.5 2.5 -7.2 0
run             10000
Generated 0 of 1 mixed pair_coeff terms from geometric mixing rule
Per MPI rank memory allocation (min/avg/max) = 13.32 | 13.86 | 14.98 Mbytes
   Step          Temp          E_pair         E_mol          TotEng         Press     
    800000   304.9944       396.91191      18526.087      19359.382      2.9087359    
    810000   306.62826      397.68365      18498.62       19335.024      10.728981    
Loop time of 3.23101 on 48 procs for 10000 steps with 481 atoms

Performance: 13.370 ns/day, 1.795 hours/ns, 3095.007 timesteps/s, 1.489 Matom-step/s
100.0% CPU use with 48 MPI tasks x 1 OpenMP threads

MPI task timing breakdown:
Section |  min time  |  avg time  |  max time  |%varavg| %total
---------------------------------------------------------------
Pair    | 0.0033385  | 0.14935    | 0.85709    |  55.8 |  4.62
Bond    | 0.001049   | 0.18508    | 0.78115    |  56.3 |  5.73
Neigh   | 0.0064812  | 0.0070458  | 0.0075562  |   0.4 |  0.22
Comm    | 1.3633     | 2.3986     | 2.9408     |  33.9 | 74.24
Output  | 0.0012343  | 0.0022937  | 0.0033828  |   1.4 |  0.07
Modify  | 0.11148    | 0.3746     | 1.4897     |  77.7 | 11.59
Other   |            | 0.114      |            |       |  3.53

Nlocal:        10.0208 ave          39 max           0 min
Histogram: 21 4 7 7 1 0 1 1 4 2
Nghost:        1931.98 ave        2413 max        1338 min
Histogram: 8 0 0 0 24 0 0 0 0 16
Neighs:              0 ave           0 max           0 min
Histogram: 48 0 0 0 0 0 0 0 0 0

Total # of neighbors = 0
Ave neighs/atom = 0
Ave special neighs/atom = 15.567568
Neighbor list builds = 19
Dangerous builds = 0
fix             myat1 all ave/time 1000 10 10000 v_zave v_zdes file simulation_data/abpot/${cpt}.dat
fix             myat1 all ave/time 1000 10 10000 v_zave v_zdes file simulation_data/abpot/14.dat
run             50000
Generated 0 of 1 mixed pair_coeff terms from geometric mixing rule
Per MPI rank memory allocation (min/avg/max) = 13.32 | 13.86 | 14.98 Mbytes
   Step          Temp          E_pair         E_mol          TotEng         Press     
    810000   306.62826      397.68365      18498.62       19335.024      10.728981    
    820000   271.52155      380.70666      18555.304      19324.501     -396.1489     
    830000   309.11397      387.70614      18519.342      19349.325     -210.2588     
    840000   310.67699      388.10286      18535.459      19368.075     -195.01787    
    850000   286.08729      386.13708      18541.106      19336.574     -233.45612    
    860000   304.51779      394.80256      18523.796      19354.299     -83.440659    
Loop time of 16.0879 on 48 procs for 50000 steps with 481 atoms

Performance: 13.426 ns/day, 1.788 hours/ns, 3107.935 timesteps/s, 1.495 Matom-step/s
100.0% CPU use with 48 MPI tasks x 1 OpenMP threads

MPI task timing breakdown:
Section |  min time  |  avg time  |  max time  |%varavg| %total
---------------------------------------------------------------
Pair    | 0.0178     | 0.74786    | 4.2597     | 125.3 |  4.65
Bond    | 0.0052779  | 0.92449    | 3.7453     | 125.7 |  5.75
Neigh   | 0.03278    | 0.035527   | 0.037961   |   0.8 |  0.22
Comm    | 6.9945     | 11.947     | 14.636     |  73.4 | 74.26
Output  | 0.0060304  | 0.011436   | 0.016748   |   3.2 |  0.07
Modify  | 0.57099    | 1.8453     | 7.1409     | 166.3 | 11.47
Other   |            | 0.5758     |            |       |  3.58

Nlocal:        10.0208 ave          41 max           0 min
Histogram: 21 8 5 4 3 0 1 1 2 3
Nghost:         1935.1 ave        2417 max        1334 min
Histogram: 8 0 0 0 24 0 0 0 0 16
Neighs:              0 ave           0 max           0 min
Histogram: 48 0 0 0 0 0 0 0 0 0

Total # of neighbors = 0
Ave neighs/atom = 0
Ave special neighs/atom = 15.567568
Neighbor list builds = 92
Dangerous builds = 0
unfix           myat1
next            cpt
jump            SELF loop
variable        zdes equal  -15+0.60*(${cpt}-1)
variable        zdes equal  -15+0.60*(15-1)
variable        zave equal xcm(H2,z)
fix             mytth2 H2 spring tether ${k1} 2.5 2.5 ${zdes} 0
fix             mytth2 H2 spring tether 5.1 2.5 2.5 ${zdes} 0
fix             mytth2 H2 spring tether 5.1 2.5 2.5 -6.6 0
run             10000
Generated 0 of 1 mixed pair_coeff terms from geometric mixing rule
Per MPI rank memory allocation (min/avg/max) = 13.32 | 13.86 | 14.98 Mbytes
   Step          Temp          E_pair         E_mol          TotEng         Press     
    860000   304.51779      394.80256      18523.796      19354.299     -83.440659    
    870000   317.14042      381.72215      18539.632      19375.115     -291.06261    
Loop time of 3.29241 on 48 procs for 10000 steps with 481 atoms

Performance: 13.121 ns/day, 1.829 hours/ns, 3037.292 timesteps/s, 1.461 Matom-step/s
100.0% CPU use with 48 MPI tasks x 1 OpenMP threads

MPI task timing breakdown:
Section |  min time  |  avg time  |  max time  |%varavg| %total
---------------------------------------------------------------
Pair    | 0.003406   | 0.15004    | 0.84336    |  55.8 |  4.56
Bond    | 0.0010639  | 0.18556    | 0.75435    |  56.3 |  5.64
Neigh   | 0.0078415  | 0.0086893  | 0.0094118  |   0.4 |  0.26
Comm    | 1.5052     | 2.451      | 2.9905     |  33.3 | 74.44
Output  | 0.0012585  | 0.0024538  | 0.0036676  |   1.5 |  0.07
Modify  | 0.11507    | 0.37403    | 1.5101     |  77.2 | 11.36
Other   |            | 0.1206     |            |       |  3.66

Nlocal:        10.0208 ave          48 max           0 min
Histogram: 21 8 8 4 0 0 3 3 0 1
Nghost:         1930.1 ave        2410 max        1338 min
Histogram: 8 0 0 0 24 0 0 0 0 16
Neighs:              0 ave           0 max           0 min
Histogram: 48 0 0 0 0 0 0 0 0 0

Total # of neighbors = 0
Ave neighs/atom = 0
Ave special neighs/atom = 15.567568
Neighbor list builds = 22
Dangerous builds = 0
fix             myat1 all ave/time 1000 10 10000 v_zave v_zdes file simulation_data/abpot/${cpt}.dat
fix             myat1 all ave/time 1000 10 10000 v_zave v_zdes file simulation_data/abpot/15.dat
run             50000
Generated 0 of 1 mixed pair_coeff terms from geometric mixing rule
Per MPI rank memory allocation (min/avg/max) = 13.32 | 13.86 | 14.98 Mbytes
   Step          Temp          E_pair         E_mol          TotEng         Press     
    870000   317.14042      381.72215      18539.632      19375.115     -291.06261    
    880000   313.00061      391.37667      18494.89       19334.105     -67.937181    
    890000   282.47911      396.77618      18508.834      19309.779      91.432186    
    900000   289.61865      388.31552      18528.826      19331.525     -138.67524    
    910000   294.43338      391.86629      18530.203      19343.341     -147.60798    
    920000   304.47003      397.64035      18526.904      19360.177      170.05324    
Loop time of 15.8373 on 48 procs for 50000 steps with 481 atoms

Performance: 13.639 ns/day, 1.760 hours/ns, 3157.101 timesteps/s, 1.519 Matom-step/s
100.0% CPU use with 48 MPI tasks x 1 OpenMP threads

MPI task timing breakdown:
Section |  min time  |  avg time  |  max time  |%varavg| %total
---------------------------------------------------------------
Pair    | 0.017884   | 0.74569    | 4.2515     | 125.3 |  4.71
Bond    | 0.0053284  | 0.92313    | 3.841      | 125.7 |  5.83
Neigh   | 0.035948   | 0.039328   | 0.042209   |   0.9 |  0.25
Comm    | 6.7878     | 11.699     | 14.152     |  73.3 | 73.87
Output  | 0.0060152  | 0.011599   | 0.017087   |   3.3 |  0.07
Modify  | 0.56303    | 1.8339     | 7.0407     | 163.1 | 11.58
Other   |            | 0.5842     |            |       |  3.69

Nlocal:        10.0208 ave          47 max           0 min
Histogram: 20 8 10 2 0 2 3 2 0 1
Nghost:        1923.73 ave        2402 max        1326 min
Histogram: 8 0 0 0 24 0 0 0 0 16
Neighs:              0 ave           0 max           0 min
Histogram: 48 0 0 0 0 0 0 0 0 0

Total # of neighbors = 0
Ave neighs/atom = 0
Ave special neighs/atom = 15.567568
Neighbor list builds = 103
Dangerous builds = 0
unfix           myat1
next            cpt
jump            SELF loop
variable        zdes equal  -15+0.60*(${cpt}-1)
variable        zdes equal  -15+0.60*(16-1)
variable        zave equal xcm(H2,z)
fix             mytth2 H2 spring tether ${k1} 2.5 2.5 ${zdes} 0
fix             mytth2 H2 spring tether 5.1 2.5 2.5 ${zdes} 0
fix             mytth2 H2 spring tether 5.1 2.5 2.5 -6 0
run             10000
Generated 0 of 1 mixed pair_coeff terms from geometric mixing rule
Per MPI rank memory allocation (min/avg/max) = 13.32 | 13.86 | 14.98 Mbytes
   Step          Temp          E_pair         E_mol          TotEng         Press     
    920000   304.47003      397.64035      18526.904      19360.177      170.05324    
    930000   298.80695      393.51285      18520.548      19341.59       57.205129    
Loop time of 3.20072 on 48 procs for 10000 steps with 481 atoms

Performance: 13.497 ns/day, 1.778 hours/ns, 3124.300 timesteps/s, 1.503 Matom-step/s
100.0% CPU use with 48 MPI tasks x 1 OpenMP threads

MPI task timing breakdown:
Section |  min time  |  avg time  |  max time  |%varavg| %total
---------------------------------------------------------------
Pair    | 0.0033273  | 0.14902    | 0.85383    |  55.8 |  4.66
Bond    | 0.0010743  | 0.18426    | 0.81037    |  56.4 |  5.76
Neigh   | 0.01077    | 0.011728   | 0.012574   |   0.5 |  0.37
Comm    | 1.355      | 2.3805     | 2.9109     |  32.4 | 74.37
Output  | 0.0011904  | 0.0022829  | 0.0033862  |   1.5 |  0.07
Modify  | 0.11664    | 0.35668    | 1.4023     |  72.7 | 11.14
Other   |            | 0.1162     |            |       |  3.63

Nlocal:        10.0208 ave          44 max           0 min
Histogram: 21 4 13 2 0 1 3 2 1 1
Nghost:        1930.35 ave        2411 max        1329 min
Histogram: 8 0 0 0 24 0 0 0 0 16
Neighs:              0 ave           0 max           0 min
Histogram: 48 0 0 0 0 0 0 0 0 0

Total # of neighbors = 0
Ave neighs/atom = 0
Ave special neighs/atom = 15.567568
Neighbor list builds = 30
Dangerous builds = 0
fix             myat1 all ave/time 1000 10 10000 v_zave v_zdes file simulation_data/abpot/${cpt}.dat
fix             myat1 all ave/time 1000 10 10000 v_zave v_zdes file simulation_data/abpot/16.dat
run             50000
Generated 0 of 1 mixed pair_coeff terms from geometric mixing rule
Per MPI rank memory allocation (min/avg/max) = 13.32 | 13.86 | 14.98 Mbytes
   Step          Temp          E_pair         E_mol          TotEng         Press     
    930000   298.80695      393.51285      18520.548      19341.59       57.205129    
    940000   287.94963      388.20417      18529.939      19330.139     -78.837768    
    950000   304.13367      382.38821      18548.185      19365.724     -247.46488    
    960000   311.95093      401.52976      18511.775      19359.64       255.43078    
    970000   290.47357      389.11308      18511.467      19316.186     -280.86397    
    980000   290.12684      394.50576      18486.598      19296.214      40.882847    
Loop time of 15.7341 on 48 procs for 50000 steps with 481 atoms

Performance: 13.728 ns/day, 1.748 hours/ns, 3177.811 timesteps/s, 1.529 Matom-step/s
100.0% CPU use with 48 MPI tasks x 1 OpenMP threads

MPI task timing breakdown:
Section |  min time  |  avg time  |  max time  |%varavg| %total
---------------------------------------------------------------
Pair    | 0.016324   | 0.74397    | 4.295      | 125.0 |  4.73
Bond    | 0.0053562  | 0.92165    | 3.7486     | 125.5 |  5.86
Neigh   | 0.053808   | 0.058781   | 0.063031   |   1.1 |  0.37
Comm    | 6.5466     | 11.613     | 14.168     |  72.6 | 73.81
Output  | 0.0058321  | 0.011206   | 0.016518   |   3.3 |  0.07
Modify  | 0.54941    | 1.8079     | 6.794      | 160.1 | 11.49
Other   |            | 0.5779     |            |       |  3.67

Nlocal:        10.0208 ave          47 max           0 min
Histogram: 23 7 5 5 1 1 2 2 1 1
Nghost:        1930.23 ave        2417 max        1326 min
Histogram: 8 0 0 0 24 0 0 0 0 16
Neighs:              0 ave           0 max           0 min
Histogram: 48 0 0 0 0 0 0 0 0 0

Total # of neighbors = 0
Ave neighs/atom = 0
Ave special neighs/atom = 15.567568
Neighbor list builds = 161
Dangerous builds = 0
unfix           myat1
next            cpt
jump            SELF loop
variable        zdes equal  -15+0.60*(${cpt}-1)
variable        zdes equal  -15+0.60*(17-1)
variable        zave equal xcm(H2,z)
fix             mytth2 H2 spring tether ${k1} 2.5 2.5 ${zdes} 0
fix             mytth2 H2 spring tether 5.1 2.5 2.5 ${zdes} 0
fix             mytth2 H2 spring tether 5.1 2.5 2.5 -5.4 0
run             10000
Generated 0 of 1 mixed pair_coeff terms from geometric mixing rule
Per MPI rank memory allocation (min/avg/max) = 13.32 | 13.86 | 14.98 Mbytes
   Step          Temp          E_pair         E_mol          TotEng         Press     
    980000   290.12684      394.50576      18486.598      19296.214      40.882847    
    990000   310.13303      395.75823      18511.583      19351.076      66.176085    
Loop time of 3.27628 on 48 procs for 10000 steps with 481 atoms

Performance: 13.186 ns/day, 1.820 hours/ns, 3052.238 timesteps/s, 1.468 Matom-step/s
100.0% CPU use with 48 MPI tasks x 1 OpenMP threads

MPI task timing breakdown:
Section |  min time  |  avg time  |  max time  |%varavg| %total
---------------------------------------------------------------
Pair    | 0.0033696  | 0.14927    | 0.87662    |  56.6 |  4.56
Bond    | 0.0010761  | 0.18446    | 0.76658    |  56.4 |  5.63
Neigh   | 0.0088725  | 0.0096343  | 0.010316   |   0.4 |  0.29
Comm    | 1.3971     | 2.4341     | 2.9841     |  34.1 | 74.29
Output  | 0.0012219  | 0.0022909  | 0.0033662  |   1.4 |  0.07
Modify  | 0.11394    | 0.38142    | 1.5073     |  78.6 | 11.64
Other   |            | 0.1151     |            |       |  3.51

Nlocal:        10.0208 ave          50 max           0 min
Histogram: 20 11 4 6 0 1 3 2 0 1
Nghost:        1930.35 ave        2409 max        1323 min
Histogram: 8 0 0 0 24 0 0 0 0 16
Neighs:              0 ave           0 max           0 min
Histogram: 48 0 0 0 0 0 0 0 0 0

Total # of neighbors = 0
Ave neighs/atom = 0
Ave special neighs/atom = 15.567568
[...]
Section |  min time  |  avg time  |  max time  |%varavg| %total
---------------------------------------------------------------
Pair    | 0.0032438  | 0.14627    | 0.81723    |  53.6 |  4.92
Bond    | 0.0010479  | 0.18439    | 0.80972    |  56.4 |  6.21
Neigh   | 0.0019923  | 0.0021664  | 0.0023203  |   0.2 |  0.07
Comm    | 1.1638     | 2.1969     | 2.7091     |  30.7 | 73.95
Output  | 0.0011151  | 0.0021608  | 0.0032323  |   1.5 |  0.07
Modify  | 0.11221    | 0.32415    | 1.1976     |  65.4 | 10.91
Other   |            | 0.1149     |            |       |  3.87

Nlocal:        10.0208 ave          37 max           0 min
Histogram: 19 9 4 5 3 0 0 0 5 3
Nghost:        1929.48 ave        2408 max        1336 min
Histogram: 8 0 0 0 24 0 0 0 0 16
Neighs:              0 ave           0 max           0 min
Histogram: 48 0 0 0 0 0 0 0 0 0

Total # of neighbors = 0
Ave neighs/atom = 0
Ave special neighs/atom = 15.567568
Neighbor list builds = 6
Dangerous builds = 0
fix             myat1 all ave/time 1000 10 10000 v_zave v_zdes file simulation_data/abpot/${cpt}.dat
fix             myat1 all ave/time 1000 10 10000 v_zave v_zdes file simulation_data/abpot/47.dat
run             50000
Generated 0 of 1 mixed pair_coeff terms from geometric mixing rule
Per MPI rank memory allocation (min/avg/max) = 13.32 | 13.88 | 14.98 Mbytes
   Step          Temp          E_pair         E_mol          TotEng         Press     
   2790000   298.44192      372.43223      18533.043      19332.482     -22.806944    
   2800000   305.38295      370.96064      18532.083      19339.982     -149.01164    
   2810000   312.13765      370.89383      18545.423      19362.92      -14.919716    
   2820000   311.79761      370.23726      18555.302      19371.655     -156.40952    
   2830000   303.79878      366.31057      18510.674      19311.657     -176.35112    
   2840000   294.26902      375.89164      18515.89       19312.819      12.828151    
Loop time of 15.1638 on 48 procs for 50000 steps with 481 atoms

Performance: 14.244 ns/day, 1.685 hours/ns, 3297.322 timesteps/s, 1.586 Matom-step/s
100.0% CPU use with 48 MPI tasks x 1 OpenMP threads

MPI task timing breakdown:
Section |  min time  |  avg time  |  max time  |%varavg| %total
---------------------------------------------------------------
Pair    | 0.016448   | 0.73274    | 3.9643     | 120.1 |  4.83
Bond    | 0.0053155  | 0.92294    | 3.7994     | 125.8 |  6.09
Neigh   | 0.015248   | 0.016625   | 0.017884   |   0.6 |  0.11
Comm    | 6.3976     | 11.271     | 13.806     |  69.4 | 74.33
Output  | 0.0059552  | 0.011273   | 0.01662    |   3.2 |  0.07
Modify  | 0.56676    | 1.6325     | 6.1834     | 151.4 | 10.77
Other   |            | 0.5764     |            |       |  3.80

Nlocal:        10.0208 ave          40 max           0 min
Histogram: 19 9 5 4 3 0 0 6 0 2
Nghost:        1924.35 ave        2401 max        1333 min
Histogram: 8 0 0 0 24 0 0 0 0 16
Neighs:              0 ave           0 max           0 min
Histogram: 48 0 0 0 0 0 0 0 0 0

Total # of neighbors = 0
Ave neighs/atom = 0
Ave special neighs/atom = 15.567568
Neighbor list builds = 45
Dangerous builds = 0
unfix           myat1
next            cpt
jump            SELF loop
variable        zdes equal  -15+0.60*(${cpt}-1)
variable        zdes equal  -15+0.60*(48-1)
variable        zave equal xcm(H2,z)
fix             mytth2 H2 spring tether ${k1} 2.5 2.5 ${zdes} 0
fix             mytth2 H2 spring tether 5.1 2.5 2.5 ${zdes} 0
fix             mytth2 H2 spring tether 5.1 2.5 2.5 13.2 0
run             10000
Generated 0 of 1 mixed pair_coeff terms from geometric mixing rule
Per MPI rank memory allocation (min/avg/max) = 13.32 | 13.88 | 14.98 Mbytes
   Step          Temp          E_pair         E_mol          TotEng         Press     
   2840000   294.26902      375.89164      18515.89       19312.819      12.828151    
   2850000   308.48791      375.42268      18533.832      19350.636      14.746572    
Loop time of 3.07277 on 48 procs for 10000 steps with 481 atoms

Performance: 14.059 ns/day, 1.707 hours/ns, 3254.394 timesteps/s, 1.565 Matom-step/s
100.0% CPU use with 48 MPI tasks x 1 OpenMP threads

MPI task timing breakdown:
Section |  min time  |  avg time  |  max time  |%varavg| %total
---------------------------------------------------------------
Pair    | 0.0033448  | 0.14643    | 0.80478    |  53.6 |  4.77
Bond    | 0.0010433  | 0.18435    | 0.82347    |  56.4 |  6.00
Neigh   | 0.0030832  | 0.0033363  | 0.0035839  |   0.3 |  0.11
Comm    | 1.3234     | 2.2925     | 2.7973     |  31.4 | 74.61
Output  | 0.0011632  | 0.0022091  | 0.0032904  |   1.4 |  0.07
Modify  | 0.11052    | 0.32966    | 1.2662     |  70.1 | 10.73
Other   |            | 0.1142     |            |       |  3.72

Nlocal:        10.0208 ave          37 max           0 min
Histogram: 21 6 5 4 4 0 0 1 3 4
Nghost:        1933.23 ave        2411 max        1337 min
Histogram: 8 0 0 0 24 0 0 0 0 16
Neighs:              0 ave           0 max           0 min
Histogram: 48 0 0 0 0 0 0 0 0 0

Total # of neighbors = 0
Ave neighs/atom = 0
Ave special neighs/atom = 15.567568
Neighbor list builds = 9
Dangerous builds = 0
fix             myat1 all ave/time 1000 10 10000 v_zave v_zdes file simulation_data/abpot/${cpt}.dat
fix             myat1 all ave/time 1000 10 10000 v_zave v_zdes file simulation_data/abpot/48.dat
run             50000
Generated 0 of 1 mixed pair_coeff terms from geometric mixing rule
Per MPI rank memory allocation (min/avg/max) = 13.32 | 13.88 | 14.98 Mbytes
   Step          Temp          E_pair         E_mol          TotEng         Press     
   2850000   308.48791      375.42268      18533.832      19350.636      14.746572    
   2860000   284.39389      360.92267      18533.961      19301.791     -352.02155    
   2870000   289.72087      371.86308      18512.46       19298.853     -4.869726     
   2880000   285.26481      372.66567      18501.042      19281.861     -1.3090076    
   2890000   305.10726      372.53704      18521.165      19330.247      65.327068    
   2900000   291.99371      372.99336      18533.846      19324.621      89.992903    
Loop time of 15.6439 on 48 procs for 50000 steps with 481 atoms

Performance: 13.807 ns/day, 1.738 hours/ns, 3196.126 timesteps/s, 1.537 Matom-step/s
100.0% CPU use with 48 MPI tasks x 1 OpenMP threads

MPI task timing breakdown:
Section |  min time  |  avg time  |  max time  |%varavg| %total
---------------------------------------------------------------
Pair    | 0.016524   | 0.73166    | 4.1661     | 120.2 |  4.68
Bond    | 0.0052386  | 0.92256    | 4.0396     | 126.3 |  5.90
Neigh   | 0.022027   | 0.023879   | 0.025581   |   0.7 |  0.15
Comm    | 6.5444     | 11.665     | 14.192     |  71.2 | 74.57
Output  | 0.0060014  | 0.011316   | 0.016848   |   3.2 |  0.07
Modify  | 0.56545    | 1.7216     | 6.7421     | 161.2 | 11.00
Other   |            | 0.5675     |            |       |  3.63

Nlocal:        10.0208 ave          46 max           0 min
Histogram: 20 7 10 3 0 2 1 3 0 2
Nghost:        1927.73 ave        2405 max        1327 min
Histogram: 8 0 0 0 24 0 0 0 0 16
Neighs:              0 ave           0 max           0 min
Histogram: 48 0 0 0 0 0 0 0 0 0

Total # of neighbors = 0
Ave neighs/atom = 0
Ave special neighs/atom = 15.567568
Neighbor list builds = 62
Dangerous builds = 0
unfix           myat1
next            cpt
jump            SELF loop
variable        zdes equal  -15+0.60*(${cpt}-1)
variable        zdes equal  -15+0.60*(49-1)
variable        zave equal xcm(H2,z)
fix             mytth2 H2 spring tether ${k1} 2.5 2.5 ${zdes} 0
fix             mytth2 H2 spring tether 5.1 2.5 2.5 ${zdes} 0
fix             mytth2 H2 spring tether 5.1 2.5 2.5 13.8 0
run             10000
Generated 0 of 1 mixed pair_coeff terms from geometric mixing rule
Per MPI rank memory allocation (min/avg/max) = 13.32 | 13.88 | 14.98 Mbytes
   Step          Temp          E_pair         E_mol          TotEng         Press     
   2900000   291.99371      372.99336      18533.846      19324.621      89.992903    
   2910000   313.97215      368.53227      18519.582      19337.342     -92.275407    
Loop time of 3.08728 on 48 procs for 10000 steps with 481 atoms

Performance: 13.993 ns/day, 1.715 hours/ns, 3239.093 timesteps/s, 1.558 Matom-step/s
100.0% CPU use with 48 MPI tasks x 1 OpenMP threads

MPI task timing breakdown:
Section |  min time  |  avg time  |  max time  |%varavg| %total
---------------------------------------------------------------
Pair    | 0.003098   | 0.14635    | 0.89884    |  54.3 |  4.74
Bond    | 0.0010293  | 0.18443    | 0.78103    |  56.4 |  5.97
Neigh   | 0.0039008  | 0.0042377  | 0.0045429  |   0.3 |  0.14
Comm    | 1.1647     | 2.3001     | 2.8049     |  31.5 | 74.50
Output  | 0.00115    | 0.0021913  | 0.0032608  |   1.4 |  0.07
Modify  | 0.11263    | 0.33669    | 1.31       |  70.2 | 10.91
Other   |            | 0.1133     |            |       |  3.67

Nlocal:        10.0208 ave          40 max           0 min
Histogram: 19 6 8 5 2 0 2 0 3 3
Nghost:        1934.48 ave        2423 max        1337 min
Histogram: 8 0 0 0 24 0 0 0 0 16
Neighs:              0 ave           0 max           0 min
Histogram: 48 0 0 0 0 0 0 0 0 0

Total # of neighbors = 0
Ave neighs/atom = 0
Ave special neighs/atom = 15.567568
Neighbor list builds = 11
Dangerous builds = 0
fix             myat1 all ave/time 1000 10 10000 v_zave v_zdes file simulation_data/abpot/${cpt}.dat
fix             myat1 all ave/time 1000 10 10000 v_zave v_zdes file simulation_data/abpot/49.dat
run             50000
Generated 0 of 1 mixed pair_coeff terms from geometric mixing rule
Per MPI rank memory allocation (min/avg/max) = 13.32 | 13.88 | 14.98 Mbytes
   Step          Temp          E_pair         E_mol          TotEng         Press     
   2910000   313.97215      368.53227      18519.582      19337.342     -92.275407    
   2920000   299.52875      363.26807      18501.359      19293.19      -168.10417    
   2930000   282.52777      368.44022      18507.732      19280.41      -99.225636    
   2940000   296.21988      368.91043      18533.078      19325.817     -55.694305    
   2950000   309.6799       374.68172      18527.261      19345.029     -14.945586    
   2960000   287.13492      373.6569       18499.443      19283.929      158.52384    
Loop time of 15.3415 on 48 procs for 50000 steps with 481 atoms

Performance: 14.079 ns/day, 1.705 hours/ns, 3259.134 timesteps/s, 1.568 Matom-step/s
100.0% CPU use with 48 MPI tasks x 1 OpenMP threads

MPI task timing breakdown:
Section |  min time  |  avg time  |  max time  |%varavg| %total
---------------------------------------------------------------
Pair    | 0.015778   | 0.7299     | 4.0502     | 119.3 |  4.76
Bond    | 0.0051468  | 0.92158    | 4.0892     | 126.3 |  6.01
Neigh   | 0.018867   | 0.02058    | 0.022207   |   0.7 |  0.13
Comm    | 6.3321     | 11.416     | 14.003     |  70.0 | 74.41
Output  | 0.0060195  | 0.011317   | 0.016817   |   3.2 |  0.07
Modify  | 0.56164    | 1.6683     | 6.4479     | 156.1 | 10.87
Other   |            | 0.574      |            |       |  3.74

Nlocal:        10.0208 ave          49 max           0 min
Histogram: 21 10 7 3 1 0 3 1 1 1
Nghost:        1927.98 ave        2412 max        1329 min
Histogram: 8 0 0 0 24 0 0 0 0 16
Neighs:              0 ave           0 max           0 min
Histogram: 48 0 0 0 0 0 0 0 0 0

Total # of neighbors = 0
Ave neighs/atom = 0
Ave special neighs/atom = 15.567568
Neighbor list builds = 54
Dangerous builds = 0
unfix           myat1
next            cpt
jump            SELF loop
variable        zdes equal  -15+0.60*(${cpt}-1)
variable        zdes equal  -15+0.60*(50-1)
variable        zave equal xcm(H2,z)
fix             mytth2 H2 spring tether ${k1} 2.5 2.5 ${zdes} 0
fix             mytth2 H2 spring tether 5.1 2.5 2.5 ${zdes} 0
fix             mytth2 H2 spring tether 5.1 2.5 2.5 14.4 0
run             10000
Generated 0 of 1 mixed pair_coeff terms from geometric mixing rule
Per MPI rank memory allocation (min/avg/max) = 13.32 | 13.88 | 14.98 Mbytes
   Step          Temp          E_pair         E_mol          TotEng         Press     
   2960000   287.13492      373.6569       18499.443      19283.929      158.52384    
   2970000   284.33761      367.1308       18520.206      19294.164     -144.00724    
Loop time of 3.09091 on 48 procs for 10000 steps with 481 atoms

Performance: 13.976 ns/day, 1.717 hours/ns, 3235.298 timesteps/s, 1.556 Matom-step/s
100.0% CPU use with 48 MPI tasks x 1 OpenMP threads

MPI task timing breakdown:
Section |  min time  |  avg time  |  max time  |%varavg| %total
---------------------------------------------------------------
Pair    | 0.0031302  | 0.14595    | 0.77884    |  53.1 |  4.72
Bond    | 0.00103    | 0.1843     | 0.84159    |  56.9 |  5.96
Neigh   | 0.005389   | 0.0058854  | 0.0063173  |   0.3 |  0.19
Comm    | 1.3773     | 2.2992     | 2.8288     |  31.6 | 74.39
Output  | 0.0012133  | 0.0022607  | 0.003336   |   1.4 |  0.07
Modify  | 0.11244    | 0.33861    | 1.342      |  71.3 | 10.96
Other   |            | 0.1147     |            |       |  3.71

Nlocal:        10.0208 ave          50 max           0 min
Histogram: 22 8 5 6 1 2 0 1 1 2
Nghost:        1928.23 ave        2410 max        1323 min
Histogram: 8 0 0 0 24 0 0 0 0 16
Neighs:              0 ave           0 max           0 min
Histogram: 48 0 0 0 0 0 0 0 0 0

Total # of neighbors = 0
Ave neighs/atom = 0
Ave special neighs/atom = 15.567568
Neighbor list builds = 15
Dangerous builds = 0
fix             myat1 all ave/time 1000 10 10000 v_zave v_zdes file simulation_data/abpot/${cpt}.dat
fix             myat1 all ave/time 1000 10 10000 v_zave v_zdes file simulation_data/abpot/50.dat
run             50000
Generated 0 of 1 mixed pair_coeff terms from geometric mixing rule
Per MPI rank memory allocation (min/avg/max) = 13.32 | 13.88 | 14.98 Mbytes
   Step          Temp          E_pair         E_mol          TotEng         Press     
   2970000   284.33761      367.1308       18520.206      19294.164     -144.00724    
   2980000   311.2758       372.74943      18514.454      19332.573      54.43963     
   2990000   286.25747      374.4195       18540.574      19324.567      93.441928    
   3000000   283.84542      375.33066      18504.186      19285.639      114.89019    
   3010000   292.06437      366.79904      18504.486      19289.168     -124.18737    
   3020000   306.84732      362.67142      18495.037      19296.743     -310.72958    
Loop time of 15.3258 on 48 procs for 50000 steps with 481 atoms

Performance: 14.094 ns/day, 1.703 hours/ns, 3262.462 timesteps/s, 1.569 Matom-step/s
100.0% CPU use with 48 MPI tasks x 1 OpenMP threads

MPI task timing breakdown:
Section |  min time  |  avg time  |  max time  |%varavg| %total
---------------------------------------------------------------
Pair    | 0.015902   | 0.72996    | 4.0425     | 119.3 |  4.76
Bond    | 0.0051762  | 0.92121    | 4.1813     | 126.9 |  6.01
Neigh   | 0.021179   | 0.02308    | 0.024889   |   0.7 |  0.15
Comm    | 6.2914     | 11.409     | 13.909     |  69.9 | 74.44
Output  | 0.0059874  | 0.011328   | 0.016604   |   3.2 |  0.07
Modify  | 0.56716    | 1.6599     | 6.4782     | 155.2 | 10.83
Other   |            | 0.5715     |            |       |  3.73

Nlocal:        10.0208 ave          44 max           0 min
Histogram: 22 4 10 4 0 1 2 3 1 1
Nghost:        1926.98 ave        2403 max        1329 min
Histogram: 8 0 0 0 24 0 0 0 0 16
Neighs:              0 ave           0 max           0 min
Histogram: 48 0 0 0 0 0 0 0 0 0

Total # of neighbors = 0
Ave neighs/atom = 0
Ave special neighs/atom = 15.567568
Neighbor list builds = 62
Dangerous builds = 0
unfix           myat1
next            cpt
jump            SELF loop
variable        zdes equal  -15+0.60*(${cpt}-1)
variable        zdes equal  -15+0.60*(51-1)
variable        zave equal xcm(H2,z)
fix             mytth2 H2 spring tether ${k1} 2.5 2.5 ${zdes} 0
fix             mytth2 H2 spring tether 5.1 2.5 2.5 ${zdes} 0
fix             mytth2 H2 spring tether 5.1 2.5 2.5 15 0
run             10000
Generated 0 of 1 mixed pair_coeff terms from geometric mixing rule
Per MPI rank memory allocation (min/avg/max) = 13.32 | 13.88 | 14.98 Mbytes
   Step          Temp          E_pair         E_mol          TotEng         Press     
   3020000   306.84732      362.67142      18495.037      19296.743     -310.72958    
   3030000   301.66493      378.97333      18517.714      19328.307      96.478886    
Loop time of 3.1834 on 48 procs for 10000 steps with 481 atoms

Performance: 13.570 ns/day, 1.769 hours/ns, 3141.294 timesteps/s, 1.511 Matom-step/s
100.0% CPU use with 48 MPI tasks x 1 OpenMP threads

MPI task timing breakdown:
Section |  min time  |  avg time  |  max time  |%varavg| %total
---------------------------------------------------------------
Pair    | 0.0031835  | 0.14605    | 0.79075    |  53.2 |  4.59
Bond    | 0.00103    | 0.18426    | 0.88769    |  57.3 |  5.79
Neigh   | 0.0059297  | 0.0064365  | 0.0069068  |   0.3 |  0.20
Comm    | 1.4147     | 2.371      | 2.888      |  32.2 | 74.48
Output  | 0.0012365  | 0.0030913  | 0.0047467  |   2.4 |  0.10
Modify  | 0.1134     | 0.35762    | 1.4005     |  74.1 | 11.23
Other   |            | 0.115      |            |       |  3.61

Nlocal:        10.0208 ave          39 max           0 min
Histogram: 19 9 5 5 2 0 1 3 1 3
Nghost:         1932.6 ave        2413 max        1334 min
Histogram: 8 0 0 0 24 0 0 0 0 16
Neighs:              0 ave           0 max           0 min
Histogram: 48 0 0 0 0 0 0 0 0 0

Total # of neighbors = 0
Ave neighs/atom = 0
Ave special neighs/atom = 15.567568
Neighbor list builds = 16
Dangerous builds = 0
fix             myat1 all ave/time 1000 10 10000 v_zave v_zdes file simulation_data/abpot/${cpt}.dat
fix             myat1 all ave/time 1000 10 10000 v_zave v_zdes file simulation_data/abpot/51.dat
run             50000
Generated 0 of 1 mixed pair_coeff terms from geometric mixing rule
Per MPI rank memory allocation (min/avg/max) = 13.32 | 13.88 | 14.98 Mbytes
   Step          Temp          E_pair         E_mol          TotEng         Press     
   3030000   301.66493      378.97333      18517.714      19328.307      96.478886    
   3040000   304.47071      372.2902       18546.797      19354.72      -8.0743872    
   3050000   299.10853      380.46158      18511.903      19320.326      160.58992    
   3060000   303.80517      368.62707      18505.511      19308.819     -98.739558    
   3070000   313.15129      361.91913      18538.389      19348.362     -330.20251    
   3080000   320.251        378.93363      18521.061      19358.206      207.39473    
Loop time of 16.0647 on 48 procs for 50000 steps with 481 atoms

Performance: 13.446 ns/day, 1.785 hours/ns, 3112.407 timesteps/s, 1.497 Matom-step/s
100.0% CPU use with 48 MPI tasks x 1 OpenMP threads

MPI task timing breakdown:
Section |  min time  |  avg time  |  max time  |%varavg| %total
---------------------------------------------------------------
Pair    | 0.016181   | 0.72987    | 3.7583     | 118.6 |  4.54
Bond    | 0.005144   | 0.92257    | 4.2848     | 126.8 |  5.74
Neigh   | 0.023861   | 0.025838   | 0.027676   |   0.7 |  0.16
Comm    | 7.5599     | 12.02      | 14.683     |  71.8 | 74.82
Output  | 0.0060274  | 0.01129    | 0.016844   |   3.2 |  0.07
Modify  | 0.56418    | 1.7834     | 7.0404     | 167.8 | 11.10
Other   |            | 0.5715     |            |       |  3.56

Nlocal:        10.0208 ave          43 max           0 min
Histogram: 20 9 4 7 0 1 2 2 0 3
Nghost:        1926.48 ave        2401 max        1330 min
Histogram: 8 0 0 0 24 0 0 0 0 16
Neighs:              0 ave           0 max           0 min
Histogram: 48 0 0 0 0 0 0 0 0 0

Total # of neighbors = 0
Ave neighs/atom = 0
Ave special neighs/atom = 15.567568
Neighbor list builds = 65
Dangerous builds = 0
unfix           myat1
next            cpt
jump            SELF loop

Total wall time: 0:18:22
