# --- log file ---

variable pre equal 112 # desired pressure (Atm)
variable tem equal 300 # desired temperature (K)

variable k1 equal 1.2 # spring constant
variable k2 equal 3.5 # spring constant

units real
atom_style molecular
boundary p p p
neighbor 1.0 bin
neigh_modify delay 3 one 6000
bond_style harmonic
angle_style harmonic
dihedral_style opls
improper_style harmonic
pair_style hybrid lj/cut 14 sg 15 cb 30 # Fluid-fluid interactions have a cutoff of 15 Å, fluid-solid interactions have a cutoff of 30 Å
# *--* C-C parameters *--*
bond_style harmonic
angle_style harmonic
dihedral_style opls
improper_style harmonic
# *--* C-C parameters *--*


# 2. Read the graphite platelet data file and define potentials parameters
read_data       ../geometry/carbonPlatelets/simulation_data/abpot_sys.data  extra/atom/types 1
Reading data file ...
  orthogonal box = (-30 -30 -30) to (30 30 30)
  4 by 4 by 4 MPI processor grid
  reading atoms ...
  480 atoms
  reading velocities ...
  480 velocities
  scanning bonds ...
  2 = max bonds/atom
  scanning angles ...
  3 = max angles/atom
  scanning dihedrals ...
  8 = max dihedrals/atom
  scanning impropers ...
  2 = max impropers/atom
  orthogonal box = (-30 -30 -30) to (30 30 30)
  4 by 4 by 4 MPI processor grid
  reading bonds ...
  676 bonds
  reading angles ...
  1268 angles
  reading dihedrals ...
  2394 dihedrals
  reading impropers ...
  396 impropers
Finding 1-2 1-3 1-4 neighbors ...
  special bond factors lj:    0        0        0       
  special bond factors coul:  0        0        0       
     3 = max # of 1-2 neighbors
     6 = max # of 1-3 neighbors
    18 = max # of 1-4 neighbors
    18 = max # of special neighbors
  special bonds CPU = 0.002 seconds
  read_data CPU = 0.048 seconds
include         PARM.lammps

#////////////////////////////////////////////////////////////////////////////////////////////////////////////////////////////////
#//     Filename: PARM.lammps
#//     File Type: LAMMPS input script
#//     Description: This script defines the parameters for the simulation of hydrogen absorption in graphite platelets.
#//     Author: Edoardo Cabiati
#//     Date: 2024-07-27
#////////////////////////////////////////////////////////////////////////////////////////////////////////////////////////////////

mass 2 2.016 # For now at least, in accordance with the paper by Wang and Johnson,
             # 1998, the hydrogen atoms are regarded as simple spherical atoms

# //////////////////////////////////////    C-C potentials    //////////////////////////////////////
pair_coeff 1 1 lj/cut 0.066 3.4
bond_coeff 1 469 1.4
angle_coeff 1 63 120
dihedral_coeff 1 0 7.25 0 0
improper_coeff 1 5 180
special_bonds lj 0.0 0.0 0.5
Finding 1-2 1-3 1-4 neighbors ...
  special bond factors lj:    0        0        0.5     
  special bond factors coul:  0        0        0       
     3 = max # of 1-2 neighbors
     6 = max # of 1-3 neighbors
    18 = max # of 1-4 neighbors
    18 = max # of special neighbors
  special bonds CPU = 0.001 seconds
# //////////////////////////////////////    C-C potentials    //////////////////////////////////////
# -------------------------------------------------------------------------------------------------
# //////////////////////////////////////    H-H potentials    //////////////////////////////////////
variable alpha equal 1.713          #|
variable sigma equal 1.567          #|
variable gamma equal 0.00993        #|
variable c6 equal 12.14             #|      The parameters are all in atomic units, the conversion to kcal/mol
variable c8 equal 215.2             #|      is performed in the pair_sg.cpp file
variable c9 equal 143.1             #|
variable c10 equal 4813.9           #|
variable rc equal 8.321             #|
pair_coeff 2 2 sg ${alpha} ${sigma} ${gamma} ${c6} ${c8} ${c9} ${c10} ${rc} # H-H potentials
pair_coeff 2 2 sg 1.713 ${sigma} ${gamma} ${c6} ${c8} ${c9} ${c10} ${rc} 
pair_coeff 2 2 sg 1.713 1.567 ${gamma} ${c6} ${c8} ${c9} ${c10} ${rc} 
pair_coeff 2 2 sg 1.713 1.567 0.00993 ${c6} ${c8} ${c9} ${c10} ${rc} 
pair_coeff 2 2 sg 1.713 1.567 0.00993 12.14 ${c8} ${c9} ${c10} ${rc} 
pair_coeff 2 2 sg 1.713 1.567 0.00993 12.14 215.2 ${c9} ${c10} ${rc} 
pair_coeff 2 2 sg 1.713 1.567 0.00993 12.14 215.2 143.1 ${c10} ${rc} 
pair_coeff 2 2 sg 1.713 1.567 0.00993 12.14 215.2 143.1 4813.9 ${rc} 
pair_coeff 2 2 sg 1.713 1.567 0.00993 12.14 215.2 143.1 4813.9 8.321 
#pair_coeff 2 2 sg 1.713 1.567 0.00993 12.14 215.2 143.1 4813.9 8.321 # H-H potentials
# //////////////////////////////////////    H-H potentials    //////////////////////////////////////
# -------------------------------------------------------------------------------------------------
# //////////////////////////////////////    C-H potentials    //////////////////////////////////////
# Parameters taken from the paper by Wang and Johnson, 1998
variable sigma_CC equal 3.43 # Å
variable sigma_HH equal 3.075 # Å
variable sigma_CH_geo equal sqrt(${sigma_CC}*${sigma_HH}) # Å
variable sigma_CH_geo equal sqrt(3.43*${sigma_HH}) 
variable sigma_CH_geo equal sqrt(3.43*3.075) 
variable sigma_CH_arit equal 0.5*(${sigma_CC}+${sigma_HH}) # Å
variable sigma_CH_arit equal 0.5*(3.43+${sigma_HH}) 
variable sigma_CH_arit equal 0.5*(3.43+3.075) 

variable P_par equal 0.57 # Å^3
variable P_perp equal 1.995 # Å^3
variable P_h equal 0.81 # Å^3
variable E_h equal 2.337e5*(1/503.23) # K * 1/503.23 kcal/mol/K = kcal/mol
variable E_c equal 1.39254e5*(1/503.23) # K * 1/503.23 kcal/mol/K = kcal/mol

variable epsilon equal 4*(5/11)*v_E_h*v_E_c*v_P_h*(v_P_par+v_P_perp/2)/(v_sigma_CH_geo^6*(v_E_h+v_E_c)) # kcal/mol
# The formula taken from paper by Wang and Johnson, 1998 to construct epsilon does not seem to be consistent with the
# results obtained from the LAMMPS simulation. We will be using the value of epsilon obtained from the simplified
# version of the CB potential as 12-6 lennard-jones potential, presented in the paper "Theoretical investigation of the
# effect of graphite interlayer spacing on hydrogen absorption" by Rachel S. Aga, C. L. Fu, Maja Krčmar, and James R. Morris.
variable epsilon_sub equal 4*0.085094 # kcal/mol
variable sigma equal 2.97 # Å

pair_coeff 1 2 cb ${epsilon_sub} ${sigma} ${P_par} ${P_perp} # C-H potential
pair_coeff 1 2 cb 0.340376 ${sigma} ${P_par} ${P_perp} 
pair_coeff 1 2 cb 0.340376 2.97 ${P_par} ${P_perp} 
pair_coeff 1 2 cb 0.340376 2.97 0.57 ${P_perp} 
pair_coeff 1 2 cb 0.340376 2.97 0.57 1.995 
#pair_coeff 1 2 lj/cut 0.3025 2.065
# //////////////////////////////////////    C-H potentials    //////////////////////////////////////

# 3. Add a single hydrogen molecule to the system, close to the center of the first platelet
create_atoms    2 single 0 0 -2
Created 1 atoms
  using lattice units in orthogonal box = (-30 -30 -30) to (30 30 30)
  create_atoms CPU = 0.000 seconds

group           C type 1
480 atoms in group C
group           H2 type 2
1 atoms in group H2

# 4. Equilibration
timestep        0.05
fix             mytth1 C spring/self ${k2} # Apply a spring force to the carbon atoms
fix             mytth1 C spring/self 3.5 
velocity        all create ${tem} 48 rot yes mom yes dist gaussian # Initialize velocities
velocity        all create 300 48 rot yes mom yes dist gaussian 
fix             mynpt all npt temp ${tem} ${tem} 100 x ${pre} ${pre} 1000 y ${pre} ${pre} 1000 # Apply NPT ensemble to the system
fix             mynpt all npt temp 300 ${tem} 100 x ${pre} ${pre} 1000 y ${pre} ${pre} 1000 
fix             mynpt all npt temp 300 300 100 x ${pre} ${pre} 1000 y ${pre} ${pre} 1000 
fix             mynpt all npt temp 300 300 100 x 112 ${pre} 1000 y ${pre} ${pre} 1000 
fix             mynpt all npt temp 300 300 100 x 112 112 1000 y ${pre} ${pre} 1000 
fix             mynpt all npt temp 300 300 100 x 112 112 1000 y 112 ${pre} 1000 
fix             mynpt all npt temp 300 300 100 x 112 112 1000 y 112 112 1000 

thermo          10000
dump            dump all atom 1000 simulation_data/absorption_pot.lammpstrj

run             20000

CITE-CITE-CITE-CITE-CITE-CITE-CITE-CITE-CITE-CITE-CITE-CITE-CITE

Your simulation uses code contributions which should be cited:

- Type Label Framework: https://doi.org/10.1021/acs.jpcb.3c08419

@Article{Gissinger24,
 author = {Jacob R. Gissinger, Ilia Nikiforov, Yaser Afshar, Brendon Waters, Moon-ki Choi, Daniel S. Karls, Alexander Stukowski, Wonpil Im, Hendrik Heinz, Axel Kohlmeyer, and Ellad B. Tadmor},
 title = {Type Label Framework for Bonded Force Fields in LAMMPS},
 journal = {J. Phys. Chem. B},
 year =    2024,
 volume =  128,
 number =  13,
 pages =   {3282–-3297}
}

CITE-CITE-CITE-CITE-CITE-CITE-CITE-CITE-CITE-CITE-CITE-CITE-CITE

Generated 0 of 1 mixed pair_coeff terms from geometric mixing rule
Neighbor list info ...
  update: every = 1 steps, delay = 3 steps, check = yes
  max neighbors/atom: 6000, page size: 100000
  master list distance cutoff = 31
  ghost atom cutoff = 31
  binsize = 15.5, bins = 4 4 4
  4 neighbor lists, perpetual/occasional/extra = 4 0 0
  (1) pair lj/cut, perpetual, skip trim from (4)
      attributes: half, newton on, cut 15
      pair build: skip/trim
      stencil: none
      bin: none
  (2) pair sg, perpetual, skip trim from (4)
      attributes: half, newton on, cut 16
      pair build: skip/trim
      stencil: none
      bin: none
  (3) pair cb, perpetual, skip from (4)
      attributes: half, newton on
      pair build: skip
      stencil: none
      bin: none
  (4) neighbor class addition, perpetual
      attributes: half, newton on
      pair build: half/bin/newton
      stencil: half/bin/3d
      bin: standard
Per MPI rank memory allocation (min/avg/max) = 13.29 | 13.4 | 13.93 Mbytes
   Step          Temp          E_pair         E_mol          TotEng         Press          Volume    
         0   300            308.5124       19603.922      20341.671     -432.43506      216000       
     10000   308.71881      373.71132      18568.425      19383.847     -313.89117      172136.83    
     20000   319.74694      375.11214      18539.114      19371.717     -417.40409      126541.73    
Loop time of 7.51866 on 64 procs for 20000 steps with 481 atoms

Performance: 11.491 ns/day, 2.089 hours/ns, 2660.047 timesteps/s, 1.279 Matom-step/s
99.8% CPU use with 64 MPI tasks x 1 OpenMP threads

MPI task timing breakdown:
Section |  min time  |  avg time  |  max time  |%varavg| %total
---------------------------------------------------------------
Pair    | 0.13634    | 0.46651    | 2.3837     |  76.2 |  6.20
Bond    | 0.0038549  | 0.36835    | 1.9495     | 104.8 |  4.90
Neigh   | 0.018868   | 0.02255    | 0.02476    |   1.0 |  0.30
Comm    | 2.6065     | 4.3603     | 5.3126     |  42.8 | 57.99
Output  | 0.0036032  | 0.010416   | 0.018159   |   4.6 |  0.14
Modify  | 0.70522    | 1.986      | 4.1255     |  72.1 | 26.41
Other   |            | 0.3045     |            |       |  4.05

Nlocal:        7.51562 ave          36 max           0 min
Histogram: 41 7 0 0 0 1 2 9 3 1
Nghost:        1804.95 ave        2371 max        1288 min
Histogram: 16 0 0 0 32 0 0 0 0 16
Neighs:              0 ave           0 max           0 min
Histogram: 64 0 0 0 0 0 0 0 0 0

Total # of neighbors = 0
Ave neighs/atom = 0
Ave special neighs/atom = 15.567568
Neighbor list builds = 52
Dangerous builds = 0
unfix           mynpt
unfix           mytth1

# 5. Umbrella sampling
fix             mynvt all nvt temp ${tem} ${tem} 100
fix             mynvt all nvt temp 300 ${tem} 100
fix             mynvt all nvt temp 300 300 100
fix             mytth1 C spring/self ${k2}
fix             mytth1 C spring/self 3.5

variable        cpt loop 51
label           loop
variable        zdes equal  -15+0.60*(${cpt}-1)
variable        zdes equal  -15+0.60*(1-1)
variable        zave equal xcm(H2,z)
fix             mytth2 H2 spring tether ${k1} 2.5 2.5 ${zdes} 0
fix             mytth2 H2 spring tether 1.2 2.5 2.5 ${zdes} 0
fix             mytth2 H2 spring tether 1.2 2.5 2.5 -15 0
run             10000
Generated 0 of 1 mixed pair_coeff terms from geometric mixing rule
Per MPI rank memory allocation (min/avg/max) = 13.32 | 13.62 | 14.95 Mbytes
   Step          Temp          E_pair         E_mol          TotEng         Press     
     20000   319.74694      375.11214      18539.114      19371.717     -417.40409    
     30000   312.39065      347.64189      18589.456      19384.063     -1162.6886    
Loop time of 3.60945 on 64 procs for 10000 steps with 481 atoms

Performance: 11.969 ns/day, 2.005 hours/ns, 2770.507 timesteps/s, 1.333 Matom-step/s
99.9% CPU use with 64 MPI tasks x 1 OpenMP threads

MPI task timing breakdown:
Section |  min time  |  avg time  |  max time  |%varavg| %total
---------------------------------------------------------------
Pair    | 0.0034344  | 0.14608    | 1.0453     |  70.5 |  4.05
Bond    | 0.001064   | 0.16556    | 0.90706    |  68.3 |  4.59
Neigh   | 0.050052   | 0.058495   | 0.062959   |   1.3 |  1.62
Comm    | 1.3272     | 2.7154     | 3.2733     |  38.5 | 75.23
Output  | 0.0015363  | 0.0040941  | 0.0070257  |   2.7 |  0.11
Modify  | 0.1285     | 0.40166    | 1.867      |  81.3 | 11.13
Other   |            | 0.1181     |            |       |  3.27

Nlocal:        7.51562 ave          36 max           0 min
Histogram: 41 7 0 0 0 2 7 2 4 1
Nghost:        1805.42 ave        2374 max        1288 min
Histogram: 16 0 0 0 32 0 0 0 0 16
Neighs:              0 ave           0 max           0 min
Histogram: 64 0 0 0 0 0 0 0 0 0

Total # of neighbors = 0
Ave neighs/atom = 0
Ave special neighs/atom = 15.567568
Neighbor list builds = 123
Dangerous builds = 0
fix             myat1 all ave/time 1000 10 10000 v_zave v_zdes file simulation_data/abpot/${cpt}.dat
fix             myat1 all ave/time 1000 10 10000 v_zave v_zdes file simulation_data/abpot/1.dat
run             50000
Generated 0 of 1 mixed pair_coeff terms from geometric mixing rule
Per MPI rank memory allocation (min/avg/max) = 13.32 | 13.62 | 14.95 Mbytes
   Step          Temp          E_pair         E_mol          TotEng         Press     
     30000   312.39065      347.64189      18589.456      19384.063     -1162.6886    
     40000   302.23114      412.92521      18533.293      19378.647      643.67603    
     50000   309.63009      402.7266       18560.399      19406.141      265.56145    
     60000   309.25531      381.93527      18564.699      19389.113     -211.07375    
     70000   299.40571      383.01697      18550.481      19361.885     -271.97458    
     80000   301.03025      394.36248      18532.829      19357.902      116.16676    
Loop time of 18.1955 on 64 procs for 50000 steps with 481 atoms

Performance: 11.871 ns/day, 2.022 hours/ns, 2747.933 timesteps/s, 1.322 Matom-step/s
100.0% CPU use with 64 MPI tasks x 1 OpenMP threads

MPI task timing breakdown:
Section |  min time  |  avg time  |  max time  |%varavg| %total
---------------------------------------------------------------
Pair    | 0.017687   | 0.7248     | 5.5808     | 155.6 |  3.98
Bond    | 0.0053565  | 0.82679    | 4.7116     | 153.6 |  4.54
Neigh   | 0.12819    | 0.14957    | 0.15972    |   2.1 |  0.82
Comm    | 6.4161     | 13.794     | 16.715     |  86.5 | 75.81
Output  | 0.0075526  | 0.017815   | 0.028655   |   5.1 |  0.10
Modify  | 0.59663    | 2.0917     | 9.5254     | 185.0 | 11.50
Other   |            | 0.5912     |            |       |  3.25

Nlocal:        7.51562 ave          36 max           0 min
Histogram: 42 6 0 0 0 1 4 6 4 1
Nghost:        1820.42 ave        2411 max        1293 min
Histogram: 16 0 0 0 32 0 0 0 0 16
Neighs:              0 ave           0 max           0 min
Histogram: 64 0 0 0 0 0 0 0 0 0

Total # of neighbors = 0
Ave neighs/atom = 0
Ave special neighs/atom = 15.567568
Neighbor list builds = 299
Dangerous builds = 0
unfix           myat1
next            cpt
jump            SELF loop
variable        zdes equal  -15+0.60*(${cpt}-1)
variable        zdes equal  -15+0.60*(2-1)
variable        zave equal xcm(H2,z)
fix             mytth2 H2 spring tether ${k1} 2.5 2.5 ${zdes} 0
fix             mytth2 H2 spring tether 1.2 2.5 2.5 ${zdes} 0
fix             mytth2 H2 spring tether 1.2 2.5 2.5 -14.4 0
run             10000
Generated 0 of 1 mixed pair_coeff terms from geometric mixing rule
Per MPI rank memory allocation (min/avg/max) = 13.32 | 13.62 | 14.95 Mbytes
   Step          Temp          E_pair         E_mol          TotEng         Press     
     80000   301.03025      394.36248      18532.829      19357.902      116.16676    
     90000   296.37337      381.54458      18558.528      19364.12      -158.77364    
Loop time of 3.59815 on 64 procs for 10000 steps with 481 atoms

Performance: 12.006 ns/day, 1.999 hours/ns, 2779.204 timesteps/s, 1.337 Matom-step/s
100.0% CPU use with 64 MPI tasks x 1 OpenMP threads

MPI task timing breakdown:
Section |  min time  |  avg time  |  max time  |%varavg| %total
---------------------------------------------------------------
Pair    | 0.0034256  | 0.14487    | 1.0629     |  70.5 |  4.03
Bond    | 0.0010555  | 0.16483    | 0.86327    |  68.3 |  4.58
Neigh   | 0.014019   | 0.016393   | 0.017533   |   0.7 |  0.46
Comm    | 1.3803     | 2.7339     | 3.3139     |  38.8 | 75.98
Output  | 0.0014362  | 0.003087   | 0.0048283  |   1.9 |  0.09
Modify  | 0.11953    | 0.41817    | 1.9127     |  82.4 | 11.62
Other   |            | 0.1169     |            |       |  3.25

Nlocal:        7.51562 ave          34 max           0 min
Histogram: 42 5 1 0 0 0 2 7 4 3
Nghost:         1811.8 ave        2387 max        1290 min
Histogram: 16 0 0 0 32 0 0 0 0 16
Neighs:              0 ave           0 max           0 min
Histogram: 64 0 0 0 0 0 0 0 0 0

Total # of neighbors = 0
Ave neighs/atom = 0
Ave special neighs/atom = 15.567568
Neighbor list builds = 33
Dangerous builds = 0
fix             myat1 all ave/time 1000 10 10000 v_zave v_zdes file simulation_data/abpot/${cpt}.dat
fix             myat1 all ave/time 1000 10 10000 v_zave v_zdes file simulation_data/abpot/2.dat
run             50000
Generated 0 of 1 mixed pair_coeff terms from geometric mixing rule
Per MPI rank memory allocation (min/avg/max) = 13.32 | 13.62 | 14.95 Mbytes
   Step          Temp          E_pair         E_mol          TotEng         Press     
     90000   296.37337      381.54458      18558.528      19364.12      -158.77364    
    100000   318.76164      385.71662      18566.497      19408.294     -56.68598     
    110000   307.62518      398.91962      18556.433      19395.499      174.33458    
    120000   302.60868      378.41821      18574.664      19386.052     -245.82142    
    130000   288.19852      385.49086      18561.287      19359.129     -143.28972    
    140000   275.59701      399.5731       18533.174      19327.068      113.96211    
Loop time of 17.6078 on 64 procs for 50000 steps with 481 atoms

Performance: 12.267 ns/day, 1.956 hours/ns, 2839.647 timesteps/s, 1.366 Matom-step/s
100.0% CPU use with 64 MPI tasks x 1 OpenMP threads

MPI task timing breakdown:
Section |  min time  |  avg time  |  max time  |%varavg| %total
---------------------------------------------------------------
Pair    | 0.017705   | 0.72052    | 5.3445     | 156.3 |  4.09
Bond    | 0.0053227  | 0.8241     | 4.3813     | 152.9 |  4.68
Neigh   | 0.057167   | 0.066708   | 0.071381   |   1.4 |  0.38
Comm    | 6.5928     | 13.366     | 16.242     |  85.7 | 75.91
Output  | 0.007303   | 0.014773   | 0.022427   |   4.0 |  0.08
Modify  | 0.57908    | 2.0284     | 9.2191     | 178.9 | 11.52
Other   |            | 0.5876     |            |       |  3.34

Nlocal:        7.51562 ave          36 max           0 min
Histogram: 41 6 1 0 2 1 3 3 2 5
Nghost:         1825.2 ave        2418 max        1290 min
Histogram: 16 0 0 0 32 0 0 0 0 16
Neighs:              0 ave           0 max           0 min
Histogram: 64 0 0 0 0 0 0 0 0 0

Total # of neighbors = 0
Ave neighs/atom = 0
Ave special neighs/atom = 15.567568
Neighbor list builds = 136
Dangerous builds = 0
unfix           myat1
next            cpt
jump            SELF loop
variable        zdes equal  -15+0.60*(${cpt}-1)
variable        zdes equal  -15+0.60*(3-1)
variable        zave equal xcm(H2,z)
fix             mytth2 H2 spring tether ${k1} 2.5 2.5 ${zdes} 0
fix             mytth2 H2 spring tether 1.2 2.5 2.5 ${zdes} 0
fix             mytth2 H2 spring tether 1.2 2.5 2.5 -13.8 0
run             10000
Generated 0 of 1 mixed pair_coeff terms from geometric mixing rule
Per MPI rank memory allocation (min/avg/max) = 13.32 | 13.62 | 14.95 Mbytes
   Step          Temp          E_pair         E_mol          TotEng         Press     
    140000   275.59701      399.5731       18533.174      19327.068      113.96211    
    150000   283.42006      387.12883      18535.38       19328.023     -138.76403    
Loop time of 3.58026 on 64 procs for 10000 steps with 481 atoms

Performance: 12.066 ns/day, 1.989 hours/ns, 2793.090 timesteps/s, 1.343 Matom-step/s
100.0% CPU use with 64 MPI tasks x 1 OpenMP threads

MPI task timing breakdown:
Section |  min time  |  avg time  |  max time  |%varavg| %total
---------------------------------------------------------------
Pair    | 0.0033765  | 0.14476    | 1.0833     |  70.1 |  4.04
Bond    | 0.0010529  | 0.16469    | 0.91462    |  68.4 |  4.60
Neigh   | 0.012885   | 0.015004   | 0.016032   |   0.7 |  0.42
Comm    | 1.3176     | 2.7219     | 3.3129     |  38.9 | 76.02
Output  | 0.0014338  | 0.0028569  | 0.0043106  |   1.7 |  0.08
Modify  | 0.1102     | 0.41382    | 1.9039     |  83.4 | 11.56
Other   |            | 0.1172     |            |       |  3.27

Nlocal:        7.51562 ave          33 max           0 min
Histogram: 42 4 2 0 0 0 3 4 5 4
Nghost:        1821.55 ave        2413 max        1292 min
Histogram: 16 0 0 0 32 0 0 0 0 16
Neighs:              0 ave           0 max           0 min
Histogram: 64 0 0 0 0 0 0 0 0 0

Total # of neighbors = 0
Ave neighs/atom = 0
Ave special neighs/atom = 15.567568
Neighbor list builds = 30
Dangerous builds = 0
fix             myat1 all ave/time 1000 10 10000 v_zave v_zdes file simulation_data/abpot/${cpt}.dat
fix             myat1 all ave/time 1000 10 10000 v_zave v_zdes file simulation_data/abpot/3.dat
run             50000
Generated 0 of 1 mixed pair_coeff terms from geometric mixing rule
Per MPI rank memory allocation (min/avg/max) = 13.32 | 13.62 | 14.95 Mbytes
   Step          Temp          E_pair         E_mol          TotEng         Press     
    150000   283.42006      387.12883      18535.38       19328.023     -138.76403    
    160000   297.09225      379.09854      18578.052      19382.226     -311.25617    
    170000   290.5551       397.70806      18557.294      19370.725      103.98356    
    180000   291.56855      393.73373      18551.204      19362.111      48.26886     
    190000   299.22657      372.00175      18546.029      19346.161     -436.07759    
    200000   283.26583      382.9748       18553.69       19341.958     -201.52131    
Loop time of 17.5491 on 64 procs for 50000 steps with 481 atoms

Performance: 12.308 ns/day, 1.950 hours/ns, 2849.144 timesteps/s, 1.370 Matom-step/s
100.0% CPU use with 64 MPI tasks x 1 OpenMP threads

MPI task timing breakdown:
Section |  min time  |  avg time  |  max time  |%varavg| %total
---------------------------------------------------------------
Pair    | 0.017114   | 0.72218    | 5.3284     | 156.4 |  4.12
Bond    | 0.0052931  | 0.82256    | 4.456      | 152.4 |  4.69
Neigh   | 0.051211   | 0.059741   | 0.063866   |   1.4 |  0.34
Comm    | 6.4369     | 13.339     | 16.158     |  85.3 | 76.01
Output  | 0.0077124  | 0.014901   | 0.022139   |   3.8 |  0.08
Modify  | 0.59783    | 2.0022     | 9.1788     | 178.7 | 11.41
Other   |            | 0.5888     |            |       |  3.36

Nlocal:        7.51562 ave          38 max           0 min
Histogram: 41 7 0 0 1 2 4 6 2 1
Nghost:        1821.73 ave        2411 max        1286 min
Histogram: 16 0 0 0 32 0 0 0 0 16
Neighs:              0 ave           0 max           0 min
Histogram: 64 0 0 0 0 0 0 0 0 0

Total # of neighbors = 0
Ave neighs/atom = 0
Ave special neighs/atom = 15.567568
Neighbor list builds = 121
Dangerous builds = 0
unfix           myat1
next            cpt
jump            SELF loop
variable        zdes equal  -15+0.60*(${cpt}-1)
variable        zdes equal  -15+0.60*(4-1)
variable        zave equal xcm(H2,z)
fix             mytth2 H2 spring tether ${k1} 2.5 2.5 ${zdes} 0
fix             mytth2 H2 spring tether 1.2 2.5 2.5 ${zdes} 0
fix             mytth2 H2 spring tether 1.2 2.5 2.5 -13.2 0
run             10000
Generated 0 of 1 mixed pair_coeff terms from geometric mixing rule
Per MPI rank memory allocation (min/avg/max) = 13.32 | 13.62 | 14.95 Mbytes
   Step          Temp          E_pair         E_mol          TotEng         Press     
    200000   283.26583      382.9748       18553.69       19341.958     -201.52131    
    210000   309.08444      384.94306      18535.172      19362.35      -205.74912    
Loop time of 3.50328 on 64 procs for 10000 steps with 481 atoms

Performance: 12.331 ns/day, 1.946 hours/ns, 2854.472 timesteps/s, 1.373 Matom-step/s
100.0% CPU use with 64 MPI tasks x 1 OpenMP threads

MPI task timing breakdown:
Section |  min time  |  avg time  |  max time  |%varavg| %total
---------------------------------------------------------------
Pair    | 0.0032563  | 0.14407    | 1.0777     |  69.7 |  4.11
Bond    | 0.0010618  | 0.16448    | 0.89488    |  68.2 |  4.70
Neigh   | 0.0094754  | 0.011185   | 0.011994   |   0.6 |  0.32
Comm    | 1.2802     | 2.6634     | 3.2368     |  38.3 | 76.03
Output  | 0.0014486  | 0.0028323  | 0.0042641  |   1.7 |  0.08
Modify  | 0.11224    | 0.39928    | 1.835      |  80.4 | 11.40
Other   |            | 0.118      |            |       |  3.37

Nlocal:        7.51562 ave          36 max           0 min
Histogram: 42 5 1 0 1 0 3 5 5 2
Nghost:        1825.19 ave        2415 max        1290 min
Histogram: 16 0 0 0 32 0 0 0 0 16
Neighs:              0 ave           0 max           0 min
Histogram: 64 0 0 0 0 0 0 0 0 0

Total # of neighbors = 0
Ave neighs/atom = 0
Ave special neighs/atom = 15.567568
Neighbor list builds = 23
Dangerous builds = 0
fix             myat1 all ave/time 1000 10 10000 v_zave v_zdes file simulation_data/abpot/${cpt}.dat
fix             myat1 all ave/time 1000 10 10000 v_zave v_zdes file simulation_data/abpot/4.dat
run             50000
Generated 0 of 1 mixed pair_coeff terms from geometric mixing rule
Per MPI rank memory allocation (min/avg/max) = 13.32 | 13.62 | 14.95 Mbytes
   Step          Temp          E_pair         E_mol          TotEng         Press     
    210000   309.08444      384.94306      18535.172      19362.35      -205.74912    
    220000   327.5145       376.22264      18545.717      19390.544     -289.20234    
    230000   314.67277      394.74967      18538.737      19383.717      281.54323    
    240000   302.07303      380.48599      18546.05       19358.739     -176.08263    
    250000   307.12693      386.12033      18519.92       19345.474     -36.464481    
    260000   299.11025      391.45226      18554.832      19374.248      0.88541756   
Loop time of 17.5668 on 64 procs for 50000 steps with 481 atoms

Performance: 12.296 ns/day, 1.952 hours/ns, 2846.277 timesteps/s, 1.369 Matom-step/s
100.0% CPU use with 64 MPI tasks x 1 OpenMP threads

MPI task timing breakdown:
Section |  min time  |  avg time  |  max time  |%varavg| %total
---------------------------------------------------------------
Pair    | 0.017351   | 0.71903    | 5.3339     | 154.1 |  4.09
Bond    | 0.0052693  | 0.82052    | 4.2406     | 151.2 |  4.67
Neigh   | 0.036148   | 0.04242    | 0.045278   |   1.2 |  0.24
Comm    | 7.2262     | 13.372     | 16.229     |  84.8 | 76.12
Output  | 0.0074145  | 0.014257   | 0.021128   |   3.7 |  0.08
Modify  | 0.58445    | 2.0148     | 9.2255     | 180.0 | 11.47
Other   |            | 0.5837     |            |       |  3.32

Nlocal:        7.51562 ave          36 max           0 min
Histogram: 42 5 1 0 1 0 5 3 4 3
Nghost:        1817.98 ave        2404 max        1289 min
Histogram: 16 0 0 0 32 0 0 0 0 16
Neighs:              0 ave           0 max           0 min
Histogram: 64 0 0 0 0 0 0 0 0 0

Total # of neighbors = 0
Ave neighs/atom = 0
Ave special neighs/atom = 15.567568
Neighbor list builds = 86
Dangerous builds = 0
unfix           myat1
next            cpt
jump            SELF loop
variable        zdes equal  -15+0.60*(${cpt}-1)
variable        zdes equal  -15+0.60*(5-1)
variable        zave equal xcm(H2,z)
fix             mytth2 H2 spring tether ${k1} 2.5 2.5 ${zdes} 0
fix             mytth2 H2 spring tether 1.2 2.5 2.5 ${zdes} 0
fix             mytth2 H2 spring tether 1.2 2.5 2.5 -12.6 0
run             10000
Generated 0 of 1 mixed pair_coeff terms from geometric mixing rule
Per MPI rank memory allocation (min/avg/max) = 13.32 | 13.62 | 14.95 Mbytes
   Step          Temp          E_pair         E_mol          TotEng         Press     
    260000   299.11025      391.45226      18554.832      19374.248      0.88541756   
    270000   318.08835      381.73379      18564.977      19401.829     -198.73458    
Loop time of 3.43344 on 64 procs for 10000 steps with 481 atoms

Performance: 12.582 ns/day, 1.907 hours/ns, 2912.534 timesteps/s, 1.401 Matom-step/s
100.0% CPU use with 64 MPI tasks x 1 OpenMP threads

MPI task timing breakdown:
Section |  min time  |  avg time  |  max time  |%varavg| %total
---------------------------------------------------------------
Pair    | 0.003517   | 0.14397    | 1.0598     |  69.1 |  4.19
Bond    | 0.0010609  | 0.16453    | 0.85512    |  68.3 |  4.79
Neigh   | 0.0070305  | 0.008228   | 0.0088262  |   0.5 |  0.24
Comm    | 1.2899     | 2.614      | 3.1612     |  37.7 | 76.13
Output  | 0.0014648  | 0.002839   | 0.0042401  |   1.6 |  0.08
Modify  | 0.11947    | 0.38325    | 1.7613     |  78.2 | 11.16
Other   |            | 0.1166     |            |       |  3.40

Nlocal:        7.51562 ave          36 max           0 min
Histogram: 42 5 1 0 2 1 2 5 2 4
Nghost:        1823.33 ave        2413 max        1288 min
Histogram: 16 0 0 0 32 0 0 0 0 16
Neighs:              0 ave           0 max           0 min
Histogram: 64 0 0 0 0 0 0 0 0 0

Total # of neighbors = 0
Ave neighs/atom = 0
Ave special neighs/atom = 15.567568
Neighbor list builds = 17
Dangerous builds = 0
fix             myat1 all ave/time 1000 10 10000 v_zave v_zdes file simulation_data/abpot/${cpt}.dat
fix             myat1 all ave/time 1000 10 10000 v_zave v_zdes file simulation_data/abpot/5.dat
run             50000
Generated 0 of 1 mixed pair_coeff terms from geometric mixing rule
Per MPI rank memory allocation (min/avg/max) = 13.32 | 13.62 | 14.95 Mbytes
   Step          Temp          E_pair         E_mol          TotEng         Press     
    270000   318.08835      381.73379      18564.977      19401.829     -198.73458    
    280000   309.05835      383.17178      18538.856      19364.225     -174.67608    
    290000   295.05511      389.99989      18526.321      19338.483     -5.2016399    
    300000   287.00093      382.80568      18543.401      19336.845     -172.91733    
    310000   286.49464      380.86353      18524.184      19314.961     -187.07367    
    320000   282.92006      391.13299      18550.616      19346.548     -36.675331    
Loop time of 17.6037 on 64 procs for 50000 steps with 481 atoms

Performance: 12.270 ns/day, 1.956 hours/ns, 2840.310 timesteps/s, 1.366 Matom-step/s
100.0% CPU use with 64 MPI tasks x 1 OpenMP threads

MPI task timing breakdown:
Section |  min time  |  avg time  |  max time  |%varavg| %total
---------------------------------------------------------------
Pair    | 0.017754   | 0.72051    | 5.3424     | 155.8 |  4.09
Bond    | 0.0054698  | 0.8214     | 4.4274     | 152.1 |  4.67
Neigh   | 0.037452   | 0.043789   | 0.046814   |   1.2 |  0.25
Comm    | 6.5485     | 13.369     | 16.261     |  85.2 | 75.95
Output  | 0.0073062  | 0.014167   | 0.021071   |   3.7 |  0.08
Modify  | 0.57505    | 2.0479     | 9.2402     | 178.8 | 11.63
Other   |            | 0.5867     |            |       |  3.33

Nlocal:        7.51562 ave          34 max           0 min
Histogram: 41 6 1 0 0 0 3 4 5 4
Nghost:        1824.73 ave        2420 max        1290 min
Histogram: 16 0 0 0 32 0 0 0 0 16
Neighs:              0 ave           0 max           0 min
Histogram: 64 0 0 0 0 0 0 0 0 0

Total # of neighbors = 0
Ave neighs/atom = 0
Ave special neighs/atom = 15.567568
Neighbor list builds = 89
Dangerous builds = 0
unfix           myat1
next            cpt
jump            SELF loop
variable        zdes equal  -15+0.60*(${cpt}-1)
variable        zdes equal  -15+0.60*(6-1)
variable        zave equal xcm(H2,z)
fix             mytth2 H2 spring tether ${k1} 2.5 2.5 ${zdes} 0
fix             mytth2 H2 spring tether 1.2 2.5 2.5 ${zdes} 0
fix             mytth2 H2 spring tether 1.2 2.5 2.5 -12 0
run             10000
Generated 0 of 1 mixed pair_coeff terms from geometric mixing rule
Per MPI rank memory allocation (min/avg/max) = 13.32 | 13.62 | 14.95 Mbytes
   Step          Temp          E_pair         E_mol          TotEng         Press     
    320000   282.92006      391.13299      18550.616      19346.548     -36.675331    
    330000   294.38194      394.16749      18549.053      19364.419      9.584573     
Loop time of 3.44836 on 64 procs for 10000 steps with 481 atoms

Performance: 12.528 ns/day, 1.916 hours/ns, 2899.928 timesteps/s, 1.395 Matom-step/s
100.0% CPU use with 64 MPI tasks x 1 OpenMP threads

MPI task timing breakdown:
Section |  min time  |  avg time  |  max time  |%varavg| %total
---------------------------------------------------------------
Pair    | 0.0034716  | 0.14399    | 1.1072     |  69.8 |  4.18
Bond    | 0.0010435  | 0.16383    | 0.85196    |  67.9 |  4.75
Neigh   | 0.0078328  | 0.0092254  | 0.0098788  |   0.6 |  0.27
Comm    | 1.3056     | 2.6126     | 3.182      |  37.7 | 75.76
Output  | 0.0014071  | 0.00277    | 0.00417    |   1.7 |  0.08
Modify  | 0.11363    | 0.39928    | 1.776      |  77.8 | 11.58
Other   |            | 0.1166     |            |       |  3.38

Nlocal:        7.51562 ave          35 max           0 min
Histogram: 43 2 3 0 0 1 2 5 5 3
Nghost:         1819.2 ave        2403 max        1292 min
Histogram: 16 0 0 0 32 0 0 0 0 16
Neighs:              0 ave           0 max           0 min
Histogram: 64 0 0 0 0 0 0 0 0 0

Total # of neighbors = 0
Ave neighs/atom = 0
Ave special neighs/atom = 15.567568
Neighbor list builds = 19
Dangerous builds = 0
fix             myat1 all ave/time 1000 10 10000 v_zave v_zdes file simulation_data/abpot/${cpt}.dat
fix             myat1 all ave/time 1000 10 10000 v_zave v_zdes file simulation_data/abpot/6.dat
run             50000
Generated 0 of 1 mixed pair_coeff terms from geometric mixing rule
Per MPI rank memory allocation (min/avg/max) = 13.32 | 13.62 | 14.95 Mbytes
   Step          Temp          E_pair         E_mol          TotEng         Press     
    330000   294.38194      394.16749      18549.053      19364.419      9.584573     
    340000   288.97702      391.36161      18550.347      19355.174      96.056629    
    350000   289.48878      389.12095      18501.381      19304.699     -0.19720014   
    360000   290.84848      389.96381      18518.223      19324.329      49.261057    
    370000   295.84955      393.00861      18524.962      19341.269      52.80464     
    380000   293.66967      390.32791      18544.179      19354.686     -62.94096     
Loop time of 17.6864 on 64 procs for 50000 steps with 481 atoms

Performance: 12.213 ns/day, 1.965 hours/ns, 2827.025 timesteps/s, 1.360 Matom-step/s
100.0% CPU use with 64 MPI tasks x 1 OpenMP threads

MPI task timing breakdown:
Section |  min time  |  avg time  |  max time  |%varavg| %total
---------------------------------------------------------------
Pair    | 0.017561   | 0.72403    | 5.6004     | 157.6 |  4.09
Bond    | 0.0053607  | 0.82308    | 4.3538     | 152.7 |  4.65
Neigh   | 0.040645   | 0.047458   | 0.050648   |   1.2 |  0.27
Comm    | 6.8059     | 13.44      | 16.316     |  85.9 | 75.99
Output  | 0.0073512  | 0.014217   | 0.021135   |   3.7 |  0.08
Modify  | 0.59756    | 2.0509     | 9.3158     | 180.7 | 11.60
Other   |            | 0.587      |            |       |  3.32

Nlocal:        7.51562 ave          36 max           0 min
Histogram: 42 6 0 0 1 0 7 1 4 3
Nghost:        1822.95 ave        2414 max        1290 min
Histogram: 16 0 0 0 32 0 0 0 0 16
Neighs:              0 ave           0 max           0 min
Histogram: 64 0 0 0 0 0 0 0 0 0

Total # of neighbors = 0
Ave neighs/atom = 0
Ave special neighs/atom = 15.567568
Neighbor list builds = 95
Dangerous builds = 0
unfix           myat1
next            cpt
jump            SELF loop
variable        zdes equal  -15+0.60*(${cpt}-1)
variable        zdes equal  -15+0.60*(7-1)
variable        zave equal xcm(H2,z)
fix             mytth2 H2 spring tether ${k1} 2.5 2.5 ${zdes} 0
fix             mytth2 H2 spring tether 1.2 2.5 2.5 ${zdes} 0
fix             mytth2 H2 spring tether 1.2 2.5 2.5 -11.4 0
run             10000
Generated 0 of 1 mixed pair_coeff terms from geometric mixing rule
Per MPI rank memory allocation (min/avg/max) = 13.32 | 13.62 | 14.95 Mbytes
   Step          Temp          E_pair         E_mol          TotEng         Press     
    380000   293.66967      390.32791      18544.179      19354.686     -62.94096     
    390000   297.06933      384.75761      18532.838      19342.639     -24.298964    
Loop time of 3.46094 on 64 procs for 10000 steps with 481 atoms

Performance: 12.482 ns/day, 1.923 hours/ns, 2889.387 timesteps/s, 1.390 Matom-step/s
100.0% CPU use with 64 MPI tasks x 1 OpenMP threads

MPI task timing breakdown:
Section |  min time  |  avg time  |  max time  |%varavg| %total
---------------------------------------------------------------
Pair    | 0.0034094  | 0.14408    | 1.0998     |  69.6 |  4.16
Bond    | 0.0010874  | 0.16386    | 0.85728    |  67.7 |  4.73
Neigh   | 0.0037165  | 0.0043655  | 0.0046393  |   0.4 |  0.13
Comm    | 1.3146     | 2.6304     | 3.1991     |  37.9 | 76.00
Output  | 0.0014039  | 0.0027512  | 0.0041594  |   1.6 |  0.08
Modify  | 0.11307    | 0.39878    | 1.7998     |  79.2 | 11.52
Other   |            | 0.1167     |            |       |  3.37

Nlocal:        7.51562 ave          33 max           0 min
Histogram: 43 2 3 0 0 1 3 4 0 8
Nghost:        1818.55 ave        2402 max        1291 min
Histogram: 16 0 0 0 32 0 0 0 0 16
Neighs:              0 ave           0 max           0 min
Histogram: 64 0 0 0 0 0 0 0 0 0

Total # of neighbors = 0
Ave neighs/atom = 0
Ave special neighs/atom = 15.567568
Neighbor list builds = 9
Dangerous builds = 0
fix             myat1 all ave/time 1000 10 10000 v_zave v_zdes file simulation_data/abpot/${cpt}.dat
fix             myat1 all ave/time 1000 10 10000 v_zave v_zdes file simulation_data/abpot/7.dat
run             50000
Generated 0 of 1 mixed pair_coeff terms from geometric mixing rule
Per MPI rank memory allocation (min/avg/max) = 13.32 | 13.62 | 14.95 Mbytes
   Step          Temp          E_pair         E_mol          TotEng         Press     
    390000   297.06933      384.75761      18532.838      19342.639     -24.298964    
    400000   299.95768      386.63111      18522.875      19338.682     -61.119286    
    410000   298.88035      384.87275      18507.086      19319.593     -33.476335    
    420000   278.07698      395.52173      18553.372      19346.763      76.898556    
    430000   295.4097       382.79352      18551.234      19356.696     -75.509385    
    440000   294.12403      384.91964      18523.781      19329.53      -88.303183    
Loop time of 17.4165 on 64 procs for 50000 steps with 481 atoms

Performance: 12.402 ns/day, 1.935 hours/ns, 2870.839 timesteps/s, 1.381 Matom-step/s
100.0% CPU use with 64 MPI tasks x 1 OpenMP threads

MPI task timing breakdown:
Section |  min time  |  avg time  |  max time  |%varavg| %total
---------------------------------------------------------------
Pair    | 0.017479   | 0.72292    | 5.6167     | 156.6 |  4.15
Bond    | 0.0054116  | 0.82213    | 4.1181     | 151.9 |  4.72
Neigh   | 0.03337    | 0.038784   | 0.041375   |   1.1 |  0.22
Comm    | 6.61       | 13.24      | 16.101     |  85.0 | 76.02
Output  | 0.0072891  | 0.014108   | 0.020984   |   3.7 |  0.08
Modify  | 0.56994    | 1.9956     | 9.0665     | 176.6 | 11.46
Other   |            | 0.5832     |            |       |  3.35

Nlocal:        7.51562 ave          35 max           0 min
Histogram: 41 6 1 0 2 0 3 3 3 5
Nghost:        1817.33 ave        2398 max        1290 min
Histogram: 16 0 0 0 32 0 0 0 0 16
Neighs:              0 ave           0 max           0 min
Histogram: 64 0 0 0 0 0 0 0 0 0

Total # of neighbors = 0
Ave neighs/atom = 0
Ave special neighs/atom = 15.567568
Neighbor list builds = 78
Dangerous builds = 0
unfix           myat1
next            cpt
jump            SELF loop
variable        zdes equal  -15+0.60*(${cpt}-1)
variable        zdes equal  -15+0.60*(8-1)
variable        zave equal xcm(H2,z)
fix             mytth2 H2 spring tether ${k1} 2.5 2.5 ${zdes} 0
fix             mytth2 H2 spring tether 1.2 2.5 2.5 ${zdes} 0
fix             mytth2 H2 spring tether 1.2 2.5 2.5 -10.8 0
run             10000
Generated 0 of 1 mixed pair_coeff terms from geometric mixing rule
Per MPI rank memory allocation (min/avg/max) = 13.32 | 13.62 | 14.95 Mbytes
   Step          Temp          E_pair         E_mol          TotEng         Press     
    440000   294.12403      384.91964      18523.781      19329.53      -88.303183    
    450000   297.41489      390.30884      18515.152      19330.999      144.26683    
Loop time of 3.58743 on 64 procs for 10000 steps with 481 atoms

Performance: 12.042 ns/day, 1.993 hours/ns, 2787.512 timesteps/s, 1.341 Matom-step/s
100.0% CPU use with 64 MPI tasks x 1 OpenMP threads

MPI task timing breakdown:
Section |  min time  |  avg time  |  max time  |%varavg| %total
---------------------------------------------------------------
Pair    | 0.0032682  | 0.14408    | 1.1532     |  70.2 |  4.02
Bond    | 0.0010812  | 0.16432    | 0.82684    |  68.0 |  4.58
Neigh   | 0.0075446  | 0.0087307  | 0.0092799  |   0.5 |  0.24
Comm    | 1.3624     | 2.749      | 3.3076     |  38.4 | 76.63
Output  | 0.0015193  | 0.0028878  | 0.004292   |   1.6 |  0.08
Modify  | 0.1261     | 0.40191    | 1.9135     |  83.0 | 11.20
Other   |            | 0.1165     |            |       |  3.25

Nlocal:        7.51562 ave          39 max           0 min
Histogram: 42 5 1 1 1 2 5 4 2 1
Nghost:        1818.08 ave        2407 max        1285 min
Histogram: 16 0 0 0 32 0 0 0 0 16
Neighs:              0 ave           0 max           0 min
Histogram: 64 0 0 0 0 0 0 0 0 0

Total # of neighbors = 0
Ave neighs/atom = 0
Ave special neighs/atom = 15.567568
Neighbor list builds = 17
Dangerous builds = 0
fix             myat1 all ave/time 1000 10 10000 v_zave v_zdes file simulation_data/abpot/${cpt}.dat
fix             myat1 all ave/time 1000 10 10000 v_zave v_zdes file simulation_data/abpot/8.dat
run             50000
Generated 0 of 1 mixed pair_coeff terms from geometric mixing rule
Per MPI rank memory allocation (min/avg/max) = 13.32 | 13.62 | 14.95 Mbytes
   Step          Temp          E_pair         E_mol          TotEng         Press     
    450000   297.41489      390.30884      18515.152      19330.999      144.26683    
    460000   296.5122       379.13058      18546.483      19349.86      -379.07395    
    470000   296.23661      388.98783      18551.482      19364.322      41.044124    
    480000   314.63761      404.62091      18524.078      19378.879      350.15502    
    490000   295.24915      392.27427      18556.418      19371.131     -20.262054    
    500000   288.13678      389.04702      18528.655      19329.964      16.759731    
Loop time of 17.6532 on 64 procs for 50000 steps with 481 atoms

Performance: 12.236 ns/day, 1.961 hours/ns, 2832.343 timesteps/s, 1.362 Matom-step/s
100.0% CPU use with 64 MPI tasks x 1 OpenMP threads

MPI task timing breakdown:
Section |  min time  |  avg time  |  max time  |%varavg| %total
---------------------------------------------------------------
Pair    | 0.017404   | 0.7215     | 5.652      | 155.2 |  4.09
Bond    | 0.0053602  | 0.82051    | 4.1482     | 151.6 |  4.65
Neigh   | 0.029508   | 0.034481   | 0.036707   |   1.0 |  0.20
Comm    | 6.6778     | 13.453     | 16.31      |  85.3 | 76.21
Output  | 0.0072913  | 0.014099   | 0.020973   |   3.7 |  0.08
Modify  | 0.59199    | 2.0266     | 9.2962     | 181.3 | 11.48
Other   |            | 0.583      |            |       |  3.30

Nlocal:        7.51562 ave          36 max           0 min
Histogram: 42 5 1 0 0 1 4 5 5 1
Nghost:        1820.23 ave        2405 max        1288 min
Histogram: 16 0 0 0 32 0 0 0 0 16
Neighs:              0 ave           0 max           0 min
Histogram: 64 0 0 0 0 0 0 0 0 0

Total # of neighbors = 0
Ave neighs/atom = 0
Ave special neighs/atom = 15.567568
Neighbor list builds = 69
Dangerous builds = 0
unfix           myat1
next            cpt
jump            SELF loop
variable        zdes equal  -15+0.60*(${cpt}-1)
variable        zdes equal  -15+0.60*(9-1)
variable        zave equal xcm(H2,z)
fix             mytth2 H2 spring tether ${k1} 2.5 2.5 ${zdes} 0
fix             mytth2 H2 spring tether 1.2 2.5 2.5 ${zdes} 0
fix             mytth2 H2 spring tether 1.2 2.5 2.5 -10.2 0
run             10000
Generated 0 of 1 mixed pair_coeff terms from geometric mixing rule
Per MPI rank memory allocation (min/avg/max) = 13.32 | 13.62 | 14.95 Mbytes
   Step          Temp          E_pair         E_mol          TotEng         Press     
    500000   288.13678      389.04702      18528.655      19329.964      16.759731    
    510000   289.40503      387.8513       18537.494      19339.423     -77.130709    
Loop time of 3.59928 on 64 procs for 10000 steps with 481 atoms

Performance: 12.002 ns/day, 2.000 hours/ns, 2778.336 timesteps/s, 1.336 Matom-step/s
100.0% CPU use with 64 MPI tasks x 1 OpenMP threads

MPI task timing breakdown:
Section |  min time  |  avg time  |  max time  |%varavg| %total
---------------------------------------------------------------
Pair    | 0.0032685  | 0.14397    | 1.0861     |  69.2 |  4.00
Bond    | 0.0010633  | 0.16401    | 0.85588    |  67.9 |  4.56
Neigh   | 0.0051586  | 0.0060474  | 0.0064207  |   0.4 |  0.17
Comm    | 1.4849     | 2.7456     | 3.3389     |  38.6 | 76.28
Output  | 0.0014299  | 0.0027891  | 0.0042041  |   1.7 |  0.08
Modify  | 0.11126    | 0.42019    | 1.9214     |  83.7 | 11.67
Other   |            | 0.1167     |            |       |  3.24

Nlocal:        7.51562 ave          36 max           0 min
Histogram: 40 8 0 0 0 1 4 4 5 2
Nghost:        1821.17 ave        2417 max        1288 min
Histogram: 16 0 0 0 32 0 0 0 0 16
Neighs:              0 ave           0 max           0 min
Histogram: 64 0 0 0 0 0 0 0 0 0

Total # of neighbors = 0
Ave neighs/atom = 0
Ave special neighs/atom = 15.567568
Neighbor list builds = 12
Dangerous builds = 0
fix             myat1 all ave/time 1000 10 10000 v_zave v_zdes file simulation_data/abpot/${cpt}.dat
fix             myat1 all ave/time 1000 10 10000 v_zave v_zdes file simulation_data/abpot/9.dat
run             50000
Generated 0 of 1 mixed pair_coeff terms from geometric mixing rule
Per MPI rank memory allocation (min/avg/max) = 13.32 | 13.62 | 14.95 Mbytes
   Step          Temp          E_pair         E_mol          TotEng         Press     
    510000   289.40503      387.8513       18537.494      19339.423     -77.130709    
    520000   306.21668      386.45606      18542.283      19366.87      -119.51323    
    530000   320.19281      394.84765      18516.835      19369.811      80.841041    
    540000   307.80194      383.295        18510.08       19333.775     -46.734421    
    550000   296.11405      377.91614      18516.193      19317.785     -137.98921    
    560000   298.55128      391.80307      18539.802      19358.768      99.400787    
Loop time of 17.4533 on 64 procs for 50000 steps with 481 atoms

Performance: 12.376 ns/day, 1.939 hours/ns, 2864.783 timesteps/s, 1.378 Matom-step/s
100.0% CPU use with 64 MPI tasks x 1 OpenMP threads

MPI task timing breakdown:
Section |  min time  |  avg time  |  max time  |%varavg| %total
---------------------------------------------------------------
Pair    | 0.017428   | 0.7207     | 5.2817     | 154.6 |  4.13
Bond    | 0.0052958  | 0.82226    | 4.3197     | 152.3 |  4.71
Neigh   | 0.022917   | 0.026827   | 0.028656   |   0.9 |  0.15
Comm    | 6.807      | 13.263     | 16.134     |  85.1 | 75.99
Output  | 0.0073116  | 0.014198   | 0.021117   |   3.7 |  0.08
Modify  | 0.57274    | 2.0202     | 9.0963     | 178.4 | 11.57
Other   |            | 0.586      |            |       |  3.36

Nlocal:        7.51562 ave          44 max           0 min
Histogram: 43 4 1 1 2 6 3 2 1 1
Nghost:        1823.52 ave        2419 max        1280 min
Histogram: 16 0 0 0 32 0 0 0 0 16
Neighs:              0 ave           0 max           0 min
Histogram: 64 0 0 0 0 0 0 0 0 0

Total # of neighbors = 0
Ave neighs/atom = 0
Ave special neighs/atom = 15.567568
Neighbor list builds = 55
Dangerous builds = 0
unfix           myat1
next            cpt
jump            SELF loop
variable        zdes equal  -15+0.60*(${cpt}-1)
variable        zdes equal  -15+0.60*(10-1)
variable        zave equal xcm(H2,z)
fix             mytth2 H2 spring tether ${k1} 2.5 2.5 ${zdes} 0
fix             mytth2 H2 spring tether 1.2 2.5 2.5 ${zdes} 0
fix             mytth2 H2 spring tether 1.2 2.5 2.5 -9.6 0
run             10000
Generated 0 of 1 mixed pair_coeff terms from geometric mixing rule
Per MPI rank memory allocation (min/avg/max) = 13.32 | 13.62 | 14.95 Mbytes
   Step          Temp          E_pair         E_mol          TotEng         Press     
    560000   298.55128      391.80307      18539.802      19358.768      99.400787    
    570000   298.75419      379.78956      18580.601      19387.844     -242.79676    
Loop time of 3.461 on 64 procs for 10000 steps with 481 atoms

Performance: 12.482 ns/day, 1.923 hours/ns, 2889.339 timesteps/s, 1.390 Matom-step/s
100.0% CPU use with 64 MPI tasks x 1 OpenMP threads

MPI task timing breakdown:
Section |  min time  |  avg time  |  max time  |%varavg| %total
---------------------------------------------------------------
Pair    | 0.0033165  | 0.14485    | 1.087      |  69.1 |  4.19
Bond    | 0.0010629  | 0.16486    | 0.81589    |  67.8 |  4.76
Neigh   | 0.004151   | 0.0048506  | 0.0051757  |   0.4 |  0.14
Comm    | 1.3351     | 2.6205     | 3.1924     |  37.7 | 75.71
Output  | 0.0013948  | 0.0027606  | 0.0041607  |   1.7 |  0.08
Modify  | 0.11904    | 0.40557    | 1.7809     |  77.6 | 11.72
Other   |            | 0.1176     |            |       |  3.40

Nlocal:        7.51562 ave          34 max           0 min
Histogram: 42 4 2 0 0 0 3 5 4 4
Nghost:        1826.89 ave        2423 max        1290 min
Histogram: 16 0 0 0 32 0 0 0 0 16
Neighs:              0 ave           0 max           0 min
Histogram: 64 0 0 0 0 0 0 0 0 0

Total # of neighbors = 0
Ave neighs/atom = 0
Ave special neighs/atom = 15.567568
Neighbor list builds = 10
Dangerous builds = 0
fix             myat1 all ave/time 1000 10 10000 v_zave v_zdes file simulation_data/abpot/${cpt}.dat
fix             myat1 all ave/time 1000 10 10000 v_zave v_zdes file simulation_data/abpot/10.dat
run             50000
Generated 0 of 1 mixed pair_coeff terms from geometric mixing rule
Per MPI rank memory allocation (min/avg/max) = 13.32 | 13.62 | 14.95 Mbytes
   Step          Temp          E_pair         E_mol          TotEng         Press     
    570000   298.75419      379.78956      18580.601      19387.844     -242.79676    
    580000   316.21291      380.58746      18554.184      19387.205     -162.97165    
    590000   296.4936       386.2948       18558.635      19369.15      -14.562029    
    600000   298.75027      385.11376      18527.66       19340.222     -30.150006    
    610000   283.66061      375.13514      18512.158      19293.152     -123.15671    
    620000   308.05787      383.66789      18512.025      19336.459      57.30776     
Loop time of 17.7374 on 64 procs for 50000 steps with 481 atoms

Performance: 12.178 ns/day, 1.971 hours/ns, 2818.901 timesteps/s, 1.356 Matom-step/s
100.0% CPU use with 64 MPI tasks x 1 OpenMP threads

MPI task timing breakdown:
Section |  min time  |  avg time  |  max time  |%varavg| %total
---------------------------------------------------------------
Pair    | 0.017437   | 0.72568    | 5.4204     | 156.4 |  4.09
Bond    | 0.0053323  | 0.82407    | 4.4796     | 153.0 |  4.65
Neigh   | 0.028147   | 0.033197   | 0.03548    |   1.1 |  0.19
Comm    | 6.6905     | 13.498     | 16.411     |  86.3 | 76.10
Output  | 0.0073034  | 0.014099   | 0.020976   |   3.7 |  0.08
Modify  | 0.57598    | 2.0566     | 9.378      | 182.9 | 11.59
Other   |            | 0.5859     |            |       |  3.30

Nlocal:        7.51562 ave          36 max           0 min
Histogram: 41 7 0 0 0 0 6 5 3 2
Nghost:        1820.89 ave        2411 max        1288 min
Histogram: 16 0 0 0 32 0 0 0 0 16
Neighs:              0 ave           0 max           0 min
Histogram: 64 0 0 0 0 0 0 0 0 0

Total # of neighbors = 0
Ave neighs/atom = 0
Ave special neighs/atom = 15.567568
Neighbor list builds = 67
Dangerous builds = 0
unfix           myat1
next            cpt
jump            SELF loop
variable        zdes equal  -15+0.60*(${cpt}-1)
variable        zdes equal  -15+0.60*(11-1)
variable        zave equal xcm(H2,z)
fix             mytth2 H2 spring tether ${k1} 2.5 2.5 ${zdes} 0
fix             mytth2 H2 spring tether 1.2 2.5 2.5 ${zdes} 0
fix             mytth2 H2 spring tether 1.2 2.5 2.5 -9 0
run             10000
Generated 0 of 1 mixed pair_coeff terms from geometric mixing rule
Per MPI rank memory allocation (min/avg/max) = 13.32 | 13.62 | 14.95 Mbytes
   Step          Temp          E_pair         E_mol          TotEng         Press     
    620000   308.05787      383.66789      18512.025      19336.459      57.30776     
    630000   302.13896      381.71109      18542.659      19356.667     -88.512435    
Loop time of 3.60596 on 64 procs for 10000 steps with 481 atoms

Performance: 11.980 ns/day, 2.003 hours/ns, 2773.187 timesteps/s, 1.334 Matom-step/s
99.9% CPU use with 64 MPI tasks x 1 OpenMP threads

MPI task timing breakdown:
Section |  min time  |  avg time  |  max time  |%varavg| %total
---------------------------------------------------------------
Pair    | 0.0032954  | 0.14474    | 1.1511     |  69.8 |  4.01
Bond    | 0.0010608  | 0.16385    | 0.86576    |  68.0 |  4.54
Neigh   | 0.0060708  | 0.0070729  | 0.0075344  |   0.5 |  0.20
Comm    | 1.3547     | 2.7477     | 3.3433     |  39.0 | 76.20
Output  | 0.0019309  | 0.0032789  | 0.0046729  |   1.5 |  0.09
Modify  | 0.11625    | 0.42194    | 1.9325     |  84.5 | 11.70
Other   |            | 0.1173     |            |       |  3.25

Nlocal:        7.51562 ave          39 max           0 min
Histogram: 42 5 1 0 1 2 4 6 2 1
Nghost:        1818.55 ave        2405 max        1285 min
Histogram: 16 0 0 0 32 0 0 0 0 16
Neighs:              0 ave           0 max           0 min
Histogram: 64 0 0 0 0 0 0 0 0 0

Total # of neighbors = 0
Ave neighs/atom = 0
Ave special neighs/atom = 15.567568
Neighbor list builds = 14
Dangerous builds = 0
fix             myat1 all ave/time 1000 10 10000 v_zave v_zdes file simulation_data/abpot/${cpt}.dat
fix             myat1 all ave/time 1000 10 10000 v_zave v_zdes file simulation_data/abpot/11.dat
run             50000
Generated 0 of 1 mixed pair_coeff terms from geometric mixing rule
Per MPI rank memory allocation (min/avg/max) = 13.32 | 13.62 | 14.95 Mbytes
   Step          Temp          E_pair         E_mol          TotEng         Press     
    630000   302.13896      381.71109      18542.659      19356.667     -88.512435    
    640000   289.97845      384.26468      18565.018      19364.18      -157.48367    
    650000   287.46707      378.60596      18523.746      19313.657     -168.25381    
    660000   292.58911      384.55243      18504.661      19307.847     -62.568413    
    670000   289.64007      395.46702      18509.425      19319.305      160.4437     
    680000   313.37993      387.98141      18500.331      19336.693     -98.253852    
Loop time of 17.671 on 64 procs for 50000 steps with 481 atoms

Performance: 12.223 ns/day, 1.963 hours/ns, 2829.489 timesteps/s, 1.361 Matom-step/s
100.0% CPU use with 64 MPI tasks x 1 OpenMP threads

MPI task timing breakdown:
Section |  min time  |  avg time  |  max time  |%varavg| %total
---------------------------------------------------------------
Pair    | 0.017577   | 0.72853    | 5.6427     | 156.5 |  4.12
Bond    | 0.0053162  | 0.82247    | 4.3204     | 152.6 |  4.65
Neigh   | 0.026771   | 0.031301   | 0.033409   |   1.0 |  0.18
Comm    | 6.7277     | 13.459     | 16.354     |  86.1 | 76.16
Output  | 0.0073819  | 0.014147   | 0.020968   |   3.6 |  0.08
Modify  | 0.57304    | 2.0328     | 9.3205     | 182.1 | 11.50
Other   |            | 0.5831     |            |       |  3.30

Nlocal:        7.51562 ave          41 max           0 min
Histogram: 42 6 0 1 2 1 6 4 1 1
Nghost:        1816.86 ave        2398 max        1283 min
Histogram: 16 0 0 0 32 0 0 0 0 16
Neighs:              0 ave           0 max           0 min
Histogram: 64 0 0 0 0 0 0 0 0 0

Total # of neighbors = 0
Ave neighs/atom = 0
Ave special neighs/atom = 15.567568
Neighbor list builds = 63
Dangerous builds = 0
unfix           myat1
next            cpt
jump            SELF loop
variable        zdes equal  -15+0.60*(${cpt}-1)
variable        zdes equal  -15+0.60*(12-1)
variable        zave equal xcm(H2,z)
fix             mytth2 H2 spring tether ${k1} 2.5 2.5 ${zdes} 0
fix             mytth2 H2 spring tether 1.2 2.5 2.5 ${zdes} 0
fix             mytth2 H2 spring tether 1.2 2.5 2.5 -8.4 0
run             10000
Generated 0 of 1 mixed pair_coeff terms from geometric mixing rule
Per MPI rank memory allocation (min/avg/max) = 13.32 | 13.62 | 14.95 Mbytes
   Step          Temp          E_pair         E_mol          TotEng         Press     
    680000   313.37993      387.98141      18500.331      19336.693     -98.253852    
    690000   306.82536      392.17323      18561.736      19392.911     -24.792039    
Loop time of 3.57217 on 64 procs for 10000 steps with 481 atoms

Performance: 12.094 ns/day, 1.985 hours/ns, 2799.422 timesteps/s, 1.347 Matom-step/s
100.0% CPU use with 64 MPI tasks x 1 OpenMP threads

MPI task timing breakdown:
Section |  min time  |  avg time  |  max time  |%varavg| %total
---------------------------------------------------------------
Pair    | 0.0033645  | 0.14714    | 1.1264     |  70.8 |  4.12
Bond    | 0.0010604  | 0.16488    | 0.88924    |  68.8 |  4.62
Neigh   | 0.005239   | 0.0060826  | 0.0064908  |   0.4 |  0.17
Comm    | 1.3778     | 2.7275     | 3.3055     |  39.2 | 76.35
Output  | 0.0014943  | 0.0028372  | 0.0042376  |   1.6 |  0.08
Modify  | 0.11613    | 0.40657    | 1.9024     |  83.5 | 11.38
Other   |            | 0.1172     |            |       |  3.28

Nlocal:        7.51562 ave          42 max           0 min
Histogram: 44 4 0 2 0 6 2 3 1 2
Nghost:        1820.61 ave        2406 max        1282 min
Histogram: 16 0 0 0 32 0 0 0 0 16
Neighs:              0 ave           0 max           0 min
Histogram: 64 0 0 0 0 0 0 0 0 0

Total # of neighbors = 0
Ave neighs/atom = 0
Ave special neighs/atom = 15.567568
Neighbor list builds = 12
Dangerous builds = 0
fix             myat1 all ave/time 1000 10 10000 v_zave v_zdes file simulation_data/abpot/${cpt}.dat
fix             myat1 all ave/time 1000 10 10000 v_zave v_zdes file simulation_data/abpot/12.dat
run             50000
Generated 0 of 1 mixed pair_coeff terms from geometric mixing rule
Per MPI rank memory allocation (min/avg/max) = 13.32 | 13.62 | 14.95 Mbytes
   Step          Temp          E_pair         E_mol          TotEng         Press     
    690000   306.82536      392.17323      18561.736      19392.911     -24.792039    
    700000   307.915        391.51751      18542.865      19374.944      114.50928    
    710000   304.27812      385.06124      18537.748      19358.167     -188.75611    
    720000   301.50764      388.4007       18521.253      19341.048      39.785903    
    730000   291.56188      401.94673      18530.354      19349.464      164.14901    
    740000   310.5104       387.19464      18545.461      19376.931     -65.905008    
Loop time of 17.6567 on 64 procs for 50000 steps with 481 atoms

Performance: 12.233 ns/day, 1.962 hours/ns, 2831.780 timesteps/s, 1.362 Matom-step/s
100.0% CPU use with 64 MPI tasks x 1 OpenMP threads

MPI task timing breakdown:
Section |  min time  |  avg time  |  max time  |%varavg| %total
---------------------------------------------------------------
Pair    | 0.01747    | 0.73458    | 5.6125     | 157.5 |  4.16
Bond    | 0.0052709  | 0.82542    | 4.3099     | 153.4 |  4.67
Neigh   | 0.024189   | 0.028321   | 0.030301   |   1.0 |  0.16
Comm    | 6.7784     | 13.447     | 16.319     |  86.6 | 76.16
Output  | 0.007431   | 0.014259   | 0.021159   |   3.7 |  0.08
Modify  | 0.59226    | 2.0223     | 9.2941     | 182.2 | 11.45
Other   |            | 0.5849     |            |       |  3.31

Nlocal:        7.51562 ave          34 max           0 min
Histogram: 42 4 2 0 0 2 0 6 4 4
Nghost:        1817.05 ave        2400 max        1293 min
Histogram: 16 0 0 0 32 0 0 0 0 16
Neighs:              0 ave           0 max           0 min
Histogram: 64 0 0 0 0 0 0 0 0 0

Total # of neighbors = 0
Ave neighs/atom = 0
Ave special neighs/atom = 15.567568
Neighbor list builds = 57
Dangerous builds = 0
unfix           myat1
next            cpt
jump            SELF loop
variable        zdes equal  -15+0.60*(${cpt}-1)
variable        zdes equal  -15+0.60*(13-1)
variable        zave equal xcm(H2,z)
fix             mytth2 H2 spring tether ${k1} 2.5 2.5 ${zdes} 0
fix             mytth2 H2 spring tether 1.2 2.5 2.5 ${zdes} 0
fix             mytth2 H2 spring tether 1.2 2.5 2.5 -7.8 0
run             10000
Generated 0 of 1 mixed pair_coeff terms from geometric mixing rule
Per MPI rank memory allocation (min/avg/max) = 13.32 | 13.62 | 14.95 Mbytes
   Step          Temp          E_pair         E_mol          TotEng         Press     
    740000   310.5104       387.19464      18545.461      19376.931     -65.905008    
    750000   298.44857      389.97672      18541.454      19358.448     -46.981614    
Loop time of 3.62599 on 64 procs for 10000 steps with 481 atoms

Performance: 11.914 ns/day, 2.014 hours/ns, 2757.865 timesteps/s, 1.327 Matom-step/s
100.0% CPU use with 64 MPI tasks x 1 OpenMP threads

MPI task timing breakdown:
Section |  min time  |  avg time  |  max time  |%varavg| %total
---------------------------------------------------------------
Pair    | 0.003253   | 0.14729    | 1.173      |  71.1 |  4.06
Bond    | 0.0010564  | 0.16516    | 0.90198    |  68.9 |  4.55
Neigh   | 0.0044713  | 0.0051903  | 0.0055608  |   0.4 |  0.14
Comm    | 1.3765     | 2.7581     | 3.3654     |  39.5 | 76.06
Output  | 0.0014543  | 0.0028167  | 0.0042352  |   1.6 |  0.08
Modify  | 0.11225    | 0.43019    | 1.951      |  84.2 | 11.86
Other   |            | 0.1173     |            |       |  3.23

Nlocal:        7.51562 ave          34 max           0 min
Histogram: 41 6 1 0 0 1 4 3 1 7
Nghost:         1816.3 ave        2401 max        1290 min
Histogram: 16 0 0 0 32 0 0 0 0 16
Neighs:              0 ave           0 max           0 min
Histogram: 64 0 0 0 0 0 0 0 0 0

Total # of neighbors = 0
Ave neighs/atom = 0
Ave special neighs/atom = 15.567568
Neighbor list builds = 10
Dangerous builds = 0
fix             myat1 all ave/time 1000 10 10000 v_zave v_zdes file simulation_data/abpot/${cpt}.dat
fix             myat1 all ave/time 1000 10 10000 v_zave v_zdes file simulation_data/abpot/13.dat
run             50000
Generated 0 of 1 mixed pair_coeff terms from geometric mixing rule
Per MPI rank memory allocation (min/avg/max) = 13.32 | 13.62 | 14.95 Mbytes
   Step          Temp          E_pair         E_mol          TotEng         Press     
    750000   298.44857      389.97672      18541.454      19358.448     -46.981614    
    760000   293.62784      394.43922      18526.303      19340.861      134.94662    
    770000   278.8161       382.43259      18532.225      19313.585     -298.60081    
    780000   294.06895      381.43857      18543.808      19345.997     -363.85313    
    790000   298.42177      402.54459      18533.992      19363.515      159.88251    
    800000   304.60429      390.29524      18533.388      19359.508     -66.23615     
Loop time of 17.8982 on 64 procs for 50000 steps with 481 atoms

Performance: 12.068 ns/day, 1.989 hours/ns, 2793.585 timesteps/s, 1.344 Matom-step/s
100.0% CPU use with 64 MPI tasks x 1 OpenMP threads

MPI task timing breakdown:
Section |  min time  |  avg time  |  max time  |%varavg| %total
---------------------------------------------------------------
Pair    | 0.01758    | 0.73488    | 5.6252     | 158.2 |  4.11
Bond    | 0.0053521  | 0.826      | 4.3723     | 153.8 |  4.62
Neigh   | 0.021775   | 0.02539    | 0.027055   |   0.9 |  0.14
Comm    | 6.9594     | 13.627     | 16.586     |  87.5 | 76.13
Output  | 0.0074397  | 0.014229   | 0.021095   |   3.6 |  0.08
Modify  | 0.57128    | 2.0842     | 9.5533     | 185.3 | 11.64
Other   |            | 0.5869     |            |       |  3.28

Nlocal:        7.51562 ave          35 max           0 min
Histogram: 43 2 3 0 0 1 2 6 4 3
Nghost:        1827.73 ave        2426 max        1290 min
Histogram: 16 0 0 0 32 0 0 0 0 16
Neighs:              0 ave           0 max           0 min
Histogram: 64 0 0 0 0 0 0 0 0 0

Total # of neighbors = 0
Ave neighs/atom = 0
Ave special neighs/atom = 15.567568
Neighbor list builds = 50
Dangerous builds = 0
unfix           myat1
next            cpt
jump            SELF loop
variable        zdes equal  -15+0.60*(${cpt}-1)
variable        zdes equal  -15+0.60*(14-1)
variable        zave equal xcm(H2,z)
fix             mytth2 H2 spring tether ${k1} 2.5 2.5 ${zdes} 0
fix             mytth2 H2 spring tether 1.2 2.5 2.5 ${zdes} 0
fix             mytth2 H2 spring tether 1.2 2.5 2.5 -7.2 0
run             10000
Generated 0 of 1 mixed pair_coeff terms from geometric mixing rule
Per MPI rank memory allocation (min/avg/max) = 13.32 | 13.62 | 14.95 Mbytes
   Step          Temp          E_pair         E_mol          TotEng         Press     
    800000   304.60429      390.29524      18533.388      19359.508     -66.23615     
    810000   295.41209      385.06165      18540.231      19347.965     -324.45863    
Loop time of 3.63346 on 64 procs for 10000 steps with 481 atoms

Performance: 11.890 ns/day, 2.019 hours/ns, 2752.201 timesteps/s, 1.324 Matom-step/s
100.0% CPU use with 64 MPI tasks x 1 OpenMP threads

MPI task timing breakdown:
Section |  min time  |  avg time  |  max time  |%varavg| %total
---------------------------------------------------------------
Pair    | 0.0033597  | 0.14718    | 1.1059     |  71.1 |  4.05
Bond    | 0.0010538  | 0.16482    | 0.91855    |  68.7 |  4.54
Neigh   | 0.005267   | 0.0060963  | 0.0065014  |   0.4 |  0.17
Comm    | 1.3513     | 2.7613     | 3.3667     |  39.0 | 76.00
Output  | 0.0014405  | 0.0027781  | 0.0041586  |   1.6 |  0.08
Modify  | 0.11865    | 0.43406    | 1.9563     |  83.6 | 11.95
Other   |            | 0.1172     |            |       |  3.23

Nlocal:        7.51562 ave          34 max           0 min
Histogram: 44 0 4 0 0 0 3 6 3 4
Nghost:        1815.92 ave        2403 max        1290 min
Histogram: 16 0 0 0 32 0 0 0 0 16
Neighs:              0 ave           0 max           0 min
Histogram: 64 0 0 0 0 0 0 0 0 0

Total # of neighbors = 0
Ave neighs/atom = 0
Ave special neighs/atom = 15.567568
Neighbor list builds = 12
Dangerous builds = 0
fix             myat1 all ave/time 1000 10 10000 v_zave v_zdes file simulation_data/abpot/${cpt}.dat
fix             myat1 all ave/time 1000 10 10000 v_zave v_zdes file simulation_data/abpot/14.dat
run             50000
Generated 0 of 1 mixed pair_coeff terms from geometric mixing rule
Per MPI rank memory allocation (min/avg/max) = 13.32 | 13.62 | 14.95 Mbytes
   Step          Temp          E_pair         E_mol          TotEng         Press     
    810000   295.41209      385.06165      18540.231      19347.965     -324.45863    
    820000   296.70989      395.15062      18522.107      19341.787      144.32162    
    830000   309.57029      391.75687      18501.432      19336.118     -183.16769    
    840000   300.22643      390.12199      18520.891      19340.573     -84.863864    
    850000   287.61449      386.79673      18579.86       19378.173     -287.74584    
    860000   291.61262      394.18483      18552.483      19363.904      37.275553    
Loop time of 17.7153 on 64 procs for 50000 steps with 481 atoms

Performance: 12.193 ns/day, 1.968 hours/ns, 2822.427 timesteps/s, 1.358 Matom-step/s
100.0% CPU use with 64 MPI tasks x 1 OpenMP threads

MPI task timing breakdown:
Section |  min time  |  avg time  |  max time  |%varavg| %total
---------------------------------------------------------------
Pair    | 0.017538   | 0.73413    | 5.5903     | 157.5 |  4.14
Bond    | 0.0053165  | 0.82414    | 4.5249     | 153.1 |  4.65
Neigh   | 0.024137   | 0.028077   | 0.029974   |   0.9 |  0.16
Comm    | 6.5292     | 13.468     | 16.377     |  86.4 | 76.03
Output  | 0.0074162  | 0.014201   | 0.02107    |   3.6 |  0.08
Modify  | 0.5921     | 2.0606     | 9.4003     | 181.3 | 11.63
Other   |            | 0.5859     |            |       |  3.31

Nlocal:        7.51562 ave          36 max           0 min
Histogram: 43 3 2 0 2 0 3 3 5 3
Nghost:        1823.52 ave        2418 max        1290 min
Histogram: 16 0 0 0 32 0 0 0 0 16
Neighs:              0 ave           0 max           0 min
Histogram: 64 0 0 0 0 0 0 0 0 0

Total # of neighbors = 0
Ave neighs/atom = 0
Ave special neighs/atom = 15.567568
Neighbor list builds = 56
Dangerous builds = 0
unfix           myat1
next            cpt
jump            SELF loop
variable        zdes equal  -15+0.60*(${cpt}-1)
variable        zdes equal  -15+0.60*(15-1)
variable        zave equal xcm(H2,z)
fix             mytth2 H2 spring tether ${k1} 2.5 2.5 ${zdes} 0
fix             mytth2 H2 spring tether 1.2 2.5 2.5 ${zdes} 0
fix             mytth2 H2 spring tether 1.2 2.5 2.5 -6.6 0
run             10000
Generated 0 of 1 mixed pair_coeff terms from geometric mixing rule
Per MPI rank memory allocation (min/avg/max) = 13.32 | 13.62 | 14.95 Mbytes
   Step          Temp          E_pair         E_mol          TotEng         Press     
    860000   291.61262      394.18483      18552.483      19363.904      37.275553    
    870000   293.06246      392.61161      18525.065      19336.987     -118.49287    
Loop time of 3.49301 on 64 procs for 10000 steps with 481 atoms

Performance: 12.368 ns/day, 1.941 hours/ns, 2862.864 timesteps/s, 1.377 Matom-step/s
100.0% CPU use with 64 MPI tasks x 1 OpenMP threads

MPI task timing breakdown:
Section |  min time  |  avg time  |  max time  |%varavg| %total
---------------------------------------------------------------
Pair    | 0.0033669  | 0.14639    | 1.1471     |  70.0 |  4.19
Bond    | 0.0010679  | 0.16375    | 0.82368    |  67.8 |  4.69
Neigh   | 0.0051096  | 0.0059352  | 0.0063477  |   0.4 |  0.17
Comm    | 1.2975     | 2.6549     | 3.2365     |  38.2 | 76.01
Output  | 0.0014118  | 0.0027495  | 0.0041444  |   1.6 |  0.08
Modify  | 0.10938    | 0.40317    | 1.8265     |  79.8 | 11.54
Other   |            | 0.1161     |            |       |  3.32

Nlocal:        7.51562 ave          37 max           0 min
Histogram: 43 2 3 0 0 4 2 3 6 1
Nghost:        1822.77 ave        2417 max        1287 min
Histogram: 16 0 0 0 32 0 0 0 0 16
Neighs:              0 ave           0 max           0 min
Histogram: 64 0 0 0 0 0 0 0 0 0

Total # of neighbors = 0
Ave neighs/atom = 0
Ave special neighs/atom = 15.567568
Neighbor list builds = 12
Dangerous builds = 0
fix             myat1 all ave/time 1000 10 10000 v_zave v_zdes file simulation_data/abpot/${cpt}.dat
fix             myat1 all ave/time 1000 10 10000 v_zave v_zdes file simulation_data/abpot/15.dat
run             50000
Generated 0 of 1 mixed pair_coeff terms from geometric mixing rule
Per MPI rank memory allocation (min/avg/max) = 13.32 | 13.62 | 14.95 Mbytes
   Step          Temp          E_pair         E_mol          TotEng         Press     
    870000   293.06246      392.61161      18525.065      19336.987     -118.49287    
    880000   287.47956      388.14328      18533.13       19332.596     -198.50225    
    890000   304.49238      389.36512      18525.699      19350.729      13.691282    
    900000   308.05349      394.54741      18535.212      19370.518     -19.703949    
    910000   299.13418      402.06905      18523.812      19353.878      152.82553    
    920000   289.4642       383.60801      18530.757      19328.528     -341.1544     
Loop time of 17.9036 on 64 procs for 50000 steps with 481 atoms

Performance: 12.065 ns/day, 1.989 hours/ns, 2792.730 timesteps/s, 1.343 Matom-step/s
100.0% CPU use with 64 MPI tasks x 1 OpenMP threads

MPI task timing breakdown:
Section |  min time  |  avg time  |  max time  |%varavg| %total
---------------------------------------------------------------
Pair    | 0.017804   | 0.73311    | 5.6941     | 158.1 |  4.09
Bond    | 0.0053681  | 0.82186    | 4.4675     | 152.5 |  4.59
Neigh   | 0.025605   | 0.02974    | 0.031667   |   0.9 |  0.17
Comm    | 6.864      | 13.657     | 16.578     |  87.1 | 76.28
Output  | 0.0074378  | 0.014249   | 0.021141   |   3.6 |  0.08
Modify  | 0.57997    | 2.0603     | 9.5599     | 185.6 | 11.51
Other   |            | 0.5878     |            |       |  3.28

Nlocal:        7.51562 ave          40 max           0 min
Histogram: 41 6 1 0 1 1 6 7 0 1
Nghost:        1823.52 ave        2420 max        1284 min
Histogram: 16 0 0 0 32 0 0 0 0 16
Neighs:              0 ave           0 max           0 min
Histogram: 64 0 0 0 0 0 0 0 0 0

Total # of neighbors = 0
Ave neighs/atom = 0
Ave special neighs/atom = 15.567568
Neighbor list builds = 58
Dangerous builds = 0
unfix           myat1
next            cpt
jump            SELF loop
variable        zdes equal  -15+0.60*(${cpt}-1)
variable        zdes equal  -15+0.60*(16-1)
variable        zave equal xcm(H2,z)
fix             mytth2 H2 spring tether ${k1} 2.5 2.5 ${zdes} 0
fix             mytth2 H2 spring tether 1.2 2.5 2.5 ${zdes} 0
fix             mytth2 H2 spring tether 1.2 2.5 2.5 -6 0
run             10000
Generated 0 of 1 mixed pair_coeff terms from geometric mixing rule
Per MPI rank memory allocation (min/avg/max) = 13.32 | 13.62 | 14.95 Mbytes
   Step          Temp          E_pair         E_mol          TotEng         Press     
    920000   289.4642       383.60801      18530.757      19328.528     -341.1544     
    930000   291.35624      387.94666      18516.37       19321.186     -223.13559    
Loop time of 3.51503 on 64 procs for 10000 steps with 481 atoms

Performance: 12.290 ns/day, 1.953 hours/ns, 2844.924 timesteps/s, 1.368 Matom-step/s
100.0% CPU use with 64 MPI tasks x 1 OpenMP threads

MPI task timing breakdown:
Section |  min time  |  avg time  |  max time  |%varavg| %total
---------------------------------------------------------------
Pair    | 0.0034281  | 0.14625    | 1.1119     |  70.3 |  4.16
Bond    | 0.0010718  | 0.16418    | 0.86156    |  68.3 |  4.67
Neigh   | 0.0046869  | 0.00549    | 0.0058809  |   0.4 |  0.16
Comm    | 1.3675     | 2.6816     | 3.2557     |  38.5 | 76.29
Output  | 0.0015095  | 0.0028528  | 0.004244   |   1.6 |  0.08
Modify  | 0.11241    | 0.39773    | 1.8485     |  81.4 | 11.32
Other   |            | 0.1169     |            |       |  3.33

Nlocal:        7.51562 ave          34 max           0 min
Histogram: 42 4 2 0 0 0 5 2 3 6
Nghost:        1820.89 ave        2407 max        1290 min
Histogram: 16 0 0 0 32 0 0 0 0 16
Neighs:              0 ave           0 max           0 min
Histogram: 64 0 0 0 0 0 0 0 0 0

Total # of neighbors = 0
Ave neighs/atom = 0
Ave special neighs/atom = 15.567568
Neighbor list builds = 11
Dangerous builds = 0
fix             myat1 all ave/time 1000 10 10000 v_zave v_zdes file simulation_data/abpot/${cpt}.dat
fix             myat1 all ave/time 1000 10 10000 v_zave v_zdes file simulation_data/abpot/16.dat
run             50000
Generated 0 of 1 mixed pair_coeff terms from geometric mixing rule
Per MPI rank memory allocation (min/avg/max) = 13.32 | 13.62 | 14.95 Mbytes
   Step          Temp          E_pair         E_mol          TotEng         Press     
    930000   291.35624      387.94666      18516.37       19321.186     -223.13559    
    940000   301.67556      394.80849      18539.123      19365.566      68.640311    
    950000   314.43273      392.48713      18528.743      19371.117      75.973724    
    960000   302.25429      396.80489      18533.111      19362.377      57.229877    
    970000   295.07228      390.60553      18523.939      19336.73      -153.57716    
    980000   308.36838      395.45999      18502.472      19339.142      123.6963     
Loop time of 17.9386 on 64 procs for 50000 steps with 481 atoms

Performance: 12.041 ns/day, 1.993 hours/ns, 2787.285 timesteps/s, 1.341 Matom-step/s
100.0% CPU use with 64 MPI tasks x 1 OpenMP threads

MPI task timing breakdown:
Section |  min time  |  avg time  |  max time  |%varavg| %total
---------------------------------------------------------------
Pair    | 0.017924   | 0.73253    | 5.6191     | 157.6 |  4.08
Bond    | 0.0053168  | 0.82221    | 4.4748     | 153.1 |  4.58
Neigh   | 0.023173   | 0.026956   | 0.028799   |   0.9 |  0.15
Comm    | 6.8893     | 13.681     | 16.603     |  86.9 | 76.26
Output  | 0.0078689  | 0.014688   | 0.021568   |   3.6 |  0.08
Modify  | 0.58981    | 2.073      | 9.6011     | 185.1 | 11.56
Other   |            | 0.5885     |            |       |  3.28

Nlocal:        7.51562 ave          37 max           0 min
Histogram: 43 3 2 0 1 0 5 6 3 1
Nghost:        1819.02 ave        2403 max        1291 min
Histogram: 16 0 0 0 32 0 0 0 0 16
Neighs:              0 ave           0 max           0 min
Histogram: 64 0 0 0 0 0 0 0 0 0

Total # of neighbors = 0
Ave neighs/atom = 0
Ave special neighs/atom = 15.567568
Neighbor list builds = 53
Dangerous builds = 0
unfix           myat1
next            cpt
jump            SELF loop
variable        zdes equal  -15+0.60*(${cpt}-1)
variable        zdes equal  -15+0.60*(17-1)
variable        zave equal xcm(H2,z)
fix             mytth2 H2 spring tether ${k1} 2.5 2.5 ${zdes} 0
fix             mytth2 H2 spring tether 1.2 2.5 2.5 ${zdes} 0
fix             mytth2 H2 spring tether 1.2 2.5 2.5 -5.4 0
run             10000
Generated 0 of 1 mixed pair_coeff terms from geometric mixing rule
Per MPI rank memory allocation (min/avg/max) = 13.32 | 13.62 | 14.95 Mbytes
   Step          Temp          E_pair         E_mol          TotEng         Press     
    980000   308.36838      395.45999      18502.472      19339.142      123.6963     
    990000   307.61217      401.14066      18515.435      19356.703      218.2283     
Loop time of 3.49157 on 64 procs for 10000 steps with 481 atoms

Performance: 12.373 ns/day, 1.940 hours/ns, 2864.041 timesteps/s, 1.378 Matom-step/s
100.0% CPU use with 64 MPI tasks x 1 OpenMP threads

MPI task timing breakdown:
Section |  min time  |  avg time  |  max time  |%varavg| %total
---------------------------------------------------------------
Pair    | 0.0035002  | 0.1465     | 1.0957     |  70.5 |  4.20
Bond    | 0.0010679  | 0.16481    | 0.88209    |  68.9 |  4.72
Neigh   | 0.0049009  | 0.0057779  | 0.0061818  |   0.4 |  0.17
Comm    | 1.3153     | 2.6589     | 3.2362     |  38.6 | 76.15
[...]
Section |  min time  |  avg time  |  max time  |%varavg| %total
---------------------------------------------------------------
Pair    | 0.0034568  | 0.14624    | 1.1475     |  70.2 |  4.16
Bond    | 0.0010635  | 0.16468    | 0.92818    |  68.8 |  4.69
Neigh   | 0.0041718  | 0.0048929  | 0.0052108  |   0.4 |  0.14
Comm    | 1.2973     | 2.6819     | 3.2471     |  38.2 | 76.35
Output  | 0.0014401  | 0.0027645  | 0.0041402  |   1.6 |  0.08
Modify  | 0.11962    | 0.39484    | 1.7666     |  80.2 | 11.24
Other   |            | 0.1171     |            |       |  3.33

Nlocal:        7.51562 ave          32 max           0 min
Histogram: 42 5 1 0 0 0 0 8 1 7
Nghost:        1822.95 ave        2424 max        1292 min
Histogram: 16 0 0 0 32 0 0 0 0 16
Neighs:              0 ave           0 max           0 min
Histogram: 64 0 0 0 0 0 0 0 0 0

Total # of neighbors = 0
Ave neighs/atom = 0
Ave special neighs/atom = 15.567568
Neighbor list builds = 10
Dangerous builds = 0
fix             myat1 all ave/time 1000 10 10000 v_zave v_zdes file simulation_data/abpot/${cpt}.dat
fix             myat1 all ave/time 1000 10 10000 v_zave v_zdes file simulation_data/abpot/47.dat
run             50000
Generated 0 of 1 mixed pair_coeff terms from geometric mixing rule
Per MPI rank memory allocation (min/avg/max) = 13.32 | 13.62 | 14.95 Mbytes
   Step          Temp          E_pair         E_mol          TotEng         Press     
   2790000   301.68294      390.65635      18535.269      19357.569      85.795639    
   2800000   320.36799      385.7846       18501.979      19346.142     -78.315183    
   2810000   290.32965      389.4272       18511.871      19316.699      30.603432    
   2820000   297.85286      380.08646      18504.558      19310.809     -186.26865    
   2830000   298.51005      395.18778      18530.984      19353.277      215.46151    
   2840000   295.15663      376.43049      18564.778      19363.515     -279.26848    
Loop time of 17.5627 on 64 procs for 50000 steps with 481 atoms

Performance: 12.299 ns/day, 1.951 hours/ns, 2846.947 timesteps/s, 1.369 Matom-step/s
100.0% CPU use with 64 MPI tasks x 1 OpenMP threads

MPI task timing breakdown:
Section |  min time  |  avg time  |  max time  |%varavg| %total
---------------------------------------------------------------
Pair    | 0.017391   | 0.73018    | 5.3558     | 156.1 |  4.16
Bond    | 0.0052741  | 0.82455    | 4.4849     | 153.5 |  4.69
Neigh   | 0.023189   | 0.027244   | 0.02925    |   0.9 |  0.16
Comm    | 6.7385     | 13.334     | 16.2       |  85.6 | 75.92
Output  | 0.0076764  | 0.014467   | 0.021327   |   3.6 |  0.08
Modify  | 0.6053     | 2.0416     | 9.2102     | 178.1 | 11.62
Other   |            | 0.591      |            |       |  3.36

Nlocal:        7.51562 ave          35 max           0 min
Histogram: 41 6 1 0 0 0 5 5 3 3
Nghost:        1820.61 ave        2419 max        1289 min
Histogram: 16 0 0 0 32 0 0 0 0 16
Neighs:              0 ave           0 max           0 min
Histogram: 64 0 0 0 0 0 0 0 0 0

Total # of neighbors = 0
Ave neighs/atom = 0
Ave special neighs/atom = 15.567568
Neighbor list builds = 55
Dangerous builds = 0
unfix           myat1
next            cpt
jump            SELF loop
variable        zdes equal  -15+0.60*(${cpt}-1)
variable        zdes equal  -15+0.60*(48-1)
variable        zave equal xcm(H2,z)
fix             mytth2 H2 spring tether ${k1} 2.5 2.5 ${zdes} 0
fix             mytth2 H2 spring tether 1.2 2.5 2.5 ${zdes} 0
fix             mytth2 H2 spring tether 1.2 2.5 2.5 13.2 0
run             10000
Generated 0 of 1 mixed pair_coeff terms from geometric mixing rule
Per MPI rank memory allocation (min/avg/max) = 13.32 | 13.62 | 14.95 Mbytes
   Step          Temp          E_pair         E_mol          TotEng         Press     
   2840000   295.15663      376.43049      18564.778      19363.515     -279.26848    
   2850000   311.79507      383.7128       18505.926      19335.752     -213.79885    
Loop time of 3.52151 on 64 procs for 10000 steps with 481 atoms

Performance: 12.267 ns/day, 1.956 hours/ns, 2839.692 timesteps/s, 1.366 Matom-step/s
100.0% CPU use with 64 MPI tasks x 1 OpenMP threads

MPI task timing breakdown:
Section |  min time  |  avg time  |  max time  |%varavg| %total
---------------------------------------------------------------
Pair    | 0.0033312  | 0.14598    | 1.0808     |  69.8 |  4.15
Bond    | 0.0010531  | 0.16478    | 0.93353    |  69.1 |  4.68
Neigh   | 0.0046141  | 0.0053758  | 0.0057228  |   0.4 |  0.15
Comm    | 1.2766     | 2.6811     | 3.2533     |  38.5 | 76.13
Output  | 0.0014514  | 0.0027937  | 0.0042056  |   1.6 |  0.08
Modify  | 0.11773    | 0.40356    | 1.8472     |  80.8 | 11.46
Other   |            | 0.1179     |            |       |  3.35

Nlocal:        7.51562 ave          35 max           0 min
Histogram: 41 6 1 0 0 0 7 1 6 2
Nghost:        1815.73 ave        2404 max        1285 min
Histogram: 16 0 0 0 32 0 0 0 0 16
Neighs:              0 ave           0 max           0 min
Histogram: 64 0 0 0 0 0 0 0 0 0

Total # of neighbors = 0
Ave neighs/atom = 0
Ave special neighs/atom = 15.567568
Neighbor list builds = 11
Dangerous builds = 0
fix             myat1 all ave/time 1000 10 10000 v_zave v_zdes file simulation_data/abpot/${cpt}.dat
fix             myat1 all ave/time 1000 10 10000 v_zave v_zdes file simulation_data/abpot/48.dat
run             50000
Generated 0 of 1 mixed pair_coeff terms from geometric mixing rule
Per MPI rank memory allocation (min/avg/max) = 13.32 | 13.62 | 14.95 Mbytes
   Step          Temp          E_pair         E_mol          TotEng         Press     
   2850000   311.79507      383.7128       18505.926      19335.752     -213.79885    
   2860000   291.91715      387.04269      18517.394      19322.108     -43.30224     
   2870000   296.33426      381.72834      18533.76       19339.48      -216.08278    
   2880000   309.83905      381.95809      18533.719      19358.992     -202.77632    
   2890000   303.46546      391.94739      18534.285      19360.427      197.41972    
   2900000   304.19671      388.28761      18522.316      19345.845      37.94823     
Loop time of 17.7301 on 64 procs for 50000 steps with 481 atoms

Performance: 12.183 ns/day, 1.970 hours/ns, 2820.063 timesteps/s, 1.356 Matom-step/s
100.0% CPU use with 64 MPI tasks x 1 OpenMP threads

MPI task timing breakdown:
Section |  min time  |  avg time  |  max time  |%varavg| %total
---------------------------------------------------------------
Pair    | 0.017347   | 0.73145    | 5.5847     | 157.1 |  4.13
Bond    | 0.0052735  | 0.82651    | 4.7158     | 154.5 |  4.66
Neigh   | 0.029536   | 0.034432   | 0.036863   |   1.0 |  0.19
Comm    | 6.5911     | 13.488     | 16.384     |  86.5 | 76.08
Output  | 0.0075807  | 0.01439    | 0.021255   |   3.6 |  0.08
Modify  | 0.59531    | 2.0469     | 9.3487     | 181.5 | 11.54
Other   |            | 0.588      |            |       |  3.32

Nlocal:        7.51562 ave          42 max           0 min
Histogram: 43 4 1 1 1 5 2 5 1 1
Nghost:        1822.58 ave        2415 max        1290 min
Histogram: 16 0 0 0 32 0 0 0 0 16
Neighs:              0 ave           0 max           0 min
Histogram: 64 0 0 0 0 0 0 0 0 0

Total # of neighbors = 0
Ave neighs/atom = 0
Ave special neighs/atom = 15.567568
Neighbor list builds = 69
Dangerous builds = 0
unfix           myat1
next            cpt
jump            SELF loop
variable        zdes equal  -15+0.60*(${cpt}-1)
variable        zdes equal  -15+0.60*(49-1)
variable        zave equal xcm(H2,z)
fix             mytth2 H2 spring tether ${k1} 2.5 2.5 ${zdes} 0
fix             mytth2 H2 spring tether 1.2 2.5 2.5 ${zdes} 0
fix             mytth2 H2 spring tether 1.2 2.5 2.5 13.8 0
run             10000
Generated 0 of 1 mixed pair_coeff terms from geometric mixing rule
Per MPI rank memory allocation (min/avg/max) = 13.32 | 13.62 | 14.95 Mbytes
   Step          Temp          E_pair         E_mol          TotEng         Press     
   2900000   304.19671      388.28761      18522.316      19345.845      37.94823     
   2910000   277.25926      380.12452      18545.294      19322.118     -209.54434    
Loop time of 3.4533 on 64 procs for 10000 steps with 481 atoms

Performance: 12.510 ns/day, 1.918 hours/ns, 2895.783 timesteps/s, 1.393 Matom-step/s
100.0% CPU use with 64 MPI tasks x 1 OpenMP threads

MPI task timing breakdown:
Section |  min time  |  avg time  |  max time  |%varavg| %total
---------------------------------------------------------------
Pair    | 0.003385   | 0.14538    | 1.0619     |  69.6 |  4.21
Bond    | 0.0010613  | 0.16434    | 0.86404    |  68.5 |  4.76
Neigh   | 0.0045522  | 0.0053577  | 0.0057395  |   0.4 |  0.16
Comm    | 1.3875     | 2.617      | 3.1841     |  37.5 | 75.78
Output  | 0.0014949  | 0.0028606  | 0.0042903  |   1.6 |  0.08
Modify  | 0.12138    | 0.40119    | 1.7829     |  77.3 | 11.62
Other   |            | 0.1172     |            |       |  3.39

Nlocal:        7.51562 ave          37 max           0 min
Histogram: 42 5 1 0 2 1 3 2 5 3
Nghost:        1821.64 ave        2413 max        1292 min
Histogram: 16 0 0 0 32 0 0 0 0 16
Neighs:              0 ave           0 max           0 min
Histogram: 64 0 0 0 0 0 0 0 0 0

Total # of neighbors = 0
Ave neighs/atom = 0
Ave special neighs/atom = 15.567568
Neighbor list builds = 11
Dangerous builds = 0
fix             myat1 all ave/time 1000 10 10000 v_zave v_zdes file simulation_data/abpot/${cpt}.dat
fix             myat1 all ave/time 1000 10 10000 v_zave v_zdes file simulation_data/abpot/49.dat
run             50000
Generated 0 of 1 mixed pair_coeff terms from geometric mixing rule
Per MPI rank memory allocation (min/avg/max) = 13.32 | 13.62 | 14.95 Mbytes
   Step          Temp          E_pair         E_mol          TotEng         Press     
   2910000   277.25926      380.12452      18545.294      19322.118     -209.54434    
   2920000   313.51602      387.14509      18532.207      19367.927     -67.63992     
   2930000   318.07955      394.6601       18507.329      19357.094      167.11924    
   2940000   311.22209      380.44158      18531.666      19357.4       -196.61919    
   2950000   280.9132       388.46782      18532.203      19322.598      16.3236      
   2960000   291.98202      386.62092      18492.941      19297.326     -154.74905    
Loop time of 17.4554 on 64 procs for 50000 steps with 481 atoms

Performance: 12.374 ns/day, 1.939 hours/ns, 2864.444 timesteps/s, 1.378 Matom-step/s
100.0% CPU use with 64 MPI tasks x 1 OpenMP threads

MPI task timing breakdown:
Section |  min time  |  avg time  |  max time  |%varavg| %total
---------------------------------------------------------------
Pair    | 0.017144   | 0.72922    | 5.5842     | 156.6 |  4.18
Bond    | 0.0052674  | 0.82289    | 4.4413     | 153.5 |  4.71
Neigh   | 0.028233   | 0.033007   | 0.035331   |   1.0 |  0.19
Comm    | 6.8165     | 13.266     | 16.11      |  85.3 | 76.00
Output  | 0.007406   | 0.014253   | 0.021144   |   3.7 |  0.08
Modify  | 0.59646    | 2.0028     | 9.0978     | 177.6 | 11.47
Other   |            | 0.5871     |            |       |  3.36

Nlocal:        7.51562 ave          36 max           0 min
Histogram: 42 4 2 0 0 4 3 2 1 6
Nghost:        1821.08 ave        2412 max        1288 min
Histogram: 16 0 0 0 32 0 0 0 0 16
Neighs:              0 ave           0 max           0 min
Histogram: 64 0 0 0 0 0 0 0 0 0

Total # of neighbors = 0
Ave neighs/atom = 0
Ave special neighs/atom = 15.567568
Neighbor list builds = 68
Dangerous builds = 0
unfix           myat1
next            cpt
jump            SELF loop
variable        zdes equal  -15+0.60*(${cpt}-1)
variable        zdes equal  -15+0.60*(50-1)
variable        zave equal xcm(H2,z)
fix             mytth2 H2 spring tether ${k1} 2.5 2.5 ${zdes} 0
fix             mytth2 H2 spring tether 1.2 2.5 2.5 ${zdes} 0
fix             mytth2 H2 spring tether 1.2 2.5 2.5 14.4 0
run             10000
Generated 0 of 1 mixed pair_coeff terms from geometric mixing rule
Per MPI rank memory allocation (min/avg/max) = 13.32 | 13.62 | 14.95 Mbytes
   Step          Temp          E_pair         E_mol          TotEng         Press     
   2960000   291.98202      386.62092      18492.941      19297.326     -154.74905    
   2970000   290.50278      384.586        18498.284      19298.518     -91.886211    
Loop time of 3.56992 on 64 procs for 10000 steps with 481 atoms

Performance: 12.101 ns/day, 1.983 hours/ns, 2801.185 timesteps/s, 1.347 Matom-step/s
100.0% CPU use with 64 MPI tasks x 1 OpenMP threads

MPI task timing breakdown:
Section |  min time  |  avg time  |  max time  |%varavg| %total
---------------------------------------------------------------
Pair    | 0.0032954  | 0.14583    | 1.1493     |  70.2 |  4.08
Bond    | 0.001063   | 0.16423    | 0.89515    |  68.3 |  4.60
Neigh   | 0.0041791  | 0.0048976  | 0.0052263  |   0.4 |  0.14
Comm    | 1.3921     | 2.7087     | 3.2964     |  38.8 | 75.88
Output  | 0.0014764  | 0.002834   | 0.0042325  |   1.6 |  0.08
Modify  | 0.12654    | 0.42459    | 1.901      |  82.1 | 11.89
Other   |            | 0.1188     |            |       |  3.33

Nlocal:        7.51562 ave          37 max           0 min
Histogram: 42 4 2 0 0 6 2 1 4 3
Nghost:        1818.08 ave        2401 max        1287 min
Histogram: 16 0 0 0 32 0 0 0 0 16
Neighs:              0 ave           0 max           0 min
Histogram: 64 0 0 0 0 0 0 0 0 0

Total # of neighbors = 0
Ave neighs/atom = 0
Ave special neighs/atom = 15.567568
Neighbor list builds = 10
Dangerous builds = 0
fix             myat1 all ave/time 1000 10 10000 v_zave v_zdes file simulation_data/abpot/${cpt}.dat
fix             myat1 all ave/time 1000 10 10000 v_zave v_zdes file simulation_data/abpot/50.dat
run             50000
Generated 0 of 1 mixed pair_coeff terms from geometric mixing rule
Per MPI rank memory allocation (min/avg/max) = 13.32 | 13.62 | 14.95 Mbytes
   Step          Temp          E_pair         E_mol          TotEng         Press     
   2970000   290.50278      384.586        18498.284      19298.518     -91.886211    
   2980000   294.345        382.65837      18540.481      19344.285     -119.5709     
   2990000   302.38155      390.09684      18528.008      19350.749      208.84072    
   3000000   265.37122      378.21427      18507.89       19265.795     -223.39974    
   3010000   300.67865      385.38789      18536.033      19351.629     -111.98284    
   3020000   307.45093      388.17854      18522.465      19350.541      45.865759    
Loop time of 17.891 on 64 procs for 50000 steps with 481 atoms

Performance: 12.073 ns/day, 1.988 hours/ns, 2794.703 timesteps/s, 1.344 Matom-step/s
100.0% CPU use with 64 MPI tasks x 1 OpenMP threads

MPI task timing breakdown:
Section |  min time  |  avg time  |  max time  |%varavg| %total
---------------------------------------------------------------
Pair    | 0.017086   | 0.73304    | 5.7286     | 157.8 |  4.10
Bond    | 0.0052516  | 0.82446    | 4.3667     | 153.6 |  4.61
Neigh   | 0.027298   | 0.031715   | 0.03382    |   1.0 |  0.18
Comm    | 7.0718     | 13.606     | 16.568     |  87.4 | 76.05
Output  | 0.0074586  | 0.014309   | 0.021228   |   3.7 |  0.08
Modify  | 0.58361    | 2.0953     | 9.5407     | 186.4 | 11.71
Other   |            | 0.5863     |            |       |  3.28

Nlocal:        7.51562 ave          36 max           0 min
Histogram: 40 8 0 0 0 2 2 5 6 1
Nghost:        1824.27 ave        2418 max        1289 min
Histogram: 16 0 0 0 32 0 0 0 0 16
Neighs:              0 ave           0 max           0 min
Histogram: 64 0 0 0 0 0 0 0 0 0

Total # of neighbors = 0
Ave neighs/atom = 0
Ave special neighs/atom = 15.567568
Neighbor list builds = 62
Dangerous builds = 0
unfix           myat1
next            cpt
jump            SELF loop
variable        zdes equal  -15+0.60*(${cpt}-1)
variable        zdes equal  -15+0.60*(51-1)
variable        zave equal xcm(H2,z)
fix             mytth2 H2 spring tether ${k1} 2.5 2.5 ${zdes} 0
fix             mytth2 H2 spring tether 1.2 2.5 2.5 ${zdes} 0
fix             mytth2 H2 spring tether 1.2 2.5 2.5 15 0
run             10000
Generated 0 of 1 mixed pair_coeff terms from geometric mixing rule
Per MPI rank memory allocation (min/avg/max) = 13.32 | 13.62 | 14.95 Mbytes
   Step          Temp          E_pair         E_mol          TotEng         Press     
   3020000   307.45093      388.17854      18522.465      19350.541      45.865759    
   3030000   312.64086      382.51351      18536.961      19366.797     -15.084153    
Loop time of 3.43488 on 64 procs for 10000 steps with 481 atoms

Performance: 12.577 ns/day, 1.908 hours/ns, 2911.307 timesteps/s, 1.400 Matom-step/s
100.0% CPU use with 64 MPI tasks x 1 OpenMP threads

MPI task timing breakdown:
Section |  min time  |  avg time  |  max time  |%varavg| %total
---------------------------------------------------------------
Pair    | 0.0032908  | 0.14648    | 1.1276     |  70.4 |  4.26
Bond    | 0.0010605  | 0.16458    | 0.9049     |  69.0 |  4.79
Neigh   | 0.0076479  | 0.0090185  | 0.0096637  |   0.6 |  0.26
Comm    | 1.3074     | 2.6049     | 3.1735     |  38.2 | 75.84
Output  | 0.0014584  | 0.0028219  | 0.0042337  |   1.7 |  0.08
Modify  | 0.11301    | 0.39008    | 1.763      |  78.6 | 11.36
Other   |            | 0.117      |            |       |  3.41

Nlocal:        7.51562 ave          38 max           0 min
Histogram: 43 5 0 0 0 3 4 6 1 2
Nghost:        1821.64 ave        2415 max        1286 min
Histogram: 16 0 0 0 32 0 0 0 0 16
Neighs:              0 ave           0 max           0 min
Histogram: 64 0 0 0 0 0 0 0 0 0

Total # of neighbors = 0
Ave neighs/atom = 0
Ave special neighs/atom = 15.567568
Neighbor list builds = 19
Dangerous builds = 0
fix             myat1 all ave/time 1000 10 10000 v_zave v_zdes file simulation_data/abpot/${cpt}.dat
fix             myat1 all ave/time 1000 10 10000 v_zave v_zdes file simulation_data/abpot/51.dat
run             50000
Generated 0 of 1 mixed pair_coeff terms from geometric mixing rule
Per MPI rank memory allocation (min/avg/max) = 13.32 | 13.62 | 14.95 Mbytes
   Step          Temp          E_pair         E_mol          TotEng         Press     
   3030000   312.64086      382.51351      18536.961      19366.797     -15.084153    
   3040000   282.35674      385.66809      18540.847      19330.508     -22.280311    
   3050000   301.66165      380.59838      18516.014      19328.226     -50.724839    
   3060000   302.61726      381.6876       18538.853      19353.522     -143.1182     
   3070000   316.06765      391.54494      18499.612      19343.383      165.19022    
   3080000   301.0675       385.62281      18532.889      19349.276     -38.885545    
Loop time of 17.6682 on 64 procs for 50000 steps with 481 atoms

Performance: 12.225 ns/day, 1.963 hours/ns, 2829.935 timesteps/s, 1.361 Matom-step/s
100.0% CPU use with 64 MPI tasks x 1 OpenMP threads

MPI task timing breakdown:
Section |  min time  |  avg time  |  max time  |%varavg| %total
---------------------------------------------------------------
Pair    | 0.017261   | 0.73146    | 5.7004     | 157.1 |  4.14
Bond    | 0.0052854  | 0.82392    | 4.4178     | 153.4 |  4.66
Neigh   | 0.043439   | 0.050678   | 0.05419    |   1.3 |  0.29
Comm    | 6.7858     | 13.4       | 16.334     |  86.1 | 75.84
Output  | 0.0073699  | 0.014238   | 0.021178   |   3.7 |  0.08
Modify  | 0.57155    | 2.062      | 9.2859     | 180.1 | 11.67
Other   |            | 0.5863     |            |       |  3.32

Nlocal:        7.51562 ave          34 max           0 min
Histogram: 41 6 1 0 0 2 1 6 2 5
Nghost:         1825.3 ave        2428 max        1290 min
Histogram: 16 0 0 0 32 0 0 0 0 16
Neighs:              0 ave           0 max           0 min
Histogram: 64 0 0 0 0 0 0 0 0 0

Total # of neighbors = 0
Ave neighs/atom = 0
Ave special neighs/atom = 15.567568
Neighbor list builds = 103
Dangerous builds = 0
unfix           myat1
next            cpt
jump            SELF loop

Total wall time: 0:18:19
