# --- log file ---

variable pre equal 112 # desired pressure (Atm)
variable tem equal 300 # desired temperature (K)

variable k1 equal 1.0 # spring constant
variable k2 equal 2.5 # spring constant

units real
atom_style molecular
boundary p p p
neighbor 1.0 bin
neigh_modify delay 3 one 6000
bond_style harmonic
angle_style harmonic
dihedral_style opls
improper_style harmonic
pair_style hybrid lj/cut 14 sg 15 cb 30 # Fluid-fluid interactions have a cutoff of 15 Å, fluid-solid interactions have a cutoff of 30 Å
# *--* C-C parameters *--*
bond_style harmonic
angle_style harmonic
dihedral_style opls
improper_style harmonic
# *--* C-C parameters *--*


# 2. Read the graphite platelet data file and define potentials parameters
read_data       ../geometry/carbonPlatelets/simulation_data/abpot_sys.data  extra/atom/types 1
Reading data file ...
  orthogonal box = (-30 -30 -30) to (30 30 30)
  3 by 4 by 4 MPI processor grid
  reading atoms ...
  480 atoms
  reading velocities ...
  480 velocities
  scanning bonds ...
  2 = max bonds/atom
  scanning angles ...
  3 = max angles/atom
  scanning dihedrals ...
  8 = max dihedrals/atom
  scanning impropers ...
  2 = max impropers/atom
  orthogonal box = (-30 -30 -30) to (30 30 30)
  3 by 4 by 4 MPI processor grid
  reading bonds ...
  676 bonds
  reading angles ...
  1268 angles
  reading dihedrals ...
  2394 dihedrals
  reading impropers ...
  396 impropers
Finding 1-2 1-3 1-4 neighbors ...
  special bond factors lj:    0        0        0       
  special bond factors coul:  0        0        0       
     3 = max # of 1-2 neighbors
     6 = max # of 1-3 neighbors
    18 = max # of 1-4 neighbors
    18 = max # of special neighbors
  special bonds CPU = 0.004 seconds
  read_data CPU = 0.052 seconds
include         PARM.lammps

#////////////////////////////////////////////////////////////////////////////////////////////////////////////////////////////////
#//     Filename: PARM.lammps
#//     File Type: LAMMPS input script
#//     Description: This script defines the parameters for the simulation of hydrogen absorption in graphite platelets.
#//     Author: Edoardo Cabiati
#//     Date: 2024-07-27
#////////////////////////////////////////////////////////////////////////////////////////////////////////////////////////////////

mass 2 2.016 # For now at least, in accordance with the paper by Wang and Johnson,
             # 1998, the hydrogen atoms are regarded as simple spherical atoms

# //////////////////////////////////////    C-C potentials    //////////////////////////////////////
pair_coeff 1 1 lj/cut 0.066 3.4
bond_coeff 1 469 1.4
angle_coeff 1 63 120
dihedral_coeff 1 0 7.25 0 0
improper_coeff 1 5 180
special_bonds lj 0.0 0.0 0.5
Finding 1-2 1-3 1-4 neighbors ...
  special bond factors lj:    0        0        0.5     
  special bond factors coul:  0        0        0       
     3 = max # of 1-2 neighbors
     6 = max # of 1-3 neighbors
    18 = max # of 1-4 neighbors
    18 = max # of special neighbors
  special bonds CPU = 0.001 seconds
# //////////////////////////////////////    C-C potentials    //////////////////////////////////////
# -------------------------------------------------------------------------------------------------
# //////////////////////////////////////    H-H potentials    //////////////////////////////////////
variable alpha equal 1.713          #|
variable sigma equal 1.567          #|
variable gamma equal 0.00993        #|
variable c6 equal 12.14             #|      The parameters are all in atomic units, the conversion to kcal/mol
variable c8 equal 215.2             #|      is performed in the pair_sg.cpp file
variable c9 equal 143.1             #|
variable c10 equal 4813.9           #|
variable rc equal 8.321             #|
pair_coeff 2 2 sg ${alpha} ${sigma} ${gamma} ${c6} ${c8} ${c9} ${c10} ${rc} # H-H potentials
pair_coeff 2 2 sg 1.713 ${sigma} ${gamma} ${c6} ${c8} ${c9} ${c10} ${rc} 
pair_coeff 2 2 sg 1.713 1.567 ${gamma} ${c6} ${c8} ${c9} ${c10} ${rc} 
pair_coeff 2 2 sg 1.713 1.567 0.00993 ${c6} ${c8} ${c9} ${c10} ${rc} 
pair_coeff 2 2 sg 1.713 1.567 0.00993 12.14 ${c8} ${c9} ${c10} ${rc} 
pair_coeff 2 2 sg 1.713 1.567 0.00993 12.14 215.2 ${c9} ${c10} ${rc} 
pair_coeff 2 2 sg 1.713 1.567 0.00993 12.14 215.2 143.1 ${c10} ${rc} 
pair_coeff 2 2 sg 1.713 1.567 0.00993 12.14 215.2 143.1 4813.9 ${rc} 
pair_coeff 2 2 sg 1.713 1.567 0.00993 12.14 215.2 143.1 4813.9 8.321 
#pair_coeff 2 2 sg 1.713 1.567 0.00993 12.14 215.2 143.1 4813.9 8.321 # H-H potentials
# //////////////////////////////////////    H-H potentials    //////////////////////////////////////
# -------------------------------------------------------------------------------------------------
# //////////////////////////////////////    C-H potentials    //////////////////////////////////////
variable sigma_CC equal 3.43 # Å
variable sigma_HH equal 3.075 # Å
variable sigma_CH_geo equal sqrt(${sigma_CC}*${sigma_HH}) # Å
variable sigma_CH_geo equal sqrt(3.43*${sigma_HH}) 
variable sigma_CH_geo equal sqrt(3.43*3.075) 
variable sigma_CH_arit equal 0.5*(${sigma_CC}+${sigma_HH}) # Å
variable sigma_CH_arit equal 0.5*(3.43+${sigma_HH}) 
variable sigma_CH_arit equal 0.5*(3.43+3.075) 

variable P_par equal 0.57 # Å^3
variable P_perp equal 1.995 # Å^3
variable P_h equal 0.81 # Å^3
variable E_h equal 2.337e5*(1/503.23) # K * 1/503.23 kcal/mol/K = kcal/mol
variable E_c equal 1.39254e5*(1/503.23) # K * 1/503.23 kcal/mol/K = kcal/mol

variable epsilon equal 4*v_E_h*v_E_c*v_P_h*(v_P_par+v_P_perp/2)/(v_sigma_CH_geo^6*(v_E_h+v_E_c)) # kcal/mol

pair_coeff 1 2 cb ${epsilon} ${sigma_CH_geo} ${P_par} ${P_perp} # C-H potential
pair_coeff 1 2 cb 0.750549668586509 ${sigma_CH_geo} ${P_par} ${P_perp} 
pair_coeff 1 2 cb 0.750549668586509 3.24765299870537 ${P_par} ${P_perp} 
pair_coeff 1 2 cb 0.750549668586509 3.24765299870537 0.57 ${P_perp} 
pair_coeff 1 2 cb 0.750549668586509 3.24765299870537 0.57 1.995 
#pair_coeff 1 2 lj/cut 0.3025 2.065
# //////////////////////////////////////    C-H potentials    //////////////////////////////////////

# 3. Add a single hydrogen molecule to the system, close to the center of the first platelet
create_atoms    2 single 0 0 -2
Created 1 atoms
  using lattice units in orthogonal box = (-30 -30 -30) to (30 30 30)
  create_atoms CPU = 0.000 seconds

group           C type 1
480 atoms in group C
group           H2 type 2
1 atoms in group H2

# 4. Equilibration
timestep        0.05
fix             mytth1 C spring/self ${k2} # Apply a spring force to the carbon atoms
fix             mytth1 C spring/self 2.5 
velocity        all create ${tem} 48 rot yes mom yes dist gaussian # Initialize velocities
velocity        all create 300 48 rot yes mom yes dist gaussian 
fix             mynpt all npt temp ${tem} ${tem} 100 x ${pre} ${pre} 1000 y ${pre} ${pre} 1000 # Apply NPT ensemble to the system
fix             mynpt all npt temp 300 ${tem} 100 x ${pre} ${pre} 1000 y ${pre} ${pre} 1000 
fix             mynpt all npt temp 300 300 100 x ${pre} ${pre} 1000 y ${pre} ${pre} 1000 
fix             mynpt all npt temp 300 300 100 x 112 ${pre} 1000 y ${pre} ${pre} 1000 
fix             mynpt all npt temp 300 300 100 x 112 112 1000 y ${pre} ${pre} 1000 
fix             mynpt all npt temp 300 300 100 x 112 112 1000 y 112 ${pre} 1000 
fix             mynpt all npt temp 300 300 100 x 112 112 1000 y 112 112 1000 

thermo          10000
dump            dump all atom 1000 simulation_data/absorption_pot.lammpstrj

run             20000

CITE-CITE-CITE-CITE-CITE-CITE-CITE-CITE-CITE-CITE-CITE-CITE-CITE

Your simulation uses code contributions which should be cited:

- Type Label Framework: https://doi.org/10.1021/acs.jpcb.3c08419

@Article{Gissinger24,
 author = {Jacob R. Gissinger, Ilia Nikiforov, Yaser Afshar, Brendon Waters, Moon-ki Choi, Daniel S. Karls, Alexander Stukowski, Wonpil Im, Hendrik Heinz, Axel Kohlmeyer, and Ellad B. Tadmor},
 title = {Type Label Framework for Bonded Force Fields in LAMMPS},
 journal = {J. Phys. Chem. B},
 year =    2024,
 volume =  128,
 number =  13,
 pages =   {3282–-3297}
}

CITE-CITE-CITE-CITE-CITE-CITE-CITE-CITE-CITE-CITE-CITE-CITE-CITE

Generated 0 of 1 mixed pair_coeff terms from geometric mixing rule
Neighbor list info ...
  update: every = 1 steps, delay = 3 steps, check = yes
  max neighbors/atom: 6000, page size: 100000
  master list distance cutoff = 31
  ghost atom cutoff = 31
  binsize = 15.5, bins = 4 4 4
  4 neighbor lists, perpetual/occasional/extra = 4 0 0
  (1) pair lj/cut, perpetual, skip trim from (4)
      attributes: half, newton on, cut 15
      pair build: skip/trim
      stencil: none
      bin: none
  (2) pair sg, perpetual, skip trim from (4)
      attributes: half, newton on, cut 16
      pair build: skip/trim
      stencil: none
      bin: none
  (3) pair cb, perpetual, skip from (4)
      attributes: half, newton on
      pair build: skip
      stencil: none
      bin: none
  (4) neighbor class addition, perpetual
      attributes: half, newton on
      pair build: half/bin/newton
      stencil: half/bin/3d
      bin: standard
Per MPI rank memory allocation (min/avg/max) = 13.28 | 13.37 | 13.93 Mbytes
   Step          Temp          E_pair         E_mol          TotEng         Press          Volume    
         0   300            308.43814      19603.922      20341.597     -432.48369      216000       
     10000   316.19925      372.43749      18560.777      19385.629     -429.95184      178677.27    
     20000   321.12375      376.41763      18551.171      19387.049     -319.26564      135000.31    
Loop time of 9.56286 on 48 procs for 20000 steps with 481 atoms

Performance: 9.035 ns/day, 2.656 hours/ns, 2091.424 timesteps/s, 1.006 Matom-step/s
99.9% CPU use with 48 MPI tasks x 1 OpenMP threads

MPI task timing breakdown:
Section |  min time  |  avg time  |  max time  |%varavg| %total
---------------------------------------------------------------
Pair    | 0.12858    | 0.56536    | 2.7938     |  88.1 |  5.91
Bond    | 0.0041064  | 0.50448    | 3.3088     | 129.8 |  5.28
Neigh   | 0.025126   | 0.028298   | 0.031757   |   1.1 |  0.30
Comm    | 2.8206     | 5.3619     | 8.0814     |  82.4 | 56.07
Output  | 0.0045013  | 0.010308   | 0.016582   |   4.0 |  0.11
Modify  | 0.74188    | 2.751      | 6.0332     | 124.1 | 28.77
Other   |            | 0.3415     |            |       |  3.57

Nlocal:        10.0208 ave          48 max           0 min
Histogram: 22 12 6 0 0 0 2 2 2 2
Nghost:        1818.35 ave        2346 max        1176 min
Histogram: 8 0 0 0 24 0 0 0 0 16
Neighs:              0 ave           0 max           0 min
Histogram: 48 0 0 0 0 0 0 0 0 0

Total # of neighbors = 0
Ave neighs/atom = 0
Ave special neighs/atom = 15.567568
Neighbor list builds = 53
Dangerous builds = 0
unfix           mynpt
unfix           mytth1

# 5. Umbrella sampling
fix             mynvt all nvt temp ${tem} ${tem} 100
fix             mynvt all nvt temp 300 ${tem} 100
fix             mynvt all nvt temp 300 300 100
fix             mytth1 C spring/self ${k2}
fix             mytth1 C spring/self 2.5

variable        cpt loop 51
label           loop
variable        zdes equal  -15+0.60*(${cpt}-1)
variable        zdes equal  -15+0.60*(1-1)
variable        zave equal xcm(H2,z)
fix             mytth2 H2 spring tether ${k1} 2.5 2.5 ${zdes} 0
fix             mytth2 H2 spring tether 1 2.5 2.5 ${zdes} 0
fix             mytth2 H2 spring tether 1 2.5 2.5 -15 0
run             10000
Generated 0 of 1 mixed pair_coeff terms from geometric mixing rule
Per MPI rank memory allocation (min/avg/max) = 13.32 | 13.7 | 14.98 Mbytes
   Step          Temp          E_pair         E_mol          TotEng         Press     
     20000   321.12375      376.41763      18551.171      19387.049     -319.26564    
     30000   301.23173      340.86933      18606.15       19378.019     -1106.0206    
Loop time of 4.12042 on 48 procs for 10000 steps with 481 atoms

Performance: 10.484 ns/day, 2.289 hours/ns, 2426.935 timesteps/s, 1.167 Matom-step/s
100.0% CPU use with 48 MPI tasks x 1 OpenMP threads

MPI task timing breakdown:
Section |  min time  |  avg time  |  max time  |%varavg| %total
---------------------------------------------------------------
Pair    | 0.0035947  | 0.18275    | 1.1753     |  66.6 |  4.44
Bond    | 0.001074   | 0.21576    | 1.5191     |  74.7 |  5.24
Neigh   | 0.031977   | 0.036163   | 0.040595   |   1.2 |  0.88
Comm    | 1.436      | 3.0125     | 3.7337     |  46.7 | 73.11
Output  | 0.0019562  | 0.0045407  | 0.0072044  |   2.7 |  0.11
Modify  | 0.13308    | 0.53462    | 2.3364     | 100.4 | 12.97
Other   |            | 0.1341     |            |       |  3.25

Nlocal:        10.0208 ave          51 max           0 min
Histogram: 24 9 6 1 1 2 1 1 2 1
Nghost:        1818.35 ave        2347 max        1172 min
Histogram: 8 0 0 0 24 0 0 0 0 16
Neighs:              0 ave           0 max           0 min
Histogram: 48 0 0 0 0 0 0 0 0 0

Total # of neighbors = 0
Ave neighs/atom = 0
Ave special neighs/atom = 15.567568
Neighbor list builds = 73
Dangerous builds = 0
fix             myat1 all ave/time 1000 10 10000 v_zave v_zdes file simulation_data/abpot/${cpt}.dat
fix             myat1 all ave/time 1000 10 10000 v_zave v_zdes file simulation_data/abpot/1.dat
run             50000
Generated 0 of 1 mixed pair_coeff terms from geometric mixing rule
Per MPI rank memory allocation (min/avg/max) = 13.32 | 13.72 | 14.98 Mbytes
   Step          Temp          E_pair         E_mol          TotEng         Press     
     30000   301.23173      340.86933      18606.15       19378.019     -1106.0206    
     40000   289.27876      387.046        18557.632      19358.575      252.86083    
     50000   297.216        397.15542      18511.666      19334.075      572.65454    
     60000   275.58926      378.43787      18558.291      19331.039      95.771192    
     70000   306.58376      382.89225      18539.792      19361.34       162.99592    
     80000   287.06004      380.41514      18538.962      19330.099     -23.956897    
Loop time of 20.9188 on 48 procs for 50000 steps with 481 atoms

Performance: 10.326 ns/day, 2.324 hours/ns, 2390.193 timesteps/s, 1.150 Matom-step/s
100.0% CPU use with 48 MPI tasks x 1 OpenMP threads

MPI task timing breakdown:
Section |  min time  |  avg time  |  max time  |%varavg| %total
---------------------------------------------------------------
Pair    | 0.017586   | 0.92123    | 6.9298     | 157.1 |  4.40
Bond    | 0.0052895  | 1.0814     | 6.7382     | 164.4 |  5.17
Neigh   | 0.062331   | 0.069944   | 0.077801   |   1.6 |  0.33
Comm    | 7.0891     | 15.281     | 18.823     | 106.5 | 73.05
Output  | 0.0096099  | 0.017854   | 0.026415   |   4.0 |  0.09
Modify  | 0.66665    | 2.8247     | 12.184     | 228.4 | 13.50
Other   |            | 0.723      |            |       |  3.46

Nlocal:        10.0208 ave          49 max           0 min
Histogram: 21 13 6 0 0 1 2 1 2 2
Nghost:        1818.35 ave        2347 max        1177 min
Histogram: 8 0 0 0 24 0 0 0 0 16
Neighs:              0 ave           0 max           0 min
Histogram: 48 0 0 0 0 0 0 0 0 0

Total # of neighbors = 0
Ave neighs/atom = 0
Ave special neighs/atom = 15.567568
Neighbor list builds = 137
Dangerous builds = 0
unfix           myat1
next            cpt
jump            SELF loop
variable        zdes equal  -15+0.60*(${cpt}-1)
variable        zdes equal  -15+0.60*(2-1)
variable        zave equal xcm(H2,z)
fix             mytth2 H2 spring tether ${k1} 2.5 2.5 ${zdes} 0
fix             mytth2 H2 spring tether 1 2.5 2.5 ${zdes} 0
fix             mytth2 H2 spring tether 1 2.5 2.5 -14.4 0
run             10000
Generated 0 of 1 mixed pair_coeff terms from geometric mixing rule
Per MPI rank memory allocation (min/avg/max) = 13.32 | 13.73 | 14.98 Mbytes
   Step          Temp          E_pair         E_mol          TotEng         Press     
     80000   287.06004      380.41514      18538.962      19330.099     -23.956897    
     90000   282.8794       358.58092      18559.925      19323.247     -371.20545    
Loop time of 4.18244 on 48 procs for 10000 steps with 481 atoms

Performance: 10.329 ns/day, 2.324 hours/ns, 2390.949 timesteps/s, 1.150 Matom-step/s
100.0% CPU use with 48 MPI tasks x 1 OpenMP threads

MPI task timing breakdown:
Section |  min time  |  avg time  |  max time  |%varavg| %total
---------------------------------------------------------------
Pair    | 0.0033964  | 0.18431    | 1.4626     |  72.0 |  4.41
Bond    | 0.0010567  | 0.21579    | 1.3319     |  73.8 |  5.16
Neigh   | 0.0076582  | 0.0087026  | 0.0095927  |   0.6 |  0.21
Comm    | 1.3455     | 3.078      | 3.8155     |  48.7 | 73.59
Output  | 0.0018158  | 0.0031285  | 0.0045356  |   1.5 |  0.07
Modify  | 0.12412    | 0.55305    | 2.4082     | 105.2 | 13.22
Other   |            | 0.1394     |            |       |  3.33

Nlocal:        10.0208 ave          46 max           0 min
Histogram: 22 10 8 0 0 0 2 2 1 3
Nghost:        1818.35 ave        2348 max        1177 min
Histogram: 8 0 0 0 24 0 0 0 0 16
Neighs:              0 ave           0 max           0 min
Histogram: 48 0 0 0 0 0 0 0 0 0

Total # of neighbors = 0
Ave neighs/atom = 0
Ave special neighs/atom = 15.567568
Neighbor list builds = 17
Dangerous builds = 0
fix             myat1 all ave/time 1000 10 10000 v_zave v_zdes file simulation_data/abpot/${cpt}.dat
fix             myat1 all ave/time 1000 10 10000 v_zave v_zdes file simulation_data/abpot/2.dat
run             50000
Generated 0 of 1 mixed pair_coeff terms from geometric mixing rule
Per MPI rank memory allocation (min/avg/max) = 13.32 | 13.73 | 14.98 Mbytes
   Step          Temp          E_pair         E_mol          TotEng         Press     
     90000   282.8794       358.58092      18559.925      19323.247     -371.20545    
    100000   289.91191      376.95601      18543.705      19335.464      57.143733    
    110000   297.05553      395.16116      18524.829      19345.014      482.71003    
    120000   282.46162      380.09493      18567.837      19352.075     -41.463259    
    130000   287.20524      365.49009      18561.682      19338.103     -359.84211    
    140000   287.80276      377.59237      18502.567      19291.944      8.0896212    
Loop time of 20.9781 on 48 procs for 50000 steps with 481 atoms

Performance: 10.296 ns/day, 2.331 hours/ns, 2383.434 timesteps/s, 1.146 Matom-step/s
100.0% CPU use with 48 MPI tasks x 1 OpenMP threads

MPI task timing breakdown:
Section |  min time  |  avg time  |  max time  |%varavg| %total
---------------------------------------------------------------
Pair    | 0.017843   | 0.92465    | 6.9208     | 163.5 |  4.41
Bond    | 0.0053015  | 1.0781     | 6.5611     | 167.0 |  5.14
Neigh   | 0.043201   | 0.048791   | 0.053244   |   1.3 |  0.23
Comm    | 6.9509     | 15.336     | 19.126     | 109.1 | 73.11
Output  | 0.0092381  | 0.016119   | 0.022985   |   3.5 |  0.08
Modify  | 0.6743     | 2.8826     | 12.157     | 231.1 | 13.74
Other   |            | 0.6916     |            |       |  3.30

Nlocal:        10.0208 ave          52 max           0 min
Histogram: 25 11 4 0 0 2 1 2 1 2
Nghost:        1818.35 ave        2347 max        1171 min
Histogram: 8 0 0 0 24 0 0 0 0 16
Neighs:              0 ave           0 max           0 min
Histogram: 48 0 0 0 0 0 0 0 0 0

Total # of neighbors = 0
Ave neighs/atom = 0
Ave special neighs/atom = 15.567568
Neighbor list builds = 92
Dangerous builds = 0
unfix           myat1
next            cpt
jump            SELF loop
variable        zdes equal  -15+0.60*(${cpt}-1)
variable        zdes equal  -15+0.60*(3-1)
variable        zave equal xcm(H2,z)
fix             mytth2 H2 spring tether ${k1} 2.5 2.5 ${zdes} 0
fix             mytth2 H2 spring tether 1 2.5 2.5 ${zdes} 0
fix             mytth2 H2 spring tether 1 2.5 2.5 -13.8 0
run             10000
Generated 0 of 1 mixed pair_coeff terms from geometric mixing rule
Per MPI rank memory allocation (min/avg/max) = 13.32 | 13.74 | 14.98 Mbytes
   Step          Temp          E_pair         E_mol          TotEng         Press     
    140000   287.80276      377.59237      18502.567      19291.944      8.0896212    
    150000   297.87845      388.0208       18529.191      19343.413      212.30804    
Loop time of 4.35291 on 48 procs for 10000 steps with 481 atoms

Performance: 9.924 ns/day, 2.418 hours/ns, 2297.313 timesteps/s, 1.105 Matom-step/s
100.0% CPU use with 48 MPI tasks x 1 OpenMP threads

MPI task timing breakdown:
Section |  min time  |  avg time  |  max time  |%varavg| %total
---------------------------------------------------------------
Pair    | 0.0034724  | 0.18793    | 1.4731     |  76.5 |  4.32
Bond    | 0.0010552  | 0.21869    | 1.4099     |  76.5 |  5.02
Neigh   | 0.0071682  | 0.0080682  | 0.0086754  |   0.5 |  0.19
Comm    | 1.1653     | 3.2012     | 3.9934     |  51.9 | 73.54
Output  | 0.0017715  | 0.0031085  | 0.0044813  |   1.6 |  0.07
Modify  | 0.137      | 0.60039    | 2.603      | 110.6 | 13.79
Other   |            | 0.1336     |            |       |  3.07

Nlocal:        10.0208 ave          55 max           0 min
Histogram: 24 12 4 0 1 2 1 2 1 1
Nghost:        1818.35 ave        2347 max        1168 min
Histogram: 8 0 0 0 24 0 0 0 0 16
Neighs:              0 ave           0 max           0 min
Histogram: 48 0 0 0 0 0 0 0 0 0

Total # of neighbors = 0
Ave neighs/atom = 0
Ave special neighs/atom = 15.567568
Neighbor list builds = 14
Dangerous builds = 0
fix             myat1 all ave/time 1000 10 10000 v_zave v_zdes file simulation_data/abpot/${cpt}.dat
fix             myat1 all ave/time 1000 10 10000 v_zave v_zdes file simulation_data/abpot/3.dat
run             50000
Generated 0 of 1 mixed pair_coeff terms from geometric mixing rule
Per MPI rank memory allocation (min/avg/max) = 13.32 | 13.74 | 14.98 Mbytes
   Step          Temp          E_pair         E_mol          TotEng         Press     
    150000   297.87845      388.0208       18529.191      19343.413      212.30804    
    160000   310.5138       378.64838      18543.415      19366.344      15.45484     
    170000   308.39951      373.82618      18528.483      19343.564      0.39317261   
    180000   292.90424      375.30841      18536.236      19330.629      6.541321     
    190000   290.63079      371.94318      18560.733      19348.507     -173.84435    
    200000   307.04989      372.02861      18542.877      19354.229      1.9724553    
Loop time of 20.3718 on 48 procs for 50000 steps with 481 atoms

Performance: 10.603 ns/day, 2.264 hours/ns, 2454.376 timesteps/s, 1.181 Matom-step/s
100.0% CPU use with 48 MPI tasks x 1 OpenMP threads

MPI task timing breakdown:
Section |  min time  |  avg time  |  max time  |%varavg| %total
---------------------------------------------------------------
Pair    | 0.017213   | 0.91232    | 7.0119     | 162.1 |  4.48
Bond    | 0.0052888  | 1.0687     | 6.6138     | 165.9 |  5.25
Neigh   | 0.029807   | 0.033853   | 0.037038   |   1.1 |  0.17
Comm    | 6.6662     | 14.847     | 18.534     | 106.9 | 72.88
Output  | 0.0091903  | 0.015799   | 0.022296   |   3.4 |  0.08
Modify  | 0.66804    | 2.8089     | 11.75      | 222.5 | 13.79
Other   |            | 0.6855     |            |       |  3.36

Nlocal:        10.0208 ave          44 max           0 min
Histogram: 20 13 7 0 0 0 0 2 2 4
Nghost:        1818.35 ave        2347 max        1182 min
Histogram: 8 0 0 0 24 0 0 0 0 16
Neighs:              0 ave           0 max           0 min
Histogram: 48 0 0 0 0 0 0 0 0 0

Total # of neighbors = 0
Ave neighs/atom = 0
Ave special neighs/atom = 15.567568
Neighbor list builds = 68
Dangerous builds = 0
unfix           myat1
next            cpt
jump            SELF loop
variable        zdes equal  -15+0.60*(${cpt}-1)
variable        zdes equal  -15+0.60*(4-1)
variable        zave equal xcm(H2,z)
fix             mytth2 H2 spring tether ${k1} 2.5 2.5 ${zdes} 0
fix             mytth2 H2 spring tether 1 2.5 2.5 ${zdes} 0
fix             mytth2 H2 spring tether 1 2.5 2.5 -13.2 0
run             10000
Generated 0 of 1 mixed pair_coeff terms from geometric mixing rule
Per MPI rank memory allocation (min/avg/max) = 13.32 | 13.74 | 14.98 Mbytes
   Step          Temp          E_pair         E_mol          TotEng         Press     
    200000   307.04989      372.02861      18542.877      19354.229      1.9724553    
    210000   292.24412      378.20832      18559.581      19355.929     -12.846813    
Loop time of 4.04479 on 48 procs for 10000 steps with 481 atoms

Performance: 10.680 ns/day, 2.247 hours/ns, 2472.318 timesteps/s, 1.189 Matom-step/s
100.0% CPU use with 48 MPI tasks x 1 OpenMP threads

MPI task timing breakdown:
Section |  min time  |  avg time  |  max time  |%varavg| %total
---------------------------------------------------------------
Pair    | 0.0033732  | 0.1743     | 1.3821     |  69.1 |  4.31
Bond    | 0.0010392  | 0.20801    | 1.407      |  72.5 |  5.14
Neigh   | 0.0036658  | 0.0041856  | 0.004664   |   0.4 |  0.10
Comm    | 1.3325     | 2.9009     | 3.6361     |  47.1 | 71.72
Output  | 0.0018273  | 0.00313    | 0.0044738  |   1.5 |  0.08
Modify  | 0.13814    | 0.59577    | 2.3865     |  97.2 | 14.73
Other   |            | 0.1585     |            |       |  3.92

Nlocal:        10.0208 ave          46 max           0 min
Histogram: 23 8 9 0 0 0 1 2 3 2
Nghost:        1818.35 ave        2347 max        1177 min
Histogram: 8 0 0 0 24 0 0 0 0 16
Neighs:              0 ave           0 max           0 min
Histogram: 48 0 0 0 0 0 0 0 0 0

Total # of neighbors = 0
Ave neighs/atom = 0
Ave special neighs/atom = 15.567568
Neighbor list builds = 9
Dangerous builds = 0
fix             myat1 all ave/time 1000 10 10000 v_zave v_zdes file simulation_data/abpot/${cpt}.dat
fix             myat1 all ave/time 1000 10 10000 v_zave v_zdes file simulation_data/abpot/4.dat
run             50000
Generated 0 of 1 mixed pair_coeff terms from geometric mixing rule
Per MPI rank memory allocation (min/avg/max) = 13.32 | 13.74 | 14.98 Mbytes
   Step          Temp          E_pair         E_mol          TotEng         Press     
    210000   292.24412      378.20832      18559.581      19355.929     -12.846813    
    220000   299.23914      392.29612      18559.197      19379.641      453.46167    
    230000   298.93347      378.73178      18551.759      19358.202      28.041058    
    240000   297.83731      379.97745      18515.064      19321.184      8.7883545    
    250000   294.18046      374.07179      18528.181      19323.163     -94.473686    
    260000   292.66904      373.36358      18546.855      19338.966     -58.625244    
Loop time of 20.6656 on 48 procs for 50000 steps with 481 atoms

Performance: 10.452 ns/day, 2.296 hours/ns, 2419.476 timesteps/s, 1.164 Matom-step/s
100.0% CPU use with 48 MPI tasks x 1 OpenMP threads

MPI task timing breakdown:
Section |  min time  |  avg time  |  max time  |%varavg| %total
---------------------------------------------------------------
Pair    | 0.016912   | 0.87716    | 6.9382     | 155.3 |  4.24
Bond    | 0.0052471  | 1.0423     | 6.8182     | 161.4 |  5.04
Neigh   | 0.037679   | 0.042978   | 0.047406   |   1.3 |  0.21
Comm    | 6.9624     | 14.871     | 18.578     | 106.4 | 71.96
Output  | 0.0093839  | 0.016097   | 0.022631   |   3.4 |  0.08
Modify  | 0.71366    | 3.0211     | 12.321     | 222.6 | 14.62
Other   |            | 0.7951     |            |       |  3.85

Nlocal:        10.0208 ave          50 max           0 min
Histogram: 23 12 5 0 0 1 0 4 1 2
Nghost:        1818.35 ave        2347 max        1173 min
Histogram: 8 0 0 0 24 0 0 0 0 16
Neighs:              0 ave           0 max           0 min
Histogram: 48 0 0 0 0 0 0 0 0 0

Total # of neighbors = 0
Ave neighs/atom = 0
Ave special neighs/atom = 15.567568
Neighbor list builds = 90
Dangerous builds = 0
unfix           myat1
next            cpt
jump            SELF loop
variable        zdes equal  -15+0.60*(${cpt}-1)
variable        zdes equal  -15+0.60*(5-1)
variable        zave equal xcm(H2,z)
fix             mytth2 H2 spring tether ${k1} 2.5 2.5 ${zdes} 0
fix             mytth2 H2 spring tether 1 2.5 2.5 ${zdes} 0
fix             mytth2 H2 spring tether 1 2.5 2.5 -12.6 0
run             10000
Generated 0 of 1 mixed pair_coeff terms from geometric mixing rule
Per MPI rank memory allocation (min/avg/max) = 13.32 | 13.74 | 14.98 Mbytes
   Step          Temp          E_pair         E_mol          TotEng         Press     
    260000   292.66904      373.36358      18546.855      19338.966     -58.625244    
    270000   308.60405      381.37201      18537.726      19360.645      81.145586    
Loop time of 4.14403 on 48 procs for 10000 steps with 481 atoms

Performance: 10.425 ns/day, 2.302 hours/ns, 2413.108 timesteps/s, 1.161 Matom-step/s
100.0% CPU use with 48 MPI tasks x 1 OpenMP threads

MPI task timing breakdown:
Section |  min time  |  avg time  |  max time  |%varavg| %total
---------------------------------------------------------------
Pair    | 0.003411   | 0.1807     | 1.4162     |  71.1 |  4.36
Bond    | 0.0010477  | 0.21233    | 1.2619     |  72.5 |  5.12
Neigh   | 0.0086336  | 0.0098671  | 0.010819   |   0.6 |  0.24
Comm    | 1.3501     | 2.9768     | 3.7306     |  47.6 | 71.83
Output  | 0.0018276  | 0.0032085  | 0.0046042  |   1.6 |  0.08
Modify  | 0.1403     | 0.60307    | 2.4833     |  98.9 | 14.55
Other   |            | 0.1581     |            |       |  3.81

Nlocal:        10.0208 ave          49 max           0 min
Histogram: 24 9 7 0 0 0 2 2 2 2
Nghost:        1818.35 ave        2347 max        1174 min
Histogram: 8 0 0 0 24 0 0 0 0 16
Neighs:              0 ave           0 max           0 min
Histogram: 48 0 0 0 0 0 0 0 0 0

Total # of neighbors = 0
Ave neighs/atom = 0
Ave special neighs/atom = 15.567568
Neighbor list builds = 21
Dangerous builds = 0
fix             myat1 all ave/time 1000 10 10000 v_zave v_zdes file simulation_data/abpot/${cpt}.dat
fix             myat1 all ave/time 1000 10 10000 v_zave v_zdes file simulation_data/abpot/5.dat
run             50000
Generated 0 of 1 mixed pair_coeff terms from geometric mixing rule
Per MPI rank memory allocation (min/avg/max) = 13.32 | 13.74 | 14.98 Mbytes
   Step          Temp          E_pair         E_mol          TotEng         Press     
    270000   308.60405      381.37201      18537.726      19360.645      81.145586    
    280000   284.49613      369.2887       18545.749      19322.091     -131.83338    
    290000   290.05593      381.29179      18507.232      19303.533      161.62755    
    300000   291.45212      375.15799      18541.682      19333.847     -27.310514    
    310000   312.94988      368.21529      18544.465      19360.445     -213.01962    
    320000   309.40211      370.88892      18525.315      19338.893     -137.39427    
Loop time of 21.5757 on 48 procs for 50000 steps with 481 atoms

Performance: 10.011 ns/day, 2.397 hours/ns, 2317.419 timesteps/s, 1.115 Matom-step/s
100.0% CPU use with 48 MPI tasks x 1 OpenMP threads

MPI task timing breakdown:
Section |  min time  |  avg time  |  max time  |%varavg| %total
---------------------------------------------------------------
Pair    | 0.017154   | 0.87834    | 7.6038     | 158.0 |  4.07
Bond    | 0.0052695  | 1.0409     | 6.7278     | 161.6 |  4.82
Neigh   | 0.028847   | 0.03321    | 0.036735   |   1.2 |  0.15
Comm    | 6.79       | 15.734     | 19.482     | 109.9 | 72.93
Output  | 0.0095505  | 0.01603    | 0.022374   |   3.3 |  0.07
Modify  | 0.71233    | 3.0726     | 13.259     | 236.3 | 14.24
Other   |            | 0.8002     |            |       |  3.71

Nlocal:        10.0208 ave          51 max           0 min
Histogram: 24 13 3 0 0 2 1 2 2 1
Nghost:        1818.35 ave        2347 max        1172 min
Histogram: 8 0 0 0 24 0 0 0 0 16
Neighs:              0 ave           0 max           0 min
Histogram: 48 0 0 0 0 0 0 0 0 0

Total # of neighbors = 0
Ave neighs/atom = 0
Ave special neighs/atom = 15.567568
Neighbor list builds = 71
Dangerous builds = 0
unfix           myat1
next            cpt
jump            SELF loop
variable        zdes equal  -15+0.60*(${cpt}-1)
variable        zdes equal  -15+0.60*(6-1)
variable        zave equal xcm(H2,z)
fix             mytth2 H2 spring tether ${k1} 2.5 2.5 ${zdes} 0
fix             mytth2 H2 spring tether 1 2.5 2.5 ${zdes} 0
fix             mytth2 H2 spring tether 1 2.5 2.5 -12 0
run             10000
Generated 0 of 1 mixed pair_coeff terms from geometric mixing rule
Per MPI rank memory allocation (min/avg/max) = 13.32 | 13.74 | 14.98 Mbytes
   Step          Temp          E_pair         E_mol          TotEng         Press     
    320000   309.40211      370.88892      18525.315      19338.893     -137.39427    
    330000   288.23464      376.39036      18530.62       19319.413     -13.466102    
Loop time of 4.30885 on 48 procs for 10000 steps with 481 atoms

Performance: 10.026 ns/day, 2.394 hours/ns, 2320.806 timesteps/s, 1.116 Matom-step/s
100.0% CPU use with 48 MPI tasks x 1 OpenMP threads

MPI task timing breakdown:
Section |  min time  |  avg time  |  max time  |%varavg| %total
---------------------------------------------------------------
Pair    | 0.0033475  | 0.17544    | 1.4748     |  69.9 |  4.07
Bond    | 0.0010527  | 0.20859    | 1.385      |  72.9 |  4.84
Neigh   | 0.0035752  | 0.0041605  | 0.0046174  |   0.4 |  0.10
Comm    | 1.3828     | 3.1491     | 3.9109     |  49.5 | 73.09
Output  | 0.0018734  | 0.0031642  | 0.004498   |   1.5 |  0.07
Modify  | 0.14186    | 0.60834    | 2.6506     | 107.0 | 14.12
Other   |            | 0.16       |            |       |  3.71

Nlocal:        10.0208 ave          50 max           0 min
Histogram: 24 10 4 2 0 0 4 1 1 2
Nghost:        1818.35 ave        2347 max        1173 min
Histogram: 8 0 0 0 24 0 0 0 0 16
Neighs:              0 ave           0 max           0 min
Histogram: 48 0 0 0 0 0 0 0 0 0

Total # of neighbors = 0
Ave neighs/atom = 0
Ave special neighs/atom = 15.567568
Neighbor list builds = 9
Dangerous builds = 0
fix             myat1 all ave/time 1000 10 10000 v_zave v_zdes file simulation_data/abpot/${cpt}.dat
fix             myat1 all ave/time 1000 10 10000 v_zave v_zdes file simulation_data/abpot/6.dat
run             50000
Generated 0 of 1 mixed pair_coeff terms from geometric mixing rule
Per MPI rank memory allocation (min/avg/max) = 13.32 | 13.74 | 14.98 Mbytes
   Step          Temp          E_pair         E_mol          TotEng         Press     
    330000   288.23464      376.39036      18530.62       19319.413     -13.466102    
    340000   297.85681      390.55279      18515.009      19331.732      309.68791    
    350000   314.13767      367.9765       18563.774      19381.215     -50.298675    
    360000   289.34455      362.68191      18577.709      19354.382     -268.39339    
    370000   301.84112      370.83979      18540.035      19342.746     -105.0485     
    380000   301.8451       372.97473      18516.054      19320.905     -56.171066    
Loop time of 21.5959 on 48 procs for 50000 steps with 481 atoms

Performance: 10.002 ns/day, 2.400 hours/ns, 2315.257 timesteps/s, 1.114 Matom-step/s
100.0% CPU use with 48 MPI tasks x 1 OpenMP threads

MPI task timing breakdown:
Section |  min time  |  avg time  |  max time  |%varavg| %total
---------------------------------------------------------------
Pair    | 0.017197   | 0.87741    | 7.3695     | 157.0 |  4.06
Bond    | 0.0052155  | 1.0442     | 7.3974     | 164.6 |  4.84
Neigh   | 0.033164   | 0.037909   | 0.041749   |   1.2 |  0.18
Comm    | 7.1395     | 15.662     | 19.284     | 110.1 | 72.52
Output  | 0.0097433  | 0.016193   | 0.022529   |   3.2 |  0.07
Modify  | 0.71697    | 3.1555     | 13.287     | 234.8 | 14.61
Other   |            | 0.8023     |            |       |  3.71

Nlocal:        10.0208 ave          44 max           0 min
Histogram: 23 10 6 1 0 0 1 1 2 4
Nghost:        1818.35 ave        2348 max        1179 min
Histogram: 8 0 0 0 24 0 0 0 0 16
Neighs:              0 ave           0 max           0 min
Histogram: 48 0 0 0 0 0 0 0 0 0

Total # of neighbors = 0
Ave neighs/atom = 0
Ave special neighs/atom = 15.567568
Neighbor list builds = 78
Dangerous builds = 0
unfix           myat1
next            cpt
jump            SELF loop
variable        zdes equal  -15+0.60*(${cpt}-1)
variable        zdes equal  -15+0.60*(7-1)
variable        zave equal xcm(H2,z)
fix             mytth2 H2 spring tether ${k1} 2.5 2.5 ${zdes} 0
fix             mytth2 H2 spring tether 1 2.5 2.5 ${zdes} 0
fix             mytth2 H2 spring tether 1 2.5 2.5 -11.4 0
run             10000
Generated 0 of 1 mixed pair_coeff terms from geometric mixing rule
Per MPI rank memory allocation (min/avg/max) = 13.32 | 13.74 | 14.98 Mbytes
   Step          Temp          E_pair         E_mol          TotEng         Press     
    380000   301.8451       372.97473      18516.054      19320.905     -56.171066    
    390000   280.94986      375.54274      18508.29       19285.813      59.663301    
Loop time of 4.28004 on 48 procs for 10000 steps with 481 atoms

Performance: 10.093 ns/day, 2.378 hours/ns, 2336.428 timesteps/s, 1.124 Matom-step/s
100.0% CPU use with 48 MPI tasks x 1 OpenMP threads

MPI task timing breakdown:
Section |  min time  |  avg time  |  max time  |%varavg| %total
---------------------------------------------------------------
Pair    | 0.0034594  | 0.1762     | 1.4857     |  71.0 |  4.12
Bond    | 0.0010439  | 0.20849    | 1.465      |  73.5 |  4.87
Neigh   | 0.005669   | 0.0064742  | 0.0071278  |   0.5 |  0.15
Comm    | 1.3619     | 3.1206     | 3.8764     |  49.7 | 72.91
Output  | 0.0018714  | 0.003144   | 0.0044547  |   1.5 |  0.07
Modify  | 0.1413     | 0.60514    | 2.6228     | 106.3 | 14.14
Other   |            | 0.16       |            |       |  3.74

Nlocal:        10.0208 ave          44 max           0 min
Histogram: 25 5 10 0 0 0 0 2 1 5
Nghost:        1818.35 ave        2347 max        1181 min
Histogram: 8 0 0 0 24 0 0 0 0 16
Neighs:              0 ave           0 max           0 min
Histogram: 48 0 0 0 0 0 0 0 0 0

Total # of neighbors = 0
Ave neighs/atom = 0
Ave special neighs/atom = 15.567568
Neighbor list builds = 13
Dangerous builds = 0
fix             myat1 all ave/time 1000 10 10000 v_zave v_zdes file simulation_data/abpot/${cpt}.dat
fix             myat1 all ave/time 1000 10 10000 v_zave v_zdes file simulation_data/abpot/7.dat
run             50000
Generated 0 of 1 mixed pair_coeff terms from geometric mixing rule
Per MPI rank memory allocation (min/avg/max) = 13.32 | 13.74 | 14.98 Mbytes
   Step          Temp          E_pair         E_mol          TotEng         Press     
    390000   280.94986      375.54274      18508.29       19285.813      59.663301    
    400000   308.23479      371.2053       18530.876      19343.101     -1.218101     
    410000   306.19184      373.59732      18534.686      19346.379      35.288653    
    420000   280.02958      372.47657      18529.116      19302.256     -68.859504    
    430000   287.05102      377.69232      18513.95       19302.352     -52.858984    
    440000   293.46029      371.14911      18542.075      19333.104     -71.361109    
Loop time of 21.6025 on 48 procs for 50000 steps with 481 atoms

Performance: 9.999 ns/day, 2.400 hours/ns, 2314.551 timesteps/s, 1.113 Matom-step/s
100.0% CPU use with 48 MPI tasks x 1 OpenMP threads

MPI task timing breakdown:
Section |  min time  |  avg time  |  max time  |%varavg| %total
---------------------------------------------------------------
Pair    | 0.017116   | 0.87688    | 7.6856     | 160.4 |  4.06
Bond    | 0.0052823  | 1.0402     | 7.0956     | 163.8 |  4.82
Neigh   | 0.035045   | 0.040193   | 0.044253   |   1.2 |  0.19
Comm    | 6.69       | 15.786     | 19.634     | 112.5 | 73.07
Output  | 0.009585   | 0.016112   | 0.022498   |   3.3 |  0.07
Modify  | 0.67389    | 3.1034     | 13.36      | 242.2 | 14.37
Other   |            | 0.74       |            |       |  3.43

Nlocal:        10.0208 ave          45 max           0 min
Histogram: 22 10 8 0 0 0 1 1 3 3
Nghost:        1818.35 ave        2347 max        1178 min
Histogram: 8 0 0 0 24 0 0 0 0 16
Neighs:              0 ave           0 max           0 min
Histogram: 48 0 0 0 0 0 0 0 0 0

Total # of neighbors = 0
Ave neighs/atom = 0
Ave special neighs/atom = 15.567568
Neighbor list builds = 82
Dangerous builds = 0
unfix           myat1
next            cpt
jump            SELF loop
variable        zdes equal  -15+0.60*(${cpt}-1)
variable        zdes equal  -15+0.60*(8-1)
variable        zave equal xcm(H2,z)
fix             mytth2 H2 spring tether ${k1} 2.5 2.5 ${zdes} 0
fix             mytth2 H2 spring tether 1 2.5 2.5 ${zdes} 0
fix             mytth2 H2 spring tether 1 2.5 2.5 -10.8 0
run             10000
Generated 0 of 1 mixed pair_coeff terms from geometric mixing rule
Per MPI rank memory allocation (min/avg/max) = 13.32 | 13.74 | 14.98 Mbytes
   Step          Temp          E_pair         E_mol          TotEng         Press     
    440000   293.46029      371.14911      18542.075      19333.104     -71.361109    
    450000   293.34378      369.76729      18540.426      19329.906      24.075009    
Loop time of 4.30935 on 48 procs for 10000 steps with 481 atoms

Performance: 10.025 ns/day, 2.394 hours/ns, 2320.537 timesteps/s, 1.116 Matom-step/s
100.0% CPU use with 48 MPI tasks x 1 OpenMP threads

MPI task timing breakdown:
Section |  min time  |  avg time  |  max time  |%varavg| %total
---------------------------------------------------------------
Pair    | 0.0034498  | 0.17761    | 1.5406     |  71.6 |  4.12
Bond    | 0.0010538  | 0.20996    | 1.3669     |  72.7 |  4.87
Neigh   | 0.0071058  | 0.0081741  | 0.0090214  |   0.6 |  0.19
Comm    | 1.3503     | 3.1358     | 3.9296     |  49.3 | 72.77
Output  | 0.0019088  | 0.0032168  | 0.004541   |   1.5 |  0.07
Modify  | 0.13451    | 0.62955    | 2.6408     | 105.7 | 14.61
Other   |            | 0.145      |            |       |  3.37

Nlocal:        10.0208 ave          42 max           0 min
Histogram: 22 10 8 0 0 0 0 1 1 6
Nghost:        1818.35 ave        2347 max        1181 min
Histogram: 8 0 0 0 24 0 0 0 0 16
Neighs:              0 ave           0 max           0 min
Histogram: 48 0 0 0 0 0 0 0 0 0

Total # of neighbors = 0
Ave neighs/atom = 0
Ave special neighs/atom = 15.567568
Neighbor list builds = 17
Dangerous builds = 0
fix             myat1 all ave/time 1000 10 10000 v_zave v_zdes file simulation_data/abpot/${cpt}.dat
fix             myat1 all ave/time 1000 10 10000 v_zave v_zdes file simulation_data/abpot/8.dat
run             50000
Generated 0 of 1 mixed pair_coeff terms from geometric mixing rule
Per MPI rank memory allocation (min/avg/max) = 13.32 | 13.74 | 14.98 Mbytes
   Step          Temp          E_pair         E_mol          TotEng         Press     
    450000   293.34378      369.76729      18540.426      19329.906      24.075009    
    460000   305.06102      374.36826      18519.51       19330.356      48.394681    
    470000   315.38998      377.05949      18527.681      19355.997     -18.551924    
    480000   318.80779      368.0887       18518.194      19342.429     -264.86867    
    490000   303.23622      375.48319      18510.737      19320.088     -40.764243    
    500000   308.4632       377.84177      18521.081      19340.268      60.696984    
Loop time of 19.346 on 48 procs for 50000 steps with 481 atoms

Performance: 11.165 ns/day, 2.150 hours/ns, 2584.520 timesteps/s, 1.243 Matom-step/s
100.0% CPU use with 48 MPI tasks x 1 OpenMP threads

MPI task timing breakdown:
Section |  min time  |  avg time  |  max time  |%varavg| %total
---------------------------------------------------------------
Pair    | 0.017303   | 0.84573    | 6.1261     | 148.1 |  4.37
Bond    | 0.0053062  | 1.0188     | 6.4042     | 157.6 |  5.27
Neigh   | 0.03311    | 0.038015   | 0.041834   |   1.3 |  0.20
Comm    | 6.9224     | 14.015     | 17.598     | 101.0 | 72.44
Output  | 0.0089196  | 0.015383   | 0.021672   |   3.3 |  0.08
Modify  | 0.66177    | 2.7267     | 11.361     | 211.8 | 14.09
Other   |            | 0.6869     |            |       |  3.55

Nlocal:        10.0208 ave          43 max           0 min
Histogram: 23 8 7 2 0 0 0 1 4 3
Nghost:        1818.35 ave        2347 max        1180 min
Histogram: 8 0 0 0 24 0 0 0 0 16
Neighs:              0 ave           0 max           0 min
Histogram: 48 0 0 0 0 0 0 0 0 0

Total # of neighbors = 0
Ave neighs/atom = 0
Ave special neighs/atom = 15.567568
Neighbor list builds = 82
Dangerous builds = 0
unfix           myat1
next            cpt
jump            SELF loop
variable        zdes equal  -15+0.60*(${cpt}-1)
variable        zdes equal  -15+0.60*(9-1)
variable        zave equal xcm(H2,z)
fix             mytth2 H2 spring tether ${k1} 2.5 2.5 ${zdes} 0
fix             mytth2 H2 spring tether 1 2.5 2.5 ${zdes} 0
fix             mytth2 H2 spring tether 1 2.5 2.5 -10.2 0
run             10000
Generated 0 of 1 mixed pair_coeff terms from geometric mixing rule
Per MPI rank memory allocation (min/avg/max) = 13.32 | 13.74 | 14.98 Mbytes
   Step          Temp          E_pair         E_mol          TotEng         Press     
    500000   308.4632       377.84177      18521.081      19340.268      60.696984    
    510000   310.1757       364.99557      18541.154      19349.945     -217.51555    
Loop time of 3.4683 on 48 procs for 10000 steps with 481 atoms

Performance: 12.456 ns/day, 1.927 hours/ns, 2883.260 timesteps/s, 1.387 Matom-step/s
100.0% CPU use with 48 MPI tasks x 1 OpenMP threads

MPI task timing breakdown:
Section |  min time  |  avg time  |  max time  |%varavg| %total
---------------------------------------------------------------
Pair    | 0.0034301  | 0.16174    | 0.95484    |  62.2 |  4.66
Bond    | 0.001055   | 0.19752    | 1.2043     |  68.8 |  5.70
Neigh   | 0.0027028  | 0.0032675  | 0.0036456  |   0.4 |  0.09
Comm    | 1.2956     | 2.4981     | 3.1307     |  41.3 | 72.03
Output  | 0.0016533  | 0.0029524  | 0.0042578  |   1.5 |  0.09
Modify  | 0.1239     | 0.47102    | 1.9049     |  81.9 | 13.58
Other   |            | 0.1337     |            |       |  3.86

Nlocal:        10.0208 ave          44 max           0 min
Histogram: 20 12 8 0 0 0 0 2 2 4
Nghost:        1818.35 ave        2347 max        1181 min
Histogram: 8 0 0 0 24 0 0 0 0 16
Neighs:              0 ave           0 max           0 min
Histogram: 48 0 0 0 0 0 0 0 0 0

Total # of neighbors = 0
Ave neighs/atom = 0
Ave special neighs/atom = 15.567568
Neighbor list builds = 8
Dangerous builds = 0
fix             myat1 all ave/time 1000 10 10000 v_zave v_zdes file simulation_data/abpot/${cpt}.dat
fix             myat1 all ave/time 1000 10 10000 v_zave v_zdes file simulation_data/abpot/9.dat
run             50000
Generated 0 of 1 mixed pair_coeff terms from geometric mixing rule
Per MPI rank memory allocation (min/avg/max) = 13.32 | 13.74 | 14.98 Mbytes
   Step          Temp          E_pair         E_mol          TotEng         Press     
    510000   310.1757       364.99557      18541.154      19349.945     -217.51555    
    520000   318.18807      368.1279       18523.143      19346.53      -169.3993     
    530000   314.00072      367.89994      18512.102      19329.271     -135.19822    
    540000   303.52789      368.61766      18524.241      19327.143     -146.86017    
    550000   296.47913      368.98997      18510.293      19303.482     -136.67118    
    560000   277.85148      367.27619      18504.296      19269.119     -96.893131    
Loop time of 19.1073 on 48 procs for 50000 steps with 481 atoms

Performance: 11.305 ns/day, 2.123 hours/ns, 2616.800 timesteps/s, 1.259 Matom-step/s
100.0% CPU use with 48 MPI tasks x 1 OpenMP threads

MPI task timing breakdown:
Section |  min time  |  avg time  |  max time  |%varavg| %total
---------------------------------------------------------------
Pair    | 0.017159   | 0.83911    | 5.604      | 148.6 |  4.39
Bond    | 0.0052079  | 1.006      | 6.4528     | 158.5 |  5.26
Neigh   | 0.016041   | 0.018776   | 0.020517   |   0.9 |  0.10
Comm    | 6.6413     | 13.827     | 17.398     | 102.0 | 72.37
Output  | 0.0088184  | 0.015137   | 0.021312   |   3.3 |  0.08
Modify  | 0.63217    | 2.7186     | 11.361     | 212.7 | 14.23
Other   |            | 0.6823     |            |       |  3.57

Nlocal:        10.0208 ave          43 max           0 min
Histogram: 22 8 9 1 0 0 0 2 1 5
Nghost:        1818.35 ave        2347 max        1182 min
Histogram: 8 0 0 0 24 0 0 0 0 16
Neighs:              0 ave           0 max           0 min
Histogram: 48 0 0 0 0 0 0 0 0 0

Total # of neighbors = 0
Ave neighs/atom = 0
Ave special neighs/atom = 15.567568
Neighbor list builds = 38
Dangerous builds = 0
unfix           myat1
next            cpt
jump            SELF loop
variable        zdes equal  -15+0.60*(${cpt}-1)
variable        zdes equal  -15+0.60*(10-1)
variable        zave equal xcm(H2,z)
fix             mytth2 H2 spring tether ${k1} 2.5 2.5 ${zdes} 0
fix             mytth2 H2 spring tether 1 2.5 2.5 ${zdes} 0
fix             mytth2 H2 spring tether 1 2.5 2.5 -9.6 0
run             10000
Generated 0 of 1 mixed pair_coeff terms from geometric mixing rule
Per MPI rank memory allocation (min/avg/max) = 13.32 | 13.74 | 14.98 Mbytes
   Step          Temp          E_pair         E_mol          TotEng         Press     
    560000   277.85148      367.27619      18504.296      19269.119     -96.893131    
    570000   310.90576      378.37685      18497.643      19320.86       161.73671    
Loop time of 3.66667 on 48 procs for 10000 steps with 481 atoms

Performance: 11.782 ns/day, 2.037 hours/ns, 2727.273 timesteps/s, 1.312 Matom-step/s
100.0% CPU use with 48 MPI tasks x 1 OpenMP threads

MPI task timing breakdown:
Section |  min time  |  avg time  |  max time  |%varavg| %total
---------------------------------------------------------------
Pair    | 0.0033927  | 0.17207    | 1.2625     |  68.6 |  4.69
Bond    | 0.0010209  | 0.20253    | 1.246      |  70.7 |  5.52
Neigh   | 0.0042736  | 0.0048642  | 0.0052473  |   0.4 |  0.13
Comm    | 1.0791     | 2.6224     | 3.3325     |  45.3 | 71.52
Output  | 0.0016535  | 0.0028993  | 0.0041628  |   1.5 |  0.08
Modify  | 0.12188    | 0.53057    | 2.1532     |  91.3 | 14.47
Other   |            | 0.1313     |            |       |  3.58

Nlocal:        10.0208 ave          48 max           0 min
Histogram: 21 13 6 0 0 0 1 3 2 2
Nghost:        1818.35 ave        2347 max        1175 min
Histogram: 8 0 0 0 24 0 0 0 0 16
Neighs:              0 ave           0 max           0 min
Histogram: 48 0 0 0 0 0 0 0 0 0

Total # of neighbors = 0
Ave neighs/atom = 0
Ave special neighs/atom = 15.567568
Neighbor list builds = 10
Dangerous builds = 0
fix             myat1 all ave/time 1000 10 10000 v_zave v_zdes file simulation_data/abpot/${cpt}.dat
fix             myat1 all ave/time 1000 10 10000 v_zave v_zdes file simulation_data/abpot/10.dat
run             50000
Generated 0 of 1 mixed pair_coeff terms from geometric mixing rule
Per MPI rank memory allocation (min/avg/max) = 13.32 | 13.74 | 14.98 Mbytes
   Step          Temp          E_pair         E_mol          TotEng         Press     
    570000   310.90576      378.37685      18497.643      19320.86       161.73671    
    580000   294.1743       376.28897      18527.816      19325.007     -126.78778    
    590000   304.17382      368.32415      18525.473      19329.005     -255.61059    
    600000   295.11688      379.47782      18508.743      19310.471      15.45242     
    610000   291.43454      376.76321      18494.911      19288.656     -33.87739     
    620000   296.52334      365.53547      18516.686      19306.483     -270.41004    
Loop time of 19.0522 on 48 procs for 50000 steps with 481 atoms

Performance: 11.337 ns/day, 2.117 hours/ns, 2624.370 timesteps/s, 1.262 Matom-step/s
100.0% CPU use with 48 MPI tasks x 1 OpenMP threads

MPI task timing breakdown:
Section |  min time  |  avg time  |  max time  |%varavg| %total
---------------------------------------------------------------
Pair    | 0.017241   | 0.84296    | 6.8193     | 156.0 |  4.42
Bond    | 0.005159   | 0.99548    | 5.6275     | 155.1 |  5.23
Neigh   | 0.024886   | 0.027828   | 0.029615   |   0.9 |  0.15
Comm    | 5.1836     | 13.885     | 17.417     | 102.9 | 72.88
Output  | 0.0082337  | 0.01444    | 0.020573   |   3.3 |  0.08
Modify  | 0.66249    | 2.6404     | 11.028     | 218.9 | 13.86
Other   |            | 0.6458     |            |       |  3.39

Nlocal:        10.0208 ave          49 max           0 min
Histogram: 21 12 7 0 0 2 0 3 1 2
Nghost:        1818.35 ave        2346 max        1174 min
Histogram: 8 0 0 0 24 0 0 0 0 16
Neighs:              0 ave           0 max           0 min
Histogram: 48 0 0 0 0 0 0 0 0 0

Total # of neighbors = 0
Ave neighs/atom = 0
Ave special neighs/atom = 15.567568
Neighbor list builds = 54
Dangerous builds = 0
unfix           myat1
next            cpt
jump            SELF loop
variable        zdes equal  -15+0.60*(${cpt}-1)
variable        zdes equal  -15+0.60*(11-1)
variable        zave equal xcm(H2,z)
fix             mytth2 H2 spring tether ${k1} 2.5 2.5 ${zdes} 0
fix             mytth2 H2 spring tether 1 2.5 2.5 ${zdes} 0
fix             mytth2 H2 spring tether 1 2.5 2.5 -9 0
run             10000
Generated 0 of 1 mixed pair_coeff terms from geometric mixing rule
Per MPI rank memory allocation (min/avg/max) = 13.32 | 13.74 | 14.98 Mbytes
   Step          Temp          E_pair         E_mol          TotEng         Press     
    620000   296.52334      365.53547      18516.686      19306.483     -270.41004    
    630000   305.49321      363.05569      18520.251      19320.403     -287.92442    
Loop time of 3.67849 on 48 procs for 10000 steps with 481 atoms

Performance: 11.744 ns/day, 2.044 hours/ns, 2718.507 timesteps/s, 1.308 Matom-step/s
100.0% CPU use with 48 MPI tasks x 1 OpenMP threads

MPI task timing breakdown:
Section |  min time  |  avg time  |  max time  |%varavg| %total
---------------------------------------------------------------
Pair    | 0.0035004  | 0.16377    | 1.3517     |  70.0 |  4.45
Bond    | 0.0010349  | 0.1951     | 1.1041     |  69.0 |  5.30
Neigh   | 0.0040999  | 0.0046346  | 0.004998   |   0.4 |  0.13
Comm    | 0.97272    | 2.7353     | 3.3884     |  46.0 | 74.36
Output  | 0.0015508  | 0.0027464  | 0.0039581  |   1.5 |  0.07
Modify  | 0.1214     | 0.45772    | 2.0478     | 101.6 | 12.44
Other   |            | 0.1193     |            |       |  3.24

Nlocal:        10.0208 ave          52 max           0 min
Histogram: 22 15 3 0 1 0 3 1 2 1
Nghost:        1818.35 ave        2347 max        1171 min
Histogram: 8 0 0 0 24 0 0 0 0 16
Neighs:              0 ave           0 max           0 min
Histogram: 48 0 0 0 0 0 0 0 0 0

Total # of neighbors = 0
Ave neighs/atom = 0
Ave special neighs/atom = 15.567568
Neighbor list builds = 9
Dangerous builds = 0
fix             myat1 all ave/time 1000 10 10000 v_zave v_zdes file simulation_data/abpot/${cpt}.dat
fix             myat1 all ave/time 1000 10 10000 v_zave v_zdes file simulation_data/abpot/11.dat
run             50000
Generated 0 of 1 mixed pair_coeff terms from geometric mixing rule
Per MPI rank memory allocation (min/avg/max) = 13.32 | 13.74 | 14.98 Mbytes
   Step          Temp          E_pair         E_mol          TotEng         Press     
    630000   305.49321      363.05569      18520.251      19320.403     -287.92442    
    640000   312.53493      375.58436      18512.716      19335.472      132.92669    
    650000   326.58081      377.2031       18519.505      19363.977     -2.558665     
    660000   285.26488      367.08457      18545.941      19321.179     -223.19382    
    670000   301.7601       368.98948      18512.752      19313.497     -114.24187    
    680000   304.70976      379.68619      18498.949      19314.611      185.42548    
Loop time of 18.6401 on 48 procs for 50000 steps with 481 atoms

Performance: 11.588 ns/day, 2.071 hours/ns, 2682.387 timesteps/s, 1.290 Matom-step/s
100.0% CPU use with 48 MPI tasks x 1 OpenMP threads

MPI task timing breakdown:
Section |  min time  |  avg time  |  max time  |%varavg| %total
---------------------------------------------------------------
Pair    | 0.017375   | 0.81176    | 6.5847     | 154.9 |  4.35
Bond    | 0.0051925  | 0.96549    | 5.5516     | 153.4 |  5.18
Neigh   | 0.03232    | 0.037417   | 0.040497   |   1.2 |  0.20
Comm    | 5.2035     | 13.736     | 17.171     | 103.1 | 73.69
Output  | 0.0077854  | 0.014034   | 0.019884   |   3.3 |  0.08
Modify  | 0.62023    | 2.5023     | 10.928     | 225.2 | 13.42
Other   |            | 0.5735     |            |       |  3.08

Nlocal:        10.0208 ave          47 max           0 min
Histogram: 21 13 6 0 0 0 0 3 4 1
Nghost:        1818.35 ave        2347 max        1176 min
Histogram: 8 0 0 0 24 0 0 0 0 16
Neighs:              0 ave           0 max           0 min
Histogram: 48 0 0 0 0 0 0 0 0 0

Total # of neighbors = 0
Ave neighs/atom = 0
Ave special neighs/atom = 15.567568
Neighbor list builds = 79
Dangerous builds = 0
unfix           myat1
next            cpt
jump            SELF loop
variable        zdes equal  -15+0.60*(${cpt}-1)
variable        zdes equal  -15+0.60*(12-1)
variable        zave equal xcm(H2,z)
fix             mytth2 H2 spring tether ${k1} 2.5 2.5 ${zdes} 0
fix             mytth2 H2 spring tether 1 2.5 2.5 ${zdes} 0
fix             mytth2 H2 spring tether 1 2.5 2.5 -8.4 0
run             10000
Generated 0 of 1 mixed pair_coeff terms from geometric mixing rule
Per MPI rank memory allocation (min/avg/max) = 13.32 | 13.74 | 14.98 Mbytes
   Step          Temp          E_pair         E_mol          TotEng         Press     
    680000   304.70976      379.68619      18498.949      19314.611      185.42548    
    690000   311.04039      377.23495      18507.306      19329.574      133.73826    
Loop time of 3.22082 on 48 procs for 10000 steps with 481 atoms

Performance: 13.413 ns/day, 1.789 hours/ns, 3104.799 timesteps/s, 1.493 Matom-step/s
100.0% CPU use with 48 MPI tasks x 1 OpenMP threads

MPI task timing breakdown:
Section |  min time  |  avg time  |  max time  |%varavg| %total
---------------------------------------------------------------
Pair    | 0.0034643  | 0.15138    | 1.0044     |  61.6 |  4.70
Bond    | 0.0010239  | 0.18748    | 0.94842    |  65.9 |  5.82
Neigh   | 0.0068472  | 0.008299   | 0.0093016  |   0.8 |  0.26
Comm    | 1.1664     | 2.3393     | 2.91       |  38.8 | 72.63
Output  | 0.0013087  | 0.0025454  | 0.0037619  |   1.6 |  0.08
Modify  | 0.12562    | 0.41596    | 1.7038     |  78.9 | 12.91
Other   |            | 0.1158     |            |       |  3.60

Nlocal:        10.0208 ave          44 max           0 min
Histogram: 24 7 8 1 0 0 1 1 0 6
Nghost:        1818.35 ave        2348 max        1180 min
Histogram: 8 0 0 0 24 0 0 0 0 16
Neighs:              0 ave           0 max           0 min
Histogram: 48 0 0 0 0 0 0 0 0 0

Total # of neighbors = 0
Ave neighs/atom = 0
Ave special neighs/atom = 15.567568
Neighbor list builds = 24
Dangerous builds = 0
fix             myat1 all ave/time 1000 10 10000 v_zave v_zdes file simulation_data/abpot/${cpt}.dat
fix             myat1 all ave/time 1000 10 10000 v_zave v_zdes file simulation_data/abpot/12.dat
run             50000
Generated 0 of 1 mixed pair_coeff terms from geometric mixing rule
Per MPI rank memory allocation (min/avg/max) = 13.32 | 13.74 | 14.98 Mbytes
   Step          Temp          E_pair         E_mol          TotEng         Press     
    690000   311.04039      377.23495      18507.306      19329.574      133.73826    
    700000   316.42064      372.12291      18532.674      19357.528     -38.818012    
    710000   300.30892      373.41146      18523.601      19326.692      61.673982    
    720000   275.22815      377.23156      18533.554      19304.579      132.77839    
    730000   297.02768      374.4868       18480.862      19280.332      178.71167    
    740000   299.57794      361.97283      18523.887      19314.493     -277.89055    
Loop time of 16.0494 on 48 procs for 50000 steps with 481 atoms

Performance: 13.458 ns/day, 1.783 hours/ns, 3115.373 timesteps/s, 1.498 Matom-step/s
100.0% CPU use with 48 MPI tasks x 1 OpenMP threads

MPI task timing breakdown:
Section |  min time  |  avg time  |  max time  |%varavg| %total
---------------------------------------------------------------
Pair    | 0.017404   | 0.75377    | 5.1199     | 139.6 |  4.70
Bond    | 0.0051503  | 0.93562    | 4.5861     | 148.4 |  5.83
Neigh   | 0.032823   | 0.039794   | 0.043813   |   1.5 |  0.25
Comm    | 5.6797     | 11.662     | 14.566     |  89.9 | 72.66
Output  | 0.0065673  | 0.01258    | 0.018207   |   3.4 |  0.08
Modify  | 0.56282    | 2.0932     | 8.5828     | 186.5 | 13.04
Other   |            | 0.5527     |            |       |  3.44

Nlocal:        10.0208 ave          53 max           0 min
Histogram: 23 12 5 0 2 0 1 2 1 2
Nghost:        1818.35 ave        2347 max        1178 min
Histogram: 8 0 0 0 24 0 0 0 0 16
Neighs:              0 ave           0 max           0 min
Histogram: 48 0 0 0 0 0 0 0 0 0

Total # of neighbors = 0
Ave neighs/atom = 0
Ave special neighs/atom = 15.567568
Neighbor list builds = 111
Dangerous builds = 0
unfix           myat1
next            cpt
jump            SELF loop
variable        zdes equal  -15+0.60*(${cpt}-1)
variable        zdes equal  -15+0.60*(13-1)
variable        zave equal xcm(H2,z)
fix             mytth2 H2 spring tether ${k1} 2.5 2.5 ${zdes} 0
fix             mytth2 H2 spring tether 1 2.5 2.5 ${zdes} 0
fix             mytth2 H2 spring tether 1 2.5 2.5 -7.8 0
run             10000
Generated 0 of 1 mixed pair_coeff terms from geometric mixing rule
Per MPI rank memory allocation (min/avg/max) = 13.32 | 13.74 | 14.98 Mbytes
   Step          Temp          E_pair         E_mol          TotEng         Press     
    740000   299.57794      361.97283      18523.887      19314.493     -277.89055    
    750000   314.47994      371.28771      18520.719      19341.961     -194.57966    
Loop time of 3.25072 on 48 procs for 10000 steps with 481 atoms

Performance: 13.289 ns/day, 1.806 hours/ns, 3076.245 timesteps/s, 1.480 Matom-step/s
100.0% CPU use with 48 MPI tasks x 1 OpenMP threads

MPI task timing breakdown:
Section |  min time  |  avg time  |  max time  |%varavg| %total
---------------------------------------------------------------
Pair    | 0.0034312  | 0.14949    | 1.0546     |  62.6 |  4.60
Bond    | 0.0010254  | 0.18569    | 0.90418    |  66.2 |  5.71
Neigh   | 0.0052172  | 0.0063933  | 0.0071264  |   0.6 |  0.20
Comm    | 1.1571     | 2.3821     | 2.9852     |  41.3 | 73.28
Output  | 0.0012076  | 0.0023147  | 0.0034187  |   1.5 |  0.07
Modify  | 0.10426    | 0.42005    | 1.7759     |  88.6 | 12.92
Other   |            | 0.1047     |            |       |  3.22

Nlocal:        10.0208 ave          51 max           0 min
Histogram: 25 10 5 0 0 2 2 1 1 2
Nghost:        1818.35 ave        2347 max        1172 min
Histogram: 8 0 0 0 24 0 0 0 0 16
Neighs:              0 ave           0 max           0 min
Histogram: 48 0 0 0 0 0 0 0 0 0

Total # of neighbors = 0
Ave neighs/atom = 0
Ave special neighs/atom = 15.567568
Neighbor list builds = 18
Dangerous builds = 0
fix             myat1 all ave/time 1000 10 10000 v_zave v_zdes file simulation_data/abpot/${cpt}.dat
fix             myat1 all ave/time 1000 10 10000 v_zave v_zdes file simulation_data/abpot/13.dat
run             50000
Generated 0 of 1 mixed pair_coeff terms from geometric mixing rule
Per MPI rank memory allocation (min/avg/max) = 13.32 | 13.74 | 14.98 Mbytes
   Step          Temp          E_pair         E_mol          TotEng         Press     
    750000   314.47994      371.28771      18520.719      19341.961     -194.57966    
    760000   318.7517       381.9939       18536.818      19374.878      121.26964    
    770000   304.3096       363.56541      18586.477      19385.445     -348.89191    
    780000   302.77008      371.66592      18526.804      19331.67      -148.43479    
    790000   297.50582      371.24278      18508.199      19305.11      -65.086637    
    800000   272.99744      370.70267      18508.804      19270.109     -84.673765    
Loop time of 16.1642 on 48 procs for 50000 steps with 481 atoms

Performance: 13.363 ns/day, 1.796 hours/ns, 3093.251 timesteps/s, 1.488 Matom-step/s
100.0% CPU use with 48 MPI tasks x 1 OpenMP threads

MPI task timing breakdown:
Section |  min time  |  avg time  |  max time  |%varavg| %total
---------------------------------------------------------------
Pair    | 0.017312   | 0.74594    | 5.2412     | 141.0 |  4.61
Bond    | 0.0051551  | 0.92767    | 4.5343     | 148.5 |  5.74
Neigh   | 0.027082   | 0.032127   | 0.035646   |   1.3 |  0.20
Comm    | 5.6415     | 11.746     | 14.738     |  91.8 | 72.67
Output  | 0.006099   | 0.011608   | 0.016841   |   3.2 |  0.07
Modify  | 0.52207    | 2.1757     | 8.7496     | 192.1 | 13.46
Other   |            | 0.5252     |            |       |  3.25

Nlocal:        10.0208 ave          52 max           0 min
Histogram: 24 10 6 0 0 2 1 3 1 1
Nghost:        1818.35 ave        2345 max        1171 min
Histogram: 8 0 0 0 24 0 0 0 0 16
Neighs:              0 ave           0 max           0 min
Histogram: 48 0 0 0 0 0 0 0 0 0

Total # of neighbors = 0
Ave neighs/atom = 0
Ave special neighs/atom = 15.567568
Neighbor list builds = 93
Dangerous builds = 0
unfix           myat1
next            cpt
jump            SELF loop
variable        zdes equal  -15+0.60*(${cpt}-1)
variable        zdes equal  -15+0.60*(14-1)
variable        zave equal xcm(H2,z)
fix             mytth2 H2 spring tether ${k1} 2.5 2.5 ${zdes} 0
fix             mytth2 H2 spring tether 1 2.5 2.5 ${zdes} 0
fix             mytth2 H2 spring tether 1 2.5 2.5 -7.2 0
run             10000
Generated 0 of 1 mixed pair_coeff terms from geometric mixing rule
Per MPI rank memory allocation (min/avg/max) = 13.32 | 13.74 | 14.98 Mbytes
   Step          Temp          E_pair         E_mol          TotEng         Press     
    800000   272.99744      370.70267      18508.804      19270.109     -84.673765    
    810000   299.83659      369.6269       18533.163      19331.793     -129.01953    
Loop time of 3.26549 on 48 procs for 10000 steps with 481 atoms

Performance: 13.229 ns/day, 1.814 hours/ns, 3062.324 timesteps/s, 1.473 Matom-step/s
100.0% CPU use with 48 MPI tasks x 1 OpenMP threads

MPI task timing breakdown:
Section |  min time  |  avg time  |  max time  |%varavg| %total
---------------------------------------------------------------
Pair    | 0.0034499  | 0.14919    | 1.0128     |  63.9 |  4.57
Bond    | 0.0010386  | 0.18554    | 0.99615    |  67.3 |  5.68
Neigh   | 0.0047822  | 0.0054043  | 0.0059632  |   0.5 |  0.17
Comm    | 1.1229     | 2.3767     | 2.9883     |  42.0 | 72.78
Output  | 0.0011869  | 0.0022893  | 0.0033825  |   1.5 |  0.07
Modify  | 0.10409    | 0.44206    | 1.7799     |  88.2 | 13.54
Other   |            | 0.1043     |            |       |  3.19

Nlocal:        10.0208 ave          46 max           0 min
Histogram: 20 15 5 0 0 0 1 1 3 3
Nghost:        1818.35 ave        2347 max        1177 min
Histogram: 8 0 0 0 24 0 0 0 0 16
Neighs:              0 ave           0 max           0 min
Histogram: 48 0 0 0 0 0 0 0 0 0

Total # of neighbors = 0
Ave neighs/atom = 0
Ave special neighs/atom = 15.567568
Neighbor list builds = 15
Dangerous builds = 0
fix             myat1 all ave/time 1000 10 10000 v_zave v_zdes file simulation_data/abpot/${cpt}.dat
fix             myat1 all ave/time 1000 10 10000 v_zave v_zdes file simulation_data/abpot/14.dat
run             50000
Generated 0 of 1 mixed pair_coeff terms from geometric mixing rule
Per MPI rank memory allocation (min/avg/max) = 13.32 | 13.74 | 14.98 Mbytes
   Step          Temp          E_pair         E_mol          TotEng         Press     
    810000   299.83659      369.6269       18533.163      19331.793     -129.01953    
    820000   297.47965      368.94532      18532.405      19326.981     -207.79826    
    830000   282.45885      372.28284      18536.428      19312.85      -27.361181    
    840000   294.84153      374.65876      18513.95       19310.465     -69.941798    
    850000   288.07017      371.75939      18513.449      19297.376     -39.32432     
    860000   297.56569      375.03993      18526.263      19327.057      15.866997    
Loop time of 16.291 on 48 procs for 50000 steps with 481 atoms

Performance: 13.259 ns/day, 1.810 hours/ns, 3069.186 timesteps/s, 1.476 Matom-step/s
100.0% CPU use with 48 MPI tasks x 1 OpenMP threads

MPI task timing breakdown:
Section |  min time  |  avg time  |  max time  |%varavg| %total
---------------------------------------------------------------
Pair    | 0.016764   | 0.74312    | 5.1763     | 141.4 |  4.56
Bond    | 0.0051615  | 0.9248     | 4.8037     | 149.3 |  5.68
Neigh   | 0.028748   | 0.032441   | 0.035568   |   1.1 |  0.20
Comm    | 5.7905     | 11.867     | 14.892     |  93.9 | 72.85
Output  | 0.0060936  | 0.011443   | 0.016609   |   3.2 |  0.07
Modify  | 0.5163     | 2.1909     | 8.8883     | 198.5 | 13.45
Other   |            | 0.5211     |            |       |  3.20

Nlocal:        10.0208 ave          47 max           0 min
Histogram: 24 8 8 0 0 2 0 1 2 3
Nghost:        1818.35 ave        2347 max        1177 min
Histogram: 8 0 0 0 24 0 0 0 0 16
Neighs:              0 ave           0 max           0 min
Histogram: 48 0 0 0 0 0 0 0 0 0

Total # of neighbors = 0
Ave neighs/atom = 0
Ave special neighs/atom = 15.567568
Neighbor list builds = 87
Dangerous builds = 0
unfix           myat1
next            cpt
jump            SELF loop
variable        zdes equal  -15+0.60*(${cpt}-1)
variable        zdes equal  -15+0.60*(15-1)
variable        zave equal xcm(H2,z)
fix             mytth2 H2 spring tether ${k1} 2.5 2.5 ${zdes} 0
fix             mytth2 H2 spring tether 1 2.5 2.5 ${zdes} 0
fix             mytth2 H2 spring tether 1 2.5 2.5 -6.6 0
run             10000
Generated 0 of 1 mixed pair_coeff terms from geometric mixing rule
Per MPI rank memory allocation (min/avg/max) = 13.32 | 13.75 | 14.98 Mbytes
   Step          Temp          E_pair         E_mol          TotEng         Press     
    860000   297.56569      375.03993      18526.263      19327.057      15.866997    
    870000   309.87657      372.77718      18510.881      19327.026      8.3216098    
Loop time of 3.26041 on 48 procs for 10000 steps with 481 atoms

Performance: 13.250 ns/day, 1.811 hours/ns, 3067.096 timesteps/s, 1.475 Matom-step/s
100.0% CPU use with 48 MPI tasks x 1 OpenMP threads

MPI task timing breakdown:
Section |  min time  |  avg time  |  max time  |%varavg| %total
---------------------------------------------------------------
Pair    | 0.0032711  | 0.14914    | 1.0587     |  63.5 |  4.57
Bond    | 0.0010258  | 0.18511    | 0.92807    |  66.7 |  5.68
Neigh   | 0.0056252  | 0.0064608  | 0.0070607  |   0.5 |  0.20
Comm    | 1.1509     | 2.3758     | 2.9759     |  42.1 | 72.87
Output  | 0.001294   | 0.0023519  | 0.0034108  |   1.4 |  0.07
Modify  | 0.10636    | 0.43569    | 1.7734     |  89.0 | 13.36
Other   |            | 0.1059     |            |       |  3.25

Nlocal:        10.0208 ave          47 max           0 min
Histogram: 27 5 7 1 0 0 1 3 0 4
Nghost:        1818.35 ave        2347 max        1176 min
Histogram: 8 0 0 0 24 0 0 0 0 16
Neighs:              0 ave           0 max           0 min
Histogram: 48 0 0 0 0 0 0 0 0 0

Total # of neighbors = 0
Ave neighs/atom = 0
Ave special neighs/atom = 15.567568
Neighbor list builds = 17
Dangerous builds = 0
fix             myat1 all ave/time 1000 10 10000 v_zave v_zdes file simulation_data/abpot/${cpt}.dat
fix             myat1 all ave/time 1000 10 10000 v_zave v_zdes file simulation_data/abpot/15.dat
run             50000
Generated 0 of 1 mixed pair_coeff terms from geometric mixing rule
Per MPI rank memory allocation (min/avg/max) = 13.32 | 13.75 | 14.98 Mbytes
   Step          Temp          E_pair         E_mol          TotEng         Press     
    870000   309.87657      372.77718      18510.881      19327.026      8.3216098    
    880000   283.54961      376.3067       18529.286      19311.292      120.94432    
    890000   301.20518      372.45551      18487.009      19290.425      114.64238    
    900000   302.21081      363.5583       18477.961      19273.919     -237.96741    
    910000   284.50788      368.0809       18540.031      19315.183     -151.75648    
    920000   285.24331      375.6145       18535.292      19319.03       41.553631    
Loop time of 16.0788 on 48 procs for 50000 steps with 481 atoms

Performance: 13.434 ns/day, 1.787 hours/ns, 3109.691 timesteps/s, 1.496 Matom-step/s
100.0% CPU use with 48 MPI tasks x 1 OpenMP threads

MPI task timing breakdown:
Section |  min time  |  avg time  |  max time  |%varavg| %total
---------------------------------------------------------------
Pair    | 0.016691   | 0.7419     | 5.1379     | 140.4 |  4.61
Bond    | 0.0051348  | 0.92368    | 4.7235     | 149.3 |  5.74
Neigh   | 0.028398   | 0.031575   | 0.034523   |   1.0 |  0.20
Comm    | 5.8034     | 11.676     | 14.646     |  93.1 | 72.62
Output  | 0.0061017  | 0.011393   | 0.016678   |   3.1 |  0.07
Modify  | 0.52103    | 2.1721     | 8.745      | 195.4 | 13.51
Other   |            | 0.5224     |            |       |  3.25

Nlocal:        10.0208 ave          50 max           0 min
Histogram: 22 11 7 0 0 0 2 2 3 1
Nghost:        1818.35 ave        2347 max        1173 min
Histogram: 8 0 0 0 24 0 0 0 0 16
Neighs:              0 ave           0 max           0 min
Histogram: 48 0 0 0 0 0 0 0 0 0

Total # of neighbors = 0
Ave neighs/atom = 0
Ave special neighs/atom = 15.567568
Neighbor list builds = 87
Dangerous builds = 0
unfix           myat1
next            cpt
jump            SELF loop
variable        zdes equal  -15+0.60*(${cpt}-1)
variable        zdes equal  -15+0.60*(16-1)
variable        zave equal xcm(H2,z)
fix             mytth2 H2 spring tether ${k1} 2.5 2.5 ${zdes} 0
fix             mytth2 H2 spring tether 1 2.5 2.5 ${zdes} 0
fix             mytth2 H2 spring tether 1 2.5 2.5 -6 0
run             10000
Generated 0 of 1 mixed pair_coeff terms from geometric mixing rule
Per MPI rank memory allocation (min/avg/max) = 13.32 | 13.76 | 14.98 Mbytes
   Step          Temp          E_pair         E_mol          TotEng         Press     
    920000   285.24331      375.6145       18535.292      19319.03       41.553631    
    930000   313.11751      371.40736      18490.093      19309.506      78.351812    
Loop time of 3.22587 on 48 procs for 10000 steps with 481 atoms

Performance: 13.392 ns/day, 1.792 hours/ns, 3099.943 timesteps/s, 1.491 Matom-step/s
99.9% CPU use with 48 MPI tasks x 1 OpenMP threads

MPI task timing breakdown:
Section |  min time  |  avg time  |  max time  |%varavg| %total
---------------------------------------------------------------
Pair    | 0.0032657  | 0.14839    | 1.0564     |  63.2 |  4.60
Bond    | 0.0010257  | 0.18461    | 1.0153     |  67.1 |  5.72
Neigh   | 0.0054348  | 0.0060598  | 0.0066047  |   0.4 |  0.19
Comm    | 1.0921     | 2.3455     | 2.9401     |  42.0 | 72.71
Output  | 0.0011877  | 0.0022338  | 0.003376   |   1.4 |  0.07
Modify  | 0.10198    | 0.43473    | 1.7739     |  88.2 | 13.48
Other   |            | 0.1043     |            |       |  3.23

Nlocal:        10.0208 ave          51 max           0 min
Histogram: 22 13 5 0 1 1 1 1 2 2
Nghost:        1818.35 ave        2347 max        1178 min
Histogram: 8 0 0 0 24 0 0 0 0 16
Neighs:              0 ave           0 max           0 min
Histogram: 48 0 0 0 0 0 0 0 0 0

Total # of neighbors = 0
Ave neighs/atom = 0
Ave special neighs/atom = 15.567568
Neighbor list builds = 17
Dangerous builds = 0
fix             myat1 all ave/time 1000 10 10000 v_zave v_zdes file simulation_data/abpot/${cpt}.dat
fix             myat1 all ave/time 1000 10 10000 v_zave v_zdes file simulation_data/abpot/16.dat
run             50000
Generated 0 of 1 mixed pair_coeff terms from geometric mixing rule
Per MPI rank memory allocation (min/avg/max) = 13.32 | 13.76 | 14.98 Mbytes
   Step          Temp          E_pair         E_mol          TotEng         Press     
    930000   313.11751      371.40736      18490.093      19309.506      78.351812    
    940000   296.64627      368.22592      18495.345      19288.009     -139.19133    
    950000   282.88336      375.49299      18522.096      19302.335     -51.071848    
    960000   314.57264      381.59229      18497.375      19329.054      49.664054    
    970000   322.96004      372.10767      18534.949      19369.144     -41.798623    
    980000   305.64218      369.58121      18540.483      19347.374     -177.01971    
Loop time of 16.3351 on 48 procs for 50000 steps with 481 atoms

Performance: 13.223 ns/day, 1.815 hours/ns, 3060.903 timesteps/s, 1.472 Matom-step/s
100.0% CPU use with 48 MPI tasks x 1 OpenMP threads

MPI task timing breakdown:
Section |  min time  |  avg time  |  max time  |%varavg| %total
---------------------------------------------------------------
Pair    | 0.016492   | 0.74144    | 5.4012     | 142.0 |  4.54
Bond    | 0.0051252  | 0.92357    | 4.7956     | 150.0 |  5.65
Neigh   | 0.025164   | 0.027886   | 0.030526   |   1.0 |  0.17
Comm    | 5.509      | 11.895     | 14.743     |  94.2 | 72.82
Output  | 0.0060564  | 0.011368   | 0.016527   |   3.2 |  0.07
Modify  | 0.51332    | 2.2136     | 9.0178     | 198.6 | 13.55
Other   |            | 0.5222     |            |       |  3.20

Nlocal:        10.0208 ave          48 max           0 min
Histogram: 23 10 6 1 0 0 3 1 2 2
Nghost:        1818.35 ave        2347 max        1175 min
Histogram: 8 0 0 0 24 0 0 0 0 16
Neighs:              0 ave           0 max           0 min
Histogram: 48 0 0 0 0 0 0 0 0 0

Total # of neighbors = 0
Ave neighs/atom = 0
Ave special neighs/atom = 15.567568
Neighbor list builds = 77
Dangerous builds = 0
unfix           myat1
next            cpt
jump            SELF loop
variable        zdes equal  -15+0.60*(${cpt}-1)
variable        zdes equal  -15+0.60*(17-1)
variable        zave equal xcm(H2,z)
fix             mytth2 H2 spring tether ${k1} 2.5 2.5 ${zdes} 0
fix             mytth2 H2 spring tether 1 2.5 2.5 ${zdes} 0
fix             mytth2 H2 spring tether 1 2.5 2.5 -5.4 0
run             10000
Generated 0 of 1 mixed pair_coeff terms from geometric mixing rule
Per MPI rank memory allocation (min/avg/max) = 13.32 | 13.76 | 14.98 Mbytes
   Step          Temp          E_pair         E_mol          TotEng         Press     
    980000   305.64218      369.58121      18540.483      19347.374     -177.01971    
    990000   299.30592      377.93773      18517.317      19323.498      26.895819    
Loop time of 3.26405 on 48 procs for 10000 steps with 481 atoms

Performance: 13.235 ns/day, 1.813 hours/ns, 3063.680 timesteps/s, 1.474 Matom-step/s
100.0% CPU use with 48 MPI tasks x 1 OpenMP threads

MPI task timing breakdown:
Section |  min time  |  avg time  |  max time  |%varavg| %total
---------------------------------------------------------------
Pair    | 0.0032693  | 0.14844    | 1.0725     |  63.0 |  4.55
Bond    | 0.0010215  | 0.18495    | 0.91469    |  66.9 |  5.67
Neigh   | 0.0056129  | 0.0063094  | 0.006946   |   0.5 |  0.19
Comm    | 1.0853     | 2.3654     | 2.9725     |  42.2 | 72.47
Output  | 0.0011961  | 0.0022216  | 0.0032528  |   1.4 |  0.07
Modify  | 0.10258    | 0.45211    | 1.7941     |  88.8 | 13.85
Other   |            | 0.1047     |            |       |  3.21

Nlocal:        10.0208 ave          52 max           0 min
Histogram: 27 7 6 0 1 0 2 3 1 1
Nghost:        1818.35 ave        2348 max        1180 min
Histogram: 8 0 0 0 24 0 0 0 0 16
Neighs:              0 ave           0 max           0 min
Histogram: 48 0 0 0 0 0 0 0 0 0

Total # of neighbors = 0
Ave neighs/atom = 0
Ave special neighs/atom = 15.567568
Neighbor list builds = 18
Dangerous builds = 0
[...]

MPI task timing breakdown:
Section |  min time  |  avg time  |  max time  |%varavg| %total
---------------------------------------------------------------
Pair    | 0.0033922  | 0.18036    | 1.5132     |  72.6 |  4.21
Bond    | 0.0010409  | 0.215      | 1.2942     |  74.4 |  5.02
Neigh   | 0.0099737  | 0.011176   | 0.011931   |   0.5 |  0.26
Comm    | 1.2686     | 3.0757     | 3.8706     |  50.6 | 71.80
Output  | 0.0017706  | 0.0029135  | 0.0040736  |   1.4 |  0.07
Modify  | 0.15164    | 0.63549    | 2.6165     | 105.7 | 14.84
Other   |            | 0.163      |            |       |  3.81

Nlocal:        10.0208 ave          47 max           0 min
Histogram: 24 9 7 0 0 1 0 2 2 3
Nghost:        1818.35 ave        2347 max        1179 min
Histogram: 8 0 0 0 24 0 0 0 0 16
Neighs:              0 ave           0 max           0 min
Histogram: 48 0 0 0 0 0 0 0 0 0

Total # of neighbors = 0
Ave neighs/atom = 0
Ave special neighs/atom = 15.567568
Neighbor list builds = 21
Dangerous builds = 0
fix             myat1 all ave/time 1000 10 10000 v_zave v_zdes file simulation_data/abpot/${cpt}.dat
fix             myat1 all ave/time 1000 10 10000 v_zave v_zdes file simulation_data/abpot/47.dat
run             50000
Generated 0 of 1 mixed pair_coeff terms from geometric mixing rule
Per MPI rank memory allocation (min/avg/max) = 13.32 | 13.83 | 14.98 Mbytes
   Step          Temp          E_pair         E_mol          TotEng         Press     
   2790000   295.2999       371.8804       18502.318      19296.71      -58.358368    
   2800000   296.45288      367.24139      18506.283      19297.685     -225.2477     
   2810000   301.80295      378.15439      18509.076      19319.047     -18.727572    
   2820000   298.17193      376.17212      18512.28       19315.073     -65.965578    
   2830000   296.13922      379.40736      18491.956      19295.076     -32.590369    
   2840000   290.94249      373.52148      18510.63       19300.429     -120.51378    
Loop time of 22.4251 on 48 procs for 50000 steps with 481 atoms

Performance: 9.632 ns/day, 2.492 hours/ns, 2229.642 timesteps/s, 1.072 Matom-step/s
100.0% CPU use with 48 MPI tasks x 1 OpenMP threads

MPI task timing breakdown:
Section |  min time  |  avg time  |  max time  |%varavg| %total
---------------------------------------------------------------
Pair    | 0.017099   | 0.92507    | 8.0254     | 165.8 |  4.13
Bond    | 0.0051855  | 1.0962     | 6.3334     | 169.1 |  4.89
Neigh   | 0.043201   | 0.047781   | 0.050986   |   0.9 |  0.21
Comm    | 6.4519     | 16.037     | 20.219     | 117.5 | 71.51
Output  | 0.0092059  | 0.015008   | 0.02065    |   3.0 |  0.07
Modify  | 0.80987    | 3.4834     | 14.046     | 242.8 | 15.53
Other   |            | 0.8206     |            |       |  3.66

Nlocal:        10.0208 ave          52 max           0 min
Histogram: 28 5 7 0 1 1 2 0 1 3
Nghost:        1818.35 ave        2348 max        1175 min
Histogram: 8 0 0 0 24 0 0 0 0 16
Neighs:              0 ave           0 max           0 min
Histogram: 48 0 0 0 0 0 0 0 0 0

Total # of neighbors = 0
Ave neighs/atom = 0
Ave special neighs/atom = 15.567568
Neighbor list builds = 88
Dangerous builds = 0
unfix           myat1
next            cpt
jump            SELF loop
variable        zdes equal  -15+0.60*(${cpt}-1)
variable        zdes equal  -15+0.60*(48-1)
variable        zave equal xcm(H2,z)
fix             mytth2 H2 spring tether ${k1} 2.5 2.5 ${zdes} 0
fix             mytth2 H2 spring tether 1 2.5 2.5 ${zdes} 0
fix             mytth2 H2 spring tether 1 2.5 2.5 13.2 0
run             10000
Generated 0 of 1 mixed pair_coeff terms from geometric mixing rule
Per MPI rank memory allocation (min/avg/max) = 13.32 | 13.83 | 14.98 Mbytes
   Step          Temp          E_pair         E_mol          TotEng         Press     
   2840000   290.94249      373.52148      18510.63       19300.429     -120.51378    
   2850000   303.43023      371.78343      18503.896      19309.824     -5.7946112    
Loop time of 4.4413 on 48 procs for 10000 steps with 481 atoms

Performance: 9.727 ns/day, 2.467 hours/ns, 2251.591 timesteps/s, 1.083 Matom-step/s
100.0% CPU use with 48 MPI tasks x 1 OpenMP threads

MPI task timing breakdown:
Section |  min time  |  avg time  |  max time  |%varavg| %total
---------------------------------------------------------------
Pair    | 0.0034969  | 0.17799    | 1.2292     |  69.4 |  4.01
Bond    | 0.0010683  | 0.21542    | 1.3552     |  75.6 |  4.85
Neigh   | 0.0056844  | 0.0062651  | 0.0067004  |   0.3 |  0.14
Comm    | 1.5018     | 3.177      | 3.998      |  51.7 | 71.53
Output  | 0.0018319  | 0.0029816  | 0.0041473  |   1.4 |  0.07
Modify  | 0.15733    | 0.71199    | 2.7719     | 107.2 | 16.03
Other   |            | 0.1497     |            |       |  3.37

Nlocal:        10.0208 ave          50 max           0 min
Histogram: 24 8 8 0 0 2 1 1 2 2
Nghost:        1818.35 ave        2347 max        1173 min
Histogram: 8 0 0 0 24 0 0 0 0 16
Neighs:              0 ave           0 max           0 min
Histogram: 48 0 0 0 0 0 0 0 0 0

Total # of neighbors = 0
Ave neighs/atom = 0
Ave special neighs/atom = 15.567568
Neighbor list builds = 11
Dangerous builds = 0
fix             myat1 all ave/time 1000 10 10000 v_zave v_zdes file simulation_data/abpot/${cpt}.dat
fix             myat1 all ave/time 1000 10 10000 v_zave v_zdes file simulation_data/abpot/48.dat
run             50000
Generated 0 of 1 mixed pair_coeff terms from geometric mixing rule
Per MPI rank memory allocation (min/avg/max) = 13.32 | 13.83 | 14.98 Mbytes
   Step          Temp          E_pair         E_mol          TotEng         Press     
   2850000   303.43023      371.78343      18503.896      19309.824     -5.7946112    
   2860000   325.11016      375.90726      18503.669      19344.74       123.84899    
   2870000   304.59437      382.53631      18507.648      19325.994      124.27372    
   2880000   307.22755      370.951        18507.8        19318.329     -100.93224    
   2890000   289.88203      373.89968      18494.818      19283.478     -44.642787    
   2900000   295.45256      375.29671      18506.156      19304.183      77.18688     
Loop time of 19.7073 on 48 procs for 50000 steps with 481 atoms

Performance: 10.960 ns/day, 2.190 hours/ns, 2537.133 timesteps/s, 1.220 Matom-step/s
100.0% CPU use with 48 MPI tasks x 1 OpenMP threads

MPI task timing breakdown:
Section |  min time  |  avg time  |  max time  |%varavg| %total
---------------------------------------------------------------
Pair    | 0.017433   | 0.86319    | 4.7385     | 144.8 |  4.38
Bond    | 0.0051985  | 1.0553     | 5.9228     | 161.6 |  5.35
Neigh   | 0.032974   | 0.036591   | 0.03914    |   0.8 |  0.19
Comm    | 7.2427     | 14.078     | 17.6       | 102.8 | 71.44
Output  | 0.0089248  | 0.014689   | 0.020268   |   3.0 |  0.07
Modify  | 0.74596    | 2.9228     | 11.628     | 210.1 | 14.83
Other   |            | 0.7367     |            |       |  3.74

Nlocal:        10.0208 ave          62 max           0 min
Histogram: 27 12 2 0 1 2 1 2 0 1
Nghost:        1818.35 ave        2348 max        1161 min
Histogram: 8 0 0 0 24 0 0 0 0 16
Neighs:              0 ave           0 max           0 min
Histogram: 48 0 0 0 0 0 0 0 0 0

Total # of neighbors = 0
Ave neighs/atom = 0
Ave special neighs/atom = 15.567568
Neighbor list builds = 71
Dangerous builds = 0
unfix           myat1
next            cpt
jump            SELF loop
variable        zdes equal  -15+0.60*(${cpt}-1)
variable        zdes equal  -15+0.60*(49-1)
variable        zave equal xcm(H2,z)
fix             mytth2 H2 spring tether ${k1} 2.5 2.5 ${zdes} 0
fix             mytth2 H2 spring tether 1 2.5 2.5 ${zdes} 0
fix             mytth2 H2 spring tether 1 2.5 2.5 13.8 0
run             10000
Generated 0 of 1 mixed pair_coeff terms from geometric mixing rule
Per MPI rank memory allocation (min/avg/max) = 13.32 | 13.83 | 14.98 Mbytes
   Step          Temp          E_pair         E_mol          TotEng         Press     
   2900000   295.45256      375.29671      18506.156      19304.183      77.18688     
   2910000   299.35789      380.5663       18512.433      19321.318      224.74116    
Loop time of 4.41847 on 48 procs for 10000 steps with 481 atoms

Performance: 9.777 ns/day, 2.455 hours/ns, 2263.229 timesteps/s, 1.089 Matom-step/s
100.0% CPU use with 48 MPI tasks x 1 OpenMP threads

MPI task timing breakdown:
Section |  min time  |  avg time  |  max time  |%varavg| %total
---------------------------------------------------------------
Pair    | 0.0033671  | 0.18503    | 1.488      |  71.3 |  4.19
Bond    | 0.001043   | 0.22058    | 1.4452     |  75.7 |  4.99
Neigh   | 0.0091848  | 0.010069   | 0.010635   |   0.4 |  0.23
Comm    | 1.126      | 3.2196     | 4.0034     |  51.8 | 72.87
Output  | 0.0017469  | 0.0028875  | 0.0040234  |   1.4 |  0.07
Modify  | 0.14859    | 0.63332    | 2.7851     | 110.5 | 14.33
Other   |            | 0.1469     |            |       |  3.33

Nlocal:        10.0208 ave          46 max           0 min
Histogram: 23 9 5 3 0 0 0 3 4 1
Nghost:        1818.35 ave        2347 max        1177 min
Histogram: 8 0 0 0 24 0 0 0 0 16
Neighs:              0 ave           0 max           0 min
Histogram: 48 0 0 0 0 0 0 0 0 0

Total # of neighbors = 0
Ave neighs/atom = 0
Ave special neighs/atom = 15.567568
Neighbor list builds = 17
Dangerous builds = 0
fix             myat1 all ave/time 1000 10 10000 v_zave v_zdes file simulation_data/abpot/${cpt}.dat
fix             myat1 all ave/time 1000 10 10000 v_zave v_zdes file simulation_data/abpot/49.dat
run             50000
Generated 0 of 1 mixed pair_coeff terms from geometric mixing rule
Per MPI rank memory allocation (min/avg/max) = 13.32 | 13.83 | 14.98 Mbytes
   Step          Temp          E_pair         E_mol          TotEng         Press     
   2910000   299.35789      380.5663       18512.433      19321.318      224.74116    
   2920000   297.70899      368.3467       18496.893      19291.198     -132.75776    
   2930000   284.89425      368.2229       18508.888      19284.734     -103.96897    
   2940000   291.27446      376.64146      18502.483      19295.877     -10.412672    
   2950000   323.07295      374.02371      18489.052      19325.325      40.553289    
   2960000   294.81156      368.91789      18539.806      19330.537     -150.86925    
Loop time of 20.9847 on 48 procs for 50000 steps with 481 atoms

Performance: 10.293 ns/day, 2.332 hours/ns, 2382.687 timesteps/s, 1.146 Matom-step/s
100.0% CPU use with 48 MPI tasks x 1 OpenMP threads

MPI task timing breakdown:
Section |  min time  |  avg time  |  max time  |%varavg| %total
---------------------------------------------------------------
Pair    | 0.017306   | 0.9381     | 5.785      | 154.4 |  4.47
Bond    | 0.0052941  | 1.1098     | 6.2933     | 167.5 |  5.29
Neigh   | 0.039441   | 0.042382   | 0.044715   |   0.7 |  0.20
Comm    | 7.1639     | 15.109     | 18.782     | 109.8 | 72.00
Output  | 0.0088592  | 0.01472    | 0.020335   |   3.1 |  0.07
Modify  | 0.75434    | 3.0724     | 13.017     | 227.7 | 14.64
Other   |            | 0.698      |            |       |  3.33

Nlocal:        10.0208 ave          53 max           0 min
Histogram: 28 6 5 1 2 0 1 2 1 2
Nghost:        1818.35 ave        2347 max        1170 min
Histogram: 8 0 0 0 24 0 0 0 0 16
Neighs:              0 ave           0 max           0 min
Histogram: 48 0 0 0 0 0 0 0 0 0

Total # of neighbors = 0
Ave neighs/atom = 0
Ave special neighs/atom = 15.567568
Neighbor list builds = 75
Dangerous builds = 0
unfix           myat1
next            cpt
jump            SELF loop
variable        zdes equal  -15+0.60*(${cpt}-1)
variable        zdes equal  -15+0.60*(50-1)
variable        zave equal xcm(H2,z)
fix             mytth2 H2 spring tether ${k1} 2.5 2.5 ${zdes} 0
fix             mytth2 H2 spring tether 1 2.5 2.5 ${zdes} 0
fix             mytth2 H2 spring tether 1 2.5 2.5 14.4 0
run             10000
Generated 0 of 1 mixed pair_coeff terms from geometric mixing rule
Per MPI rank memory allocation (min/avg/max) = 13.32 | 13.83 | 14.98 Mbytes
   Step          Temp          E_pair         E_mol          TotEng         Press     
   2960000   294.81156      368.91789      18539.806      19330.537     -150.86925    
   2970000   304.40326      379.06345      18497.603      19312.203      100.12467    
Loop time of 4.11003 on 48 procs for 10000 steps with 481 atoms

Performance: 10.511 ns/day, 2.283 hours/ns, 2433.074 timesteps/s, 1.170 Matom-step/s
100.0% CPU use with 48 MPI tasks x 1 OpenMP threads

MPI task timing breakdown:
Section |  min time  |  avg time  |  max time  |%varavg| %total
---------------------------------------------------------------
Pair    | 0.003353   | 0.18561    | 1.2314     |  68.7 |  4.52
Bond    | 0.0010605  | 0.22032    | 1.2818     |  74.3 |  5.36
Neigh   | 0.010298   | 0.011082   | 0.011693   |   0.3 |  0.27
Comm    | 1.4123     | 2.9391     | 3.6708     |  48.3 | 71.51
Output  | 0.0017608  | 0.0029246  | 0.0040964  |   1.4 |  0.07
Modify  | 0.15134    | 0.61566    | 2.5231     |  98.6 | 14.98
Other   |            | 0.1353     |            |       |  3.29

Nlocal:        10.0208 ave          47 max           0 min
Histogram: 25 7 8 0 0 0 2 2 1 3
Nghost:        1818.35 ave        2346 max        1177 min
Histogram: 8 0 0 0 24 0 0 0 0 16
Neighs:              0 ave           0 max           0 min
Histogram: 48 0 0 0 0 0 0 0 0 0

Total # of neighbors = 0
Ave neighs/atom = 0
Ave special neighs/atom = 15.567568
Neighbor list builds = 20
Dangerous builds = 0
fix             myat1 all ave/time 1000 10 10000 v_zave v_zdes file simulation_data/abpot/${cpt}.dat
fix             myat1 all ave/time 1000 10 10000 v_zave v_zdes file simulation_data/abpot/50.dat
run             50000
Generated 0 of 1 mixed pair_coeff terms from geometric mixing rule
Per MPI rank memory allocation (min/avg/max) = 13.32 | 13.83 | 14.98 Mbytes
   Step          Temp          E_pair         E_mol          TotEng         Press     
   2970000   304.40326      379.06345      18497.603      19312.203      100.12467    
   2980000   299.06206      374.33897      18511.238      19313.471      1.919002     
   2990000   317.02781      374.05984      18530.388      19358.048      42.432799    
   3000000   303.31789      368.49119      18544.072      19346.547     -229.89035    
   3010000   296.19031      374.93064      18497.866      19296.582     -51.588006    
   3020000   302.64932      376.16228      18511.707      19320.896      47.789966    
Loop time of 21.766 on 48 procs for 50000 steps with 481 atoms

Performance: 9.924 ns/day, 2.418 hours/ns, 2297.158 timesteps/s, 1.105 Matom-step/s
100.0% CPU use with 48 MPI tasks x 1 OpenMP threads

MPI task timing breakdown:
Section |  min time  |  avg time  |  max time  |%varavg| %total
---------------------------------------------------------------
Pair    | 0.016812   | 0.92618    | 5.5753     | 151.7 |  4.26
Bond    | 0.0052417  | 1.1133     | 6.0387     | 168.7 |  5.12
Neigh   | 0.038569   | 0.041338   | 0.043546   |   0.6 |  0.19
Comm    | 7.2757     | 15.697     | 19.567     | 112.4 | 72.12
Output  | 0.0092873  | 0.015119   | 0.020802   |   3.0 |  0.07
Modify  | 0.7808     | 3.2886     | 13.7       | 235.5 | 15.11
Other   |            | 0.6845     |            |       |  3.14

Nlocal:        10.0208 ave          55 max           0 min
Histogram: 26 10 4 0 1 0 3 2 1 1
Nghost:        1818.35 ave        2348 max        1179 min
Histogram: 8 0 0 0 24 0 0 0 0 16
Neighs:              0 ave           0 max           0 min
Histogram: 48 0 0 0 0 0 0 0 0 0

Total # of neighbors = 0
Ave neighs/atom = 0
Ave special neighs/atom = 15.567568
Neighbor list builds = 70
Dangerous builds = 0
unfix           myat1
next            cpt
jump            SELF loop
variable        zdes equal  -15+0.60*(${cpt}-1)
variable        zdes equal  -15+0.60*(51-1)
variable        zave equal xcm(H2,z)
fix             mytth2 H2 spring tether ${k1} 2.5 2.5 ${zdes} 0
fix             mytth2 H2 spring tether 1 2.5 2.5 ${zdes} 0
fix             mytth2 H2 spring tether 1 2.5 2.5 15 0
run             10000
Generated 0 of 1 mixed pair_coeff terms from geometric mixing rule
Per MPI rank memory allocation (min/avg/max) = 13.32 | 13.83 | 14.98 Mbytes
   Step          Temp          E_pair         E_mol          TotEng         Press     
   3020000   302.64932      376.16228      18511.707      19320.896      47.789966    
   3030000   310.83917      373.03811      18564.261      19382.045     -6.2012341    
Loop time of 4.23174 on 48 procs for 10000 steps with 481 atoms

Performance: 10.209 ns/day, 2.351 hours/ns, 2363.097 timesteps/s, 1.137 Matom-step/s
100.0% CPU use with 48 MPI tasks x 1 OpenMP threads

MPI task timing breakdown:
Section |  min time  |  avg time  |  max time  |%varavg| %total
---------------------------------------------------------------
Pair    | 0.0034796  | 0.18988    | 1.0326     |  69.3 |  4.49
Bond    | 0.0010418  | 0.22884    | 1.4143     |  78.9 |  5.41
Neigh   | 0.0042962  | 0.0046028  | 0.0048757  |   0.2 |  0.11
Comm    | 1.4646     | 3.0362     | 3.8413     |  50.6 | 71.75
Output  | 0.001808   | 0.0029657  | 0.0041379  |   1.4 |  0.07
Modify  | 0.15941    | 0.63293    | 2.613      | 102.5 | 14.96
Other   |            | 0.1363     |            |       |  3.22

Nlocal:        10.0208 ave          47 max           0 min
Histogram: 23 10 6 1 0 1 1 2 1 3
Nghost:        1818.35 ave        2347 max        1179 min
Histogram: 8 0 0 0 24 0 0 0 0 16
Neighs:              0 ave           0 max           0 min
Histogram: 48 0 0 0 0 0 0 0 0 0

Total # of neighbors = 0
Ave neighs/atom = 0
Ave special neighs/atom = 15.567568
Neighbor list builds = 8
Dangerous builds = 0
fix             myat1 all ave/time 1000 10 10000 v_zave v_zdes file simulation_data/abpot/${cpt}.dat
fix             myat1 all ave/time 1000 10 10000 v_zave v_zdes file simulation_data/abpot/51.dat
run             50000
Generated 0 of 1 mixed pair_coeff terms from geometric mixing rule
Per MPI rank memory allocation (min/avg/max) = 13.32 | 13.83 | 14.98 Mbytes
   Step          Temp          E_pair         E_mol          TotEng         Press     
   3030000   310.83917      373.03811      18564.261      19382.045     -6.2012341    
   3040000   281.43042      364.86119      18538.735      19306.264     -167.58942    
   3050000   286.24694      365.56782      18526.021      19301.148     -245.13687    
   3060000   297.02886      367.56056      18511.763      19304.309     -203.63426    
   3070000   309.81257      377.41861      18491.691      19312.386      11.017959    
   3080000   293.86705      382.24623      18546.707      19349.415      114.59827    
Loop time of 22.2763 on 48 procs for 50000 steps with 481 atoms

Performance: 9.696 ns/day, 2.475 hours/ns, 2244.537 timesteps/s, 1.080 Matom-step/s
100.0% CPU use with 48 MPI tasks x 1 OpenMP threads

MPI task timing breakdown:
Section |  min time  |  avg time  |  max time  |%varavg| %total
---------------------------------------------------------------
Pair    | 0.016745   | 0.91604    | 5.9224     | 153.0 |  4.11
Bond    | 0.0052779  | 1.1018     | 6.1808     | 166.8 |  4.95
Neigh   | 0.053488   | 0.057159   | 0.060177   |   0.7 |  0.26
Comm    | 7.4044     | 16.084     | 19.991     | 113.4 | 72.20
Output  | 0.0093247  | 0.015188   | 0.020926   |   3.1 |  0.07
Modify  | 0.76835    | 3.4215     | 14.063     | 239.5 | 15.36
Other   |            | 0.681      |            |       |  3.06

Nlocal:        10.0208 ave          53 max           0 min
Histogram: 24 12 4 1 0 2 0 2 1 2
Nghost:        1818.35 ave        2346 max        1176 min
Histogram: 8 0 0 0 24 0 0 0 0 16
Neighs:              0 ave           0 max           0 min
Histogram: 48 0 0 0 0 0 0 0 0 0

Total # of neighbors = 0
Ave neighs/atom = 0
Ave special neighs/atom = 15.567568
Neighbor list builds = 93
Dangerous builds = 0
unfix           myat1
next            cpt
jump            SELF loop

Total wall time: 0:19:30
