# --- log file ---

variable pre equal 112 # desired pressure (Atm)
variable tem equal 300 # desired temperature (K)

variable k1 equal 1.5 # spring constant
variable k2 equal 3.5 # spring constant

units real
atom_style molecular
boundary p p p
neighbor 1.0 bin
neigh_modify delay 3 one 6000
bond_style harmonic
angle_style harmonic
dihedral_style opls
improper_style harmonic
pair_style hybrid lj/cut 14 sg 15 cb 30 # Fluid-fluid interactions have a cutoff of 15 Å, fluid-solid interactions have a cutoff of 30 Å
# *--* C-C parameters *--*
bond_style harmonic
angle_style harmonic
dihedral_style opls
improper_style harmonic
# *--* C-C parameters *--*


# 2. Read the graphite platelet data file and define potentials parameters
read_data       ../geometry/carbonPlatelets/simulation_data/abpot_sys.data  extra/atom/types 1
Reading data file ...
  orthogonal box = (-30 -30 -30) to (30 30 30)
  4 by 4 by 4 MPI processor grid
  reading atoms ...
  480 atoms
  reading velocities ...
  480 velocities
  scanning bonds ...
  2 = max bonds/atom
  scanning angles ...
  3 = max angles/atom
  scanning dihedrals ...
  8 = max dihedrals/atom
  scanning impropers ...
  2 = max impropers/atom
  orthogonal box = (-30 -30 -30) to (30 30 30)
  4 by 4 by 4 MPI processor grid
  reading bonds ...
  676 bonds
  reading angles ...
  1268 angles
  reading dihedrals ...
  2394 dihedrals
  reading impropers ...
  396 impropers
Finding 1-2 1-3 1-4 neighbors ...
  special bond factors lj:    0        0        0       
  special bond factors coul:  0        0        0       
     3 = max # of 1-2 neighbors
     6 = max # of 1-3 neighbors
    18 = max # of 1-4 neighbors
    18 = max # of special neighbors
  special bonds CPU = 0.006 seconds
  read_data CPU = 0.057 seconds
include         PARM.lammps

#////////////////////////////////////////////////////////////////////////////////////////////////////////////////////////////////
#//     Filename: PARM.lammps
#//     File Type: LAMMPS input script
#//     Description: This script defines the parameters for the simulation of hydrogen absorption in graphite platelets.
#//     Author: Edoardo Cabiati
#//     Date: 2024-07-27
#////////////////////////////////////////////////////////////////////////////////////////////////////////////////////////////////

mass 2 2.016 # For now at least, in accordance with the paper by Wang and Johnson,
             # 1998, the hydrogen atoms are regarded as simple spherical atoms

# //////////////////////////////////////    C-C potentials    //////////////////////////////////////
pair_coeff 1 1 lj/cut 0.066 3.4
bond_coeff 1 469 1.4
angle_coeff 1 63 120
dihedral_coeff 1 0 7.25 0 0
improper_coeff 1 5 180
special_bonds lj 0.0 0.0 0.5
Finding 1-2 1-3 1-4 neighbors ...
  special bond factors lj:    0        0        0.5     
  special bond factors coul:  0        0        0       
     3 = max # of 1-2 neighbors
     6 = max # of 1-3 neighbors
    18 = max # of 1-4 neighbors
    18 = max # of special neighbors
  special bonds CPU = 0.002 seconds
# //////////////////////////////////////    C-C potentials    //////////////////////////////////////
# -------------------------------------------------------------------------------------------------
# //////////////////////////////////////    H-H potentials    //////////////////////////////////////
variable alpha equal 1.713          #|
variable sigma equal 1.567          #|
variable gamma equal 0.00993        #|
variable c6 equal 12.14             #|      The parameters are all in atomic units, the conversion to kcal/mol
variable c8 equal 215.2             #|      is performed in the pair_sg.cpp file
variable c9 equal 143.1             #|
variable c10 equal 4813.9           #|
variable rc equal 8.321             #|
pair_coeff 2 2 sg ${alpha} ${sigma} ${gamma} ${c6} ${c8} ${c9} ${c10} ${rc} # H-H potentials
pair_coeff 2 2 sg 1.713 ${sigma} ${gamma} ${c6} ${c8} ${c9} ${c10} ${rc} 
pair_coeff 2 2 sg 1.713 1.567 ${gamma} ${c6} ${c8} ${c9} ${c10} ${rc} 
pair_coeff 2 2 sg 1.713 1.567 0.00993 ${c6} ${c8} ${c9} ${c10} ${rc} 
pair_coeff 2 2 sg 1.713 1.567 0.00993 12.14 ${c8} ${c9} ${c10} ${rc} 
pair_coeff 2 2 sg 1.713 1.567 0.00993 12.14 215.2 ${c9} ${c10} ${rc} 
pair_coeff 2 2 sg 1.713 1.567 0.00993 12.14 215.2 143.1 ${c10} ${rc} 
pair_coeff 2 2 sg 1.713 1.567 0.00993 12.14 215.2 143.1 4813.9 ${rc} 
pair_coeff 2 2 sg 1.713 1.567 0.00993 12.14 215.2 143.1 4813.9 8.321 
#pair_coeff 2 2 sg 1.713 1.567 0.00993 12.14 215.2 143.1 4813.9 8.321 # H-H potentials
# //////////////////////////////////////    H-H potentials    //////////////////////////////////////
# -------------------------------------------------------------------------------------------------
# //////////////////////////////////////    C-H potentials    //////////////////////////////////////
# Parameters taken from the paper by Wang and Johnson, 1998
variable sigma_CC equal 3.43 # Å
variable sigma_HH equal 3.075 # Å
variable sigma_CH_geo equal sqrt(${sigma_CC}*${sigma_HH}) # Å
variable sigma_CH_geo equal sqrt(3.43*${sigma_HH}) 
variable sigma_CH_geo equal sqrt(3.43*3.075) 
variable sigma_CH_arit equal 0.5*(${sigma_CC}+${sigma_HH}) # Å
variable sigma_CH_arit equal 0.5*(3.43+${sigma_HH}) 
variable sigma_CH_arit equal 0.5*(3.43+3.075) 

variable P_par equal 0.57 # Å^3
variable P_perp equal 1.995 # Å^3
variable P_h equal 0.81 # Å^3
variable E_h equal 2.337e5*(1/503.23) # K * 1/503.23 kcal/mol/K = kcal/mol
variable E_c equal 1.39254e5*(1/503.23) # K * 1/503.23 kcal/mol/K = kcal/mol

variable epsilon equal 4*(5/11)*v_E_h*v_E_c*v_P_h*(v_P_par+v_P_perp/2)/(v_sigma_CH_geo^6*(v_E_h+v_E_c)) # kcal/mol
# The formula taken from paper by Wang and Johnson, 1998 to construct epsilon does not seem to be consistent with the
# results obtained from the LAMMPS simulation. We will be using the value of epsilon obtained from the simplified
# version of the CB potential as 12-6 lennard-jones potential, presented in the paper "Theoretical investigation of the
# effect of graphite interlayer spacing on hydrogen absorption" by Rachel S. Aga, C. L. Fu, Maja Krčmar, and James R. Morris.
variable epsilon_sub equal 4*0.085094 # kcal/mol
variable sigma equal 2.97 # Å

pair_coeff 1 2 cb ${epsilon_sub} ${sigma} ${P_par} ${P_perp} # C-H potential
pair_coeff 1 2 cb 0.340376 ${sigma} ${P_par} ${P_perp} 
pair_coeff 1 2 cb 0.340376 2.97 ${P_par} ${P_perp} 
pair_coeff 1 2 cb 0.340376 2.97 0.57 ${P_perp} 
pair_coeff 1 2 cb 0.340376 2.97 0.57 1.995 
#pair_coeff 1 2 lj/cut 0.3025 2.065
# //////////////////////////////////////    C-H potentials    //////////////////////////////////////

# 3. Add a single hydrogen molecule to the system, close to the center of the first platelet
create_atoms    2 single 0 0 -2
Created 1 atoms
  using lattice units in orthogonal box = (-30 -30 -30) to (30 30 30)
  create_atoms CPU = 0.000 seconds

group           C type 1
480 atoms in group C
group           H2 type 2
1 atoms in group H2

# 4. Equilibration
timestep        0.05
fix             mytth1 C spring/self ${k2} # Apply a spring force to the carbon atoms
fix             mytth1 C spring/self 3.5 
velocity        all create ${tem} 48 rot yes mom yes dist gaussian # Initialize velocities
velocity        all create 300 48 rot yes mom yes dist gaussian 
fix             mynpt all npt temp ${tem} ${tem} 100 x ${pre} ${pre} 1000 y ${pre} ${pre} 1000 # Apply NPT ensemble to the system
fix             mynpt all npt temp 300 ${tem} 100 x ${pre} ${pre} 1000 y ${pre} ${pre} 1000 
fix             mynpt all npt temp 300 300 100 x ${pre} ${pre} 1000 y ${pre} ${pre} 1000 
fix             mynpt all npt temp 300 300 100 x 112 ${pre} 1000 y ${pre} ${pre} 1000 
fix             mynpt all npt temp 300 300 100 x 112 112 1000 y ${pre} ${pre} 1000 
fix             mynpt all npt temp 300 300 100 x 112 112 1000 y 112 ${pre} 1000 
fix             mynpt all npt temp 300 300 100 x 112 112 1000 y 112 112 1000 

thermo          10000
dump            dump all atom 1000 simulation_data/absorption_pot.lammpstrj

run             20000

CITE-CITE-CITE-CITE-CITE-CITE-CITE-CITE-CITE-CITE-CITE-CITE-CITE

Your simulation uses code contributions which should be cited:

- Type Label Framework: https://doi.org/10.1021/acs.jpcb.3c08419

@Article{Gissinger24,
 author = {Jacob R. Gissinger, Ilia Nikiforov, Yaser Afshar, Brendon Waters, Moon-ki Choi, Daniel S. Karls, Alexander Stukowski, Wonpil Im, Hendrik Heinz, Axel Kohlmeyer, and Ellad B. Tadmor},
 title = {Type Label Framework for Bonded Force Fields in LAMMPS},
 journal = {J. Phys. Chem. B},
 year =    2024,
 volume =  128,
 number =  13,
 pages =   {3282–-3297}
}

CITE-CITE-CITE-CITE-CITE-CITE-CITE-CITE-CITE-CITE-CITE-CITE-CITE

Generated 0 of 1 mixed pair_coeff terms from geometric mixing rule
Neighbor list info ...
  update: every = 1 steps, delay = 3 steps, check = yes
  max neighbors/atom: 6000, page size: 100000
  master list distance cutoff = 31
  ghost atom cutoff = 31
  binsize = 15.5, bins = 4 4 4
  4 neighbor lists, perpetual/occasional/extra = 4 0 0
  (1) pair lj/cut, perpetual, skip trim from (4)
      attributes: half, newton on, cut 15
      pair build: skip/trim
      stencil: none
      bin: none
  (2) pair sg, perpetual, skip trim from (4)
      attributes: half, newton on, cut 16
      pair build: skip/trim
      stencil: none
      bin: none
  (3) pair cb, perpetual, skip from (4)
      attributes: half, newton on
      pair build: skip
      stencil: none
      bin: none
  (4) neighbor class addition, perpetual
      attributes: half, newton on
      pair build: half/bin/newton
      stencil: half/bin/3d
      bin: standard
Per MPI rank memory allocation (min/avg/max) = 13.29 | 13.4 | 13.93 Mbytes
   Step          Temp          E_pair         E_mol          TotEng         Press          Volume    
         0   300            308.5124       19603.922      20341.671     -432.43506      216000       
     10000   308.71881      373.71132      18568.425      19383.847     -313.89117      172136.83    
     20000   319.74694      375.11214      18539.114      19371.717     -417.40409      126541.73    
Loop time of 7.81419 on 64 procs for 20000 steps with 481 atoms

Performance: 11.057 ns/day, 2.171 hours/ns, 2559.445 timesteps/s, 1.231 Matom-step/s
99.8% CPU use with 64 MPI tasks x 1 OpenMP threads

MPI task timing breakdown:
Section |  min time  |  avg time  |  max time  |%varavg| %total
---------------------------------------------------------------
Pair    | 0.13562    | 0.4497     | 2.2939     |  76.6 |  5.75
Bond    | 0.0041029  | 0.34776    | 2.073      | 101.9 |  4.45
Neigh   | 0.019607   | 0.022407   | 0.024442   |   0.9 |  0.29
Comm    | 2.4209     | 4.6883     | 5.7105     |  45.1 | 60.00
Output  | 0.0036801  | 0.010871   | 0.019325   |   4.9 |  0.14
Modify  | 0.73396    | 2.0067     | 4.359      |  76.9 | 25.68
Other   |            | 0.2884     |            |       |  3.69

Nlocal:        7.51562 ave          36 max           0 min
Histogram: 41 7 0 0 0 1 2 9 3 1
Nghost:        1804.95 ave        2371 max        1288 min
Histogram: 16 0 0 0 32 0 0 0 0 16
Neighs:              0 ave           0 max           0 min
Histogram: 64 0 0 0 0 0 0 0 0 0

Total # of neighbors = 0
Ave neighs/atom = 0
Ave special neighs/atom = 15.567568
Neighbor list builds = 52
Dangerous builds = 0
unfix           mynpt
unfix           mytth1

# 5. Umbrella sampling
fix             mynvt all nvt temp ${tem} ${tem} 100
fix             mynvt all nvt temp 300 ${tem} 100
fix             mynvt all nvt temp 300 300 100
fix             mytth1 C spring/self ${k2}
fix             mytth1 C spring/self 3.5

variable        cpt loop 51
label           loop
variable        zdes equal  -15+0.60*(${cpt}-1)
variable        zdes equal  -15+0.60*(1-1)
variable        zave equal xcm(H2,z)
fix             mytth2 H2 spring tether ${k1} 2.5 2.5 ${zdes} 0
fix             mytth2 H2 spring tether 1.5 2.5 2.5 ${zdes} 0
fix             mytth2 H2 spring tether 1.5 2.5 2.5 -15 0
run             10000
Generated 0 of 1 mixed pair_coeff terms from geometric mixing rule
Per MPI rank memory allocation (min/avg/max) = 13.32 | 13.62 | 14.95 Mbytes
   Step          Temp          E_pair         E_mol          TotEng         Press     
     20000   319.74694      375.11214      18539.114      19371.717     -417.40409    
     30000   272.44802      350.59503      18585.876      19326.286     -1211.0195    
Loop time of 3.74304 on 64 procs for 10000 steps with 481 atoms

Performance: 11.541 ns/day, 2.079 hours/ns, 2671.623 timesteps/s, 1.285 Matom-step/s
100.0% CPU use with 64 MPI tasks x 1 OpenMP threads

MPI task timing breakdown:
Section |  min time  |  avg time  |  max time  |%varavg| %total
---------------------------------------------------------------
Pair    | 0.0035741  | 0.14629    | 1.1007     |  72.5 |  3.91
Bond    | 0.0010973  | 0.15732    | 0.82545    |  66.2 |  4.20
Neigh   | 0.052947   | 0.060661   | 0.065526   |   1.3 |  1.62
Comm    | 1.5581     | 2.8529     | 3.3892     |  37.3 | 76.22
Output  | 0.0015873  | 0.004418   | 0.0074038  |   2.8 |  0.12
Modify  | 0.13883    | 0.40758    | 1.8615     |  80.9 | 10.89
Other   |            | 0.1139     |            |       |  3.04

Nlocal:        7.51562 ave          36 max           0 min
Histogram: 42 5 1 0 0 5 3 2 5 1
Nghost:        1807.19 ave        2378 max        1289 min
Histogram: 16 0 0 0 32 0 0 0 0 16
Neighs:              0 ave           0 max           0 min
Histogram: 64 0 0 0 0 0 0 0 0 0

Total # of neighbors = 0
Ave neighs/atom = 0
Ave special neighs/atom = 15.567568
Neighbor list builds = 130
Dangerous builds = 0
fix             myat1 all ave/time 1000 10 10000 v_zave v_zdes file simulation_data/abpot/${cpt}.dat
fix             myat1 all ave/time 1000 10 10000 v_zave v_zdes file simulation_data/abpot/1.dat
run             50000
Generated 0 of 1 mixed pair_coeff terms from geometric mixing rule
Per MPI rank memory allocation (min/avg/max) = 13.32 | 13.62 | 14.95 Mbytes
   Step          Temp          E_pair         E_mol          TotEng         Press     
     30000   272.44802      350.59503      18585.876      19326.286     -1211.0195    
     40000   300.51212      415.5644       18532.767      19378.3        702.57546    
     50000   299.41106      397.59651      18538.807      19364.798      211.87346    
     60000   289.20351      363.73871      18548.139      19325.666     -717.28767    
     70000   295.68424      396.61376      18525.779      19345.454      101.27883    
     80000   289.34938      413.26371      18550.914      19378.175      528.26229    
Loop time of 19.162 on 64 procs for 50000 steps with 481 atoms

Performance: 11.272 ns/day, 2.129 hours/ns, 2609.331 timesteps/s, 1.255 Matom-step/s
100.0% CPU use with 64 MPI tasks x 1 OpenMP threads

MPI task timing breakdown:
Section |  min time  |  avg time  |  max time  |%varavg| %total
---------------------------------------------------------------
Pair    | 0.017691   | 0.72992    | 5.7128     | 163.7 |  3.81
Bond    | 0.0053891  | 0.78475    | 4.0815     | 148.0 |  4.10
Neigh   | 0.17841    | 0.20232    | 0.21874    |   2.5 |  1.06
Comm    | 7.9262     | 14.684     | 17.473     |  84.2 | 76.63
Output  | 0.0077285  | 0.01917    | 0.030748   |   5.3 |  0.10
Modify  | 0.71275    | 2.13       | 9.4726     | 186.4 | 11.12
Other   |            | 0.6116     |            |       |  3.19

Nlocal:        7.51562 ave          33 max           0 min
Histogram: 42 4 2 0 0 0 3 3 5 5
Nghost:        1830.17 ave        2432 max        1291 min
Histogram: 16 0 0 0 32 0 0 0 0 16
Neighs:              0 ave           0 max           0 min
Histogram: 64 0 0 0 0 0 0 0 0 0

Total # of neighbors = 0
Ave neighs/atom = 0
Ave special neighs/atom = 15.567568
Neighbor list builds = 416
Dangerous builds = 0
unfix           myat1
next            cpt
jump            SELF loop
variable        zdes equal  -15+0.60*(${cpt}-1)
variable        zdes equal  -15+0.60*(2-1)
variable        zave equal xcm(H2,z)
fix             mytth2 H2 spring tether ${k1} 2.5 2.5 ${zdes} 0
fix             mytth2 H2 spring tether 1.5 2.5 2.5 ${zdes} 0
fix             mytth2 H2 spring tether 1.5 2.5 2.5 -14.4 0
run             10000
Generated 0 of 1 mixed pair_coeff terms from geometric mixing rule
Per MPI rank memory allocation (min/avg/max) = 13.32 | 13.62 | 14.95 Mbytes
   Step          Temp          E_pair         E_mol          TotEng         Press     
     80000   289.34938      413.26371      18550.914      19378.175      528.26229    
     90000   312.10089      366.64405      18622.867      19436.062     -751.57442    
Loop time of 3.77665 on 64 procs for 10000 steps with 481 atoms

Performance: 11.439 ns/day, 2.098 hours/ns, 2647.851 timesteps/s, 1.274 Matom-step/s
100.0% CPU use with 64 MPI tasks x 1 OpenMP threads

MPI task timing breakdown:
Section |  min time  |  avg time  |  max time  |%varavg| %total
---------------------------------------------------------------
Pair    | 0.0033187  | 0.14541    | 1.1345     |  72.4 |  3.85
Bond    | 0.0010805  | 0.15634    | 0.81392    |  65.5 |  4.14
Neigh   | 0.013902   | 0.015738   | 0.017019   |   0.7 |  0.42
Comm    | 1.5961     | 2.8996     | 3.47       |  37.0 | 76.78
Output  | 0.0014743  | 0.0033625  | 0.0052894  |   2.1 |  0.09
Modify  | 0.13383    | 0.43429    | 1.8513     |  81.7 | 11.50
Other   |            | 0.1219     |            |       |  3.23

Nlocal:        7.51562 ave          36 max           0 min
Histogram: 42 5 1 0 0 2 3 5 4 2
Nghost:        1815.64 ave        2398 max        1288 min
Histogram: 16 0 0 0 32 0 0 0 0 16
Neighs:              0 ave           0 max           0 min
Histogram: 64 0 0 0 0 0 0 0 0 0

Total # of neighbors = 0
Ave neighs/atom = 0
Ave special neighs/atom = 15.567568
Neighbor list builds = 33
Dangerous builds = 0
fix             myat1 all ave/time 1000 10 10000 v_zave v_zdes file simulation_data/abpot/${cpt}.dat
fix             myat1 all ave/time 1000 10 10000 v_zave v_zdes file simulation_data/abpot/2.dat
run             50000
Generated 0 of 1 mixed pair_coeff terms from geometric mixing rule
Per MPI rank memory allocation (min/avg/max) = 13.32 | 13.62 | 14.95 Mbytes
   Step          Temp          E_pair         E_mol          TotEng         Press     
     90000   312.10089      366.64405      18622.867      19436.062     -751.57442    
    100000   309.31213      392.18971      18550.537      19385.287      121.17837    
    110000   306.09677      397.65798      18516.244      19351.862      211.03637    
    120000   304.57242      383.39883      18533.368      19352.546     -5.0560915    
    130000   299.37545      385.03819      18542.574      19355.956     -152.34189    
    140000   298.7988       382.30674      18573.918      19383.742     -206.19627    
Loop time of 18.8364 on 64 procs for 50000 steps with 481 atoms

Performance: 11.467 ns/day, 2.093 hours/ns, 2654.439 timesteps/s, 1.277 Matom-step/s
100.0% CPU use with 64 MPI tasks x 1 OpenMP threads

MPI task timing breakdown:
Section |  min time  |  avg time  |  max time  |%varavg| %total
---------------------------------------------------------------
Pair    | 0.017145   | 0.7301     | 5.6841     | 164.4 |  3.88
Bond    | 0.005443   | 0.78638    | 4.3307     | 148.3 |  4.17
Neigh   | 0.055683   | 0.063379   | 0.06861    |   1.4 |  0.34
Comm    | 7.9075     | 14.518     | 17.298     |  83.5 | 77.08
Output  | 0.0076664  | 0.01644    | 0.024991   |   4.3 |  0.09
Modify  | 0.69256    | 2.1074     | 9.2209     | 182.6 | 11.19
Other   |            | 0.6141     |            |       |  3.26

Nlocal:        7.51562 ave          37 max           0 min
Histogram: 41 7 0 0 1 1 2 7 4 1
Nghost:        1818.45 ave        2409 max        1291 min
Histogram: 16 0 0 0 32 0 0 0 0 16
Neighs:              0 ave           0 max           0 min
Histogram: 64 0 0 0 0 0 0 0 0 0

Total # of neighbors = 0
Ave neighs/atom = 0
Ave special neighs/atom = 15.567568
Neighbor list builds = 131
Dangerous builds = 0
unfix           myat1
next            cpt
jump            SELF loop
variable        zdes equal  -15+0.60*(${cpt}-1)
variable        zdes equal  -15+0.60*(3-1)
variable        zave equal xcm(H2,z)
fix             mytth2 H2 spring tether ${k1} 2.5 2.5 ${zdes} 0
fix             mytth2 H2 spring tether 1.5 2.5 2.5 ${zdes} 0
fix             mytth2 H2 spring tether 1.5 2.5 2.5 -13.8 0
run             10000
Generated 0 of 1 mixed pair_coeff terms from geometric mixing rule
Per MPI rank memory allocation (min/avg/max) = 13.32 | 13.62 | 14.95 Mbytes
   Step          Temp          E_pair         E_mol          TotEng         Press     
    140000   298.7988       382.30674      18573.918      19383.742     -206.19627    
    150000   283.98247      388.87145      18513.792      19308.982      22.030082    
Loop time of 3.66293 on 64 procs for 10000 steps with 481 atoms

Performance: 11.794 ns/day, 2.035 hours/ns, 2730.057 timesteps/s, 1.313 Matom-step/s
100.0% CPU use with 64 MPI tasks x 1 OpenMP threads

MPI task timing breakdown:
Section |  min time  |  avg time  |  max time  |%varavg| %total
---------------------------------------------------------------
Pair    | 0.0034452  | 0.14497    | 1.1336     |  72.6 |  3.96
Bond    | 0.0010649  | 0.15633    | 0.83082    |  65.8 |  4.27
Neigh   | 0.0095084  | 0.010792   | 0.011769   |   0.6 |  0.29
Comm    | 1.4965     | 2.8143     | 3.3582     |  36.6 | 76.83
Output  | 0.0014689  | 0.0031167  | 0.0047526  |   1.9 |  0.09
Modify  | 0.13952    | 0.41212    | 1.7694     |  78.8 | 11.25
Other   |            | 0.1213     |            |       |  3.31

Nlocal:        7.51562 ave          36 max           0 min
Histogram: 42 6 0 0 1 0 3 7 3 2
Nghost:         1825.2 ave        2418 max        1291 min
Histogram: 16 0 0 0 32 0 0 0 0 16
Neighs:              0 ave           0 max           0 min
Histogram: 64 0 0 0 0 0 0 0 0 0

Total # of neighbors = 0
Ave neighs/atom = 0
Ave special neighs/atom = 15.567568
Neighbor list builds = 23
Dangerous builds = 0
fix             myat1 all ave/time 1000 10 10000 v_zave v_zdes file simulation_data/abpot/${cpt}.dat
fix             myat1 all ave/time 1000 10 10000 v_zave v_zdes file simulation_data/abpot/3.dat
run             50000
Generated 0 of 1 mixed pair_coeff terms from geometric mixing rule
Per MPI rank memory allocation (min/avg/max) = 13.32 | 13.62 | 14.95 Mbytes
   Step          Temp          E_pair         E_mol          TotEng         Press     
    150000   283.98247      388.87145      18513.792      19308.982      22.030082    
    160000   305.56088      385.95179      18527.462      19350.607     -199.78431    
    170000   289.62124      380.04304      18575.045      19369.475     -300.52101    
    180000   315.78337      388.23409      18546.836      19386.89      -108.47896    
    190000   309.94339      385.51202      18581.908      19410.884     -253.64661    
    200000   292.24817      397.08211      18520.53       19335.758      124.78505    
Loop time of 18.8165 on 64 procs for 50000 steps with 481 atoms

Performance: 11.479 ns/day, 2.091 hours/ns, 2657.248 timesteps/s, 1.278 Matom-step/s
100.0% CPU use with 64 MPI tasks x 1 OpenMP threads

MPI task timing breakdown:
Section |  min time  |  avg time  |  max time  |%varavg| %total
---------------------------------------------------------------
Pair    | 0.01759    | 0.72639    | 5.9639     | 163.6 |  3.86
Bond    | 0.0053256  | 0.78259    | 3.9621     | 147.1 |  4.16
Neigh   | 0.034392   | 0.039293   | 0.04264    |   1.2 |  0.21
Comm    | 7.62       | 14.499     | 17.336     |  83.8 | 77.05
Output  | 0.0074288  | 0.015547   | 0.023355   |   4.1 |  0.08
Modify  | 0.68601    | 2.1424     | 9.3502     | 184.8 | 11.39
Other   |            | 0.6116     |            |       |  3.25

Nlocal:        7.51562 ave          35 max           0 min
Histogram: 42 4 2 0 0 1 5 2 5 3
Nghost:         1828.3 ave        2426 max        1291 min
Histogram: 16 0 0 0 32 0 0 0 0 16
Neighs:              0 ave           0 max           0 min
Histogram: 64 0 0 0 0 0 0 0 0 0

Total # of neighbors = 0
Ave neighs/atom = 0
Ave special neighs/atom = 15.567568
Neighbor list builds = 81
Dangerous builds = 0
unfix           myat1
next            cpt
jump            SELF loop
variable        zdes equal  -15+0.60*(${cpt}-1)
variable        zdes equal  -15+0.60*(4-1)
variable        zave equal xcm(H2,z)
fix             mytth2 H2 spring tether ${k1} 2.5 2.5 ${zdes} 0
fix             mytth2 H2 spring tether 1.5 2.5 2.5 ${zdes} 0
fix             mytth2 H2 spring tether 1.5 2.5 2.5 -13.2 0
run             10000
Generated 0 of 1 mixed pair_coeff terms from geometric mixing rule
Per MPI rank memory allocation (min/avg/max) = 13.32 | 13.62 | 14.95 Mbytes
   Step          Temp          E_pair         E_mol          TotEng         Press     
    200000   292.24817      397.08211      18520.53       19335.758      124.78505    
    210000   295.48164      390.19949      18536.728      19349.699      51.664787    
Loop time of 3.70191 on 64 procs for 10000 steps with 481 atoms

Performance: 11.670 ns/day, 2.057 hours/ns, 2701.306 timesteps/s, 1.299 Matom-step/s
100.0% CPU use with 64 MPI tasks x 1 OpenMP threads

MPI task timing breakdown:
Section |  min time  |  avg time  |  max time  |%varavg| %total
---------------------------------------------------------------
Pair    | 0.0035216  | 0.14515    | 1.1892     |  73.1 |  3.92
Bond    | 0.0010596  | 0.15646    | 0.79129    |  66.0 |  4.23
Neigh   | 0.0045608  | 0.0052404  | 0.0056531  |   0.4 |  0.14
Comm    | 1.4703     | 2.8569     | 3.4117     |  37.2 | 77.17
Output  | 0.0014685  | 0.0030659  | 0.0046481  |   1.8 |  0.08
Modify  | 0.13572    | 0.41364    | 1.8142     |  81.2 | 11.17
Other   |            | 0.1215     |            |       |  3.28

Nlocal:        7.51562 ave          37 max           0 min
Histogram: 43 3 2 0 1 4 2 2 4 3
Nghost:         1819.2 ave        2404 max        1287 min
Histogram: 16 0 0 0 32 0 0 0 0 16
Neighs:              0 ave           0 max           0 min
Histogram: 64 0 0 0 0 0 0 0 0 0

Total # of neighbors = 0
Ave neighs/atom = 0
Ave special neighs/atom = 15.567568
Neighbor list builds = 11
Dangerous builds = 0
fix             myat1 all ave/time 1000 10 10000 v_zave v_zdes file simulation_data/abpot/${cpt}.dat
fix             myat1 all ave/time 1000 10 10000 v_zave v_zdes file simulation_data/abpot/4.dat
run             50000
Generated 0 of 1 mixed pair_coeff terms from geometric mixing rule
Per MPI rank memory allocation (min/avg/max) = 13.32 | 13.62 | 14.95 Mbytes
   Step          Temp          E_pair         E_mol          TotEng         Press     
    210000   295.48164      390.19949      18536.728      19349.699      51.664787    
    220000   325.61995      384.04158      18557.418      19407.353     -56.316009    
    230000   314.63367      387.95152      18561.855      19399.981     -126.88743    
    240000   305.37284      390.69937      18528.578      19356.202      78.022053    
    250000   298.28164      401.27128      18539.027      19367.077      170.19398    
    260000   299.32329      399.50655      18541.773      19369.548      116.99067    
Loop time of 18.808 on 64 procs for 50000 steps with 481 atoms

Performance: 11.484 ns/day, 2.090 hours/ns, 2658.446 timesteps/s, 1.279 Matom-step/s
100.0% CPU use with 64 MPI tasks x 1 OpenMP threads

MPI task timing breakdown:
Section |  min time  |  avg time  |  max time  |%varavg| %total
---------------------------------------------------------------
Pair    | 0.017994   | 0.72442    | 5.7534     | 162.7 |  3.85
Bond    | 0.0053075  | 0.78365    | 4.0046     | 148.0 |  4.17
Neigh   | 0.027048   | 0.030631   | 0.033214   |   1.0 |  0.16
Comm    | 7.8215     | 14.543     | 17.348     |  83.8 | 77.33
Output  | 0.0074716  | 0.015448   | 0.023076   |   4.0 |  0.08
Modify  | 0.68407    | 2.1026     | 9.3495     | 185.4 | 11.18
Other   |            | 0.6078     |            |       |  3.23

Nlocal:        7.51562 ave          35 max           0 min
Histogram: 41 6 1 0 0 0 7 1 5 3
Nghost:        1822.95 ave        2417 max        1289 min
Histogram: 16 0 0 0 32 0 0 0 0 16
Neighs:              0 ave           0 max           0 min
Histogram: 64 0 0 0 0 0 0 0 0 0

Total # of neighbors = 0
Ave neighs/atom = 0
Ave special neighs/atom = 15.567568
Neighbor list builds = 62
Dangerous builds = 0
unfix           myat1
next            cpt
jump            SELF loop
variable        zdes equal  -15+0.60*(${cpt}-1)
variable        zdes equal  -15+0.60*(5-1)
variable        zave equal xcm(H2,z)
fix             mytth2 H2 spring tether ${k1} 2.5 2.5 ${zdes} 0
fix             mytth2 H2 spring tether 1.5 2.5 2.5 ${zdes} 0
fix             mytth2 H2 spring tether 1.5 2.5 2.5 -12.6 0
run             10000
Generated 0 of 1 mixed pair_coeff terms from geometric mixing rule
Per MPI rank memory allocation (min/avg/max) = 13.32 | 13.62 | 14.95 Mbytes
   Step          Temp          E_pair         E_mol          TotEng         Press     
    260000   299.32329      399.50655      18541.773      19369.548      116.99067    
    270000   295.53978      390.98705      18532.607      19346.449     -14.836365    
Loop time of 3.89532 on 64 procs for 10000 steps with 481 atoms

Performance: 11.090 ns/day, 2.164 hours/ns, 2567.182 timesteps/s, 1.235 Matom-step/s
100.0% CPU use with 64 MPI tasks x 1 OpenMP threads

MPI task timing breakdown:
Section |  min time  |  avg time  |  max time  |%varavg| %total
---------------------------------------------------------------
Pair    | 0.0034049  | 0.14533    | 1.28       |  73.7 |  3.73
Bond    | 0.0010687  | 0.15709    | 0.87384    |  66.5 |  4.03
Neigh   | 0.0065107  | 0.0074176  | 0.008042   |   0.5 |  0.19
Comm    | 1.4635     | 3.0089     | 3.5947     |  38.4 | 77.24
Output  | 0.0014798  | 0.0030728  | 0.0046245  |   1.8 |  0.08
Modify  | 0.13722    | 0.44584    | 1.9965     |  86.5 | 11.45
Other   |            | 0.1277     |            |       |  3.28

Nlocal:        7.51562 ave          35 max           0 min
Histogram: 42 4 2 0 0 1 2 4 7 2
Nghost:        1817.98 ave        2404 max        1291 min
Histogram: 16 0 0 0 32 0 0 0 0 16
Neighs:              0 ave           0 max           0 min
Histogram: 64 0 0 0 0 0 0 0 0 0

Total # of neighbors = 0
Ave neighs/atom = 0
Ave special neighs/atom = 15.567568
Neighbor list builds = 15
Dangerous builds = 0
fix             myat1 all ave/time 1000 10 10000 v_zave v_zdes file simulation_data/abpot/${cpt}.dat
fix             myat1 all ave/time 1000 10 10000 v_zave v_zdes file simulation_data/abpot/5.dat
run             50000
Generated 0 of 1 mixed pair_coeff terms from geometric mixing rule
Per MPI rank memory allocation (min/avg/max) = 13.32 | 13.62 | 14.95 Mbytes
   Step          Temp          E_pair         E_mol          TotEng         Press     
    270000   295.53978      390.98705      18532.607      19346.449     -14.836365    
    280000   286.58563      384.363        18540.092      19334.499     -198.24607    
    290000   312.90533      393.19862      18522.575      19363.475      6.7830207    
    300000   292.72043      401.60222      18550.784      19371.208      319.82634    
    310000   299.01695      384.48406      18536.621      19348.935     -125.11755    
    320000   306.82731      377.35508      18544.778      19361.138     -165.11528    
Loop time of 19.0006 on 64 procs for 50000 steps with 481 atoms

Performance: 11.368 ns/day, 2.111 hours/ns, 2631.503 timesteps/s, 1.266 Matom-step/s
100.0% CPU use with 64 MPI tasks x 1 OpenMP threads

MPI task timing breakdown:
Section |  min time  |  avg time  |  max time  |%varavg| %total
---------------------------------------------------------------
Pair    | 0.017675   | 0.72577    | 6.1851     | 164.3 |  3.82
Bond    | 0.0053046  | 0.78289    | 4.1213     | 147.9 |  4.12
Neigh   | 0.023852   | 0.027201   | 0.029511   |   0.9 |  0.14
Comm    | 7.3674     | 14.7       | 17.562     |  85.0 | 77.37
Output  | 0.0072892  | 0.015191   | 0.022764   |   4.0 |  0.08
Modify  | 0.66687    | 2.1443     | 9.5566     | 190.4 | 11.29
Other   |            | 0.6052     |            |       |  3.19

Nlocal:        7.51562 ave          33 max           0 min
Histogram: 42 4 2 0 0 0 1 7 6 2
Nghost:        1816.02 ave        2400 max        1291 min
Histogram: 16 0 0 0 32 0 0 0 0 16
Neighs:              0 ave           0 max           0 min
Histogram: 64 0 0 0 0 0 0 0 0 0

Total # of neighbors = 0
Ave neighs/atom = 0
Ave special neighs/atom = 15.567568
Neighbor list builds = 56
Dangerous builds = 0
unfix           myat1
next            cpt
jump            SELF loop
variable        zdes equal  -15+0.60*(${cpt}-1)
variable        zdes equal  -15+0.60*(6-1)
variable        zave equal xcm(H2,z)
fix             mytth2 H2 spring tether ${k1} 2.5 2.5 ${zdes} 0
fix             mytth2 H2 spring tether 1.5 2.5 2.5 ${zdes} 0
fix             mytth2 H2 spring tether 1.5 2.5 2.5 -12 0
run             10000
Generated 0 of 1 mixed pair_coeff terms from geometric mixing rule
Per MPI rank memory allocation (min/avg/max) = 13.32 | 13.62 | 14.95 Mbytes
   Step          Temp          E_pair         E_mol          TotEng         Press     
    320000   306.82731      377.35508      18544.778      19361.138     -165.11528    
    330000   326.50836      392.84085      18544.449      19404.455      42.833297    
Loop time of 3.98436 on 64 procs for 10000 steps with 481 atoms

Performance: 10.842 ns/day, 2.214 hours/ns, 2509.812 timesteps/s, 1.207 Matom-step/s
100.0% CPU use with 64 MPI tasks x 1 OpenMP threads

MPI task timing breakdown:
Section |  min time  |  avg time  |  max time  |%varavg| %total
---------------------------------------------------------------
Pair    | 0.003409   | 0.14637    | 1.3525     |  75.3 |  3.67
Bond    | 0.0010593  | 0.15728    | 0.9239     |  66.9 |  3.95
Neigh   | 0.0044124  | 0.0050168  | 0.005425   |   0.4 |  0.13
Comm    | 1.4506     | 3.0869     | 3.6973     |  40.1 | 77.47
Output  | 0.0014608  | 0.0030275  | 0.0045612  |   1.8 |  0.08
Modify  | 0.12906    | 0.46484    | 2.0969     |  91.3 | 11.67
Other   |            | 0.121      |            |       |  3.04

Nlocal:        7.51562 ave          38 max           0 min
Histogram: 43 3 2 0 0 3 4 3 5 1
Nghost:        1823.52 ave        2422 max        1286 min
Histogram: 16 0 0 0 32 0 0 0 0 16
Neighs:              0 ave           0 max           0 min
Histogram: 64 0 0 0 0 0 0 0 0 0

Total # of neighbors = 0
Ave neighs/atom = 0
Ave special neighs/atom = 15.567568
Neighbor list builds = 10
Dangerous builds = 0
fix             myat1 all ave/time 1000 10 10000 v_zave v_zdes file simulation_data/abpot/${cpt}.dat
fix             myat1 all ave/time 1000 10 10000 v_zave v_zdes file simulation_data/abpot/6.dat
run             50000
Generated 0 of 1 mixed pair_coeff terms from geometric mixing rule
Per MPI rank memory allocation (min/avg/max) = 13.32 | 13.62 | 14.95 Mbytes
   Step          Temp          E_pair         E_mol          TotEng         Press     
    330000   326.50836      392.84085      18544.449      19404.455      42.833297    
    340000   298.4314       382.49771      18568.158      19377.648     -359.85093    
    350000   329.76523      385.0354       18510.232      19367.092     -77.992657    
    360000   295.69552      385.14572      18538.906      19347.13      -218.1084     
    370000   274.25579      385.24038      18513.395      19291.037     -3.426299     
    380000   313.20409      393.28446      18517.628      19359.041      134.76496    
Loop time of 18.8933 on 64 procs for 50000 steps with 481 atoms

Performance: 11.433 ns/day, 2.099 hours/ns, 2646.445 timesteps/s, 1.273 Matom-step/s
100.0% CPU use with 64 MPI tasks x 1 OpenMP threads

MPI task timing breakdown:
Section |  min time  |  avg time  |  max time  |%varavg| %total
---------------------------------------------------------------
Pair    | 0.017083   | 0.72829    | 5.8706     | 164.8 |  3.85
Bond    | 0.0052987  | 0.78443    | 4.0948     | 148.8 |  4.15
Neigh   | 0.030215   | 0.034224   | 0.037103   |   1.0 |  0.18
Comm    | 7.5971     | 14.615     | 17.433     |  84.6 | 77.36
Output  | 0.0075291  | 0.01546    | 0.023033   |   4.0 |  0.08
Modify  | 0.66288    | 2.1063     | 9.4287     | 187.0 | 11.15
Other   |            | 0.6094     |            |       |  3.23

Nlocal:        7.51562 ave          37 max           0 min
Histogram: 41 6 1 0 0 1 7 4 2 2
Nghost:        1822.86 ave        2421 max        1287 min
Histogram: 16 0 0 0 32 0 0 0 0 16
Neighs:              0 ave           0 max           0 min
Histogram: 64 0 0 0 0 0 0 0 0 0

Total # of neighbors = 0
Ave neighs/atom = 0
Ave special neighs/atom = 15.567568
Neighbor list builds = 70
Dangerous builds = 0
unfix           myat1
next            cpt
jump            SELF loop
variable        zdes equal  -15+0.60*(${cpt}-1)
variable        zdes equal  -15+0.60*(7-1)
variable        zave equal xcm(H2,z)
fix             mytth2 H2 spring tether ${k1} 2.5 2.5 ${zdes} 0
fix             mytth2 H2 spring tether 1.5 2.5 2.5 ${zdes} 0
fix             mytth2 H2 spring tether 1.5 2.5 2.5 -11.4 0
run             10000
Generated 0 of 1 mixed pair_coeff terms from geometric mixing rule
Per MPI rank memory allocation (min/avg/max) = 13.32 | 13.62 | 14.95 Mbytes
   Step          Temp          E_pair         E_mol          TotEng         Press     
    380000   313.20409      393.28446      18517.628      19359.041      134.76496    
    390000   297.63248      392.86773      18543.708      19362.425      97.366381    
Loop time of 3.79789 on 64 procs for 10000 steps with 481 atoms

Performance: 11.375 ns/day, 2.110 hours/ns, 2633.040 timesteps/s, 1.266 Matom-step/s
100.0% CPU use with 64 MPI tasks x 1 OpenMP threads

MPI task timing breakdown:
Section |  min time  |  avg time  |  max time  |%varavg| %total
---------------------------------------------------------------
Pair    | 0.0034111  | 0.14623    | 1.2337     |  73.9 |  3.85
Bond    | 0.0010615  | 0.15692    | 0.8656     |  66.3 |  4.13
Neigh   | 0.004206   | 0.0048082  | 0.0052352  |   0.4 |  0.13
Comm    | 1.4414     | 2.9384     | 3.511      |  38.2 | 77.37
Output  | 0.0014308  | 0.0030636  | 0.0046528  |   1.8 |  0.08
Modify  | 0.12744    | 0.42706    | 1.9053     |  85.0 | 11.24
Other   |            | 0.1215     |            |       |  3.20

Nlocal:        7.51562 ave          37 max           0 min
Histogram: 42 6 0 0 0 2 6 2 5 1
Nghost:         1828.3 ave        2426 max        1287 min
Histogram: 16 0 0 0 32 0 0 0 0 16
Neighs:              0 ave           0 max           0 min
Histogram: 64 0 0 0 0 0 0 0 0 0

Total # of neighbors = 0
Ave neighs/atom = 0
Ave special neighs/atom = 15.567568
Neighbor list builds = 10
Dangerous builds = 0
fix             myat1 all ave/time 1000 10 10000 v_zave v_zdes file simulation_data/abpot/${cpt}.dat
fix             myat1 all ave/time 1000 10 10000 v_zave v_zdes file simulation_data/abpot/7.dat
run             50000
Generated 0 of 1 mixed pair_coeff terms from geometric mixing rule
Per MPI rank memory allocation (min/avg/max) = 13.32 | 13.62 | 14.95 Mbytes
   Step          Temp          E_pair         E_mol          TotEng         Press     
    390000   297.63248      392.86773      18543.708      19362.425      97.366381    
    400000   296.92375      368.91031      18545.134      19338.879     -561.9199     
    410000   280.12199      387.19098      18525.45       19313.437      87.681446    
    420000   291.65593      384.79193      18519.664      19321.754     -75.933033    
    430000   292.05288      375.8034       18538.753      19332.422     -314.11845    
    440000   297.29599      394.01484      18526.016      19345.398      129.20688    
Loop time of 18.9213 on 64 procs for 50000 steps with 481 atoms

Performance: 11.416 ns/day, 2.102 hours/ns, 2642.518 timesteps/s, 1.271 Matom-step/s
100.0% CPU use with 64 MPI tasks x 1 OpenMP threads

MPI task timing breakdown:
Section |  min time  |  avg time  |  max time  |%varavg| %total
---------------------------------------------------------------
Pair    | 0.016998   | 0.73052    | 6.0692     | 166.0 |  3.86
Bond    | 0.0053361  | 0.78481    | 4.0608     | 148.4 |  4.15
Neigh   | 0.025696   | 0.029309   | 0.031727   |   1.0 |  0.15
Comm    | 7.465      | 14.665     | 17.465     |  84.5 | 77.50
Output  | 0.0074092  | 0.015408   | 0.023031   |   4.0 |  0.08
Modify  | 0.66415    | 2.0881     | 9.4738     | 186.9 | 11.04
Other   |            | 0.6084     |            |       |  3.22

Nlocal:        7.51562 ave          34 max           0 min
Histogram: 43 2 3 0 0 1 1 7 4 3
Nghost:        1824.92 ave        2416 max        1290 min
Histogram: 16 0 0 0 32 0 0 0 0 16
Neighs:              0 ave           0 max           0 min
Histogram: 64 0 0 0 0 0 0 0 0 0

Total # of neighbors = 0
Ave neighs/atom = 0
Ave special neighs/atom = 15.567568
Neighbor list builds = 60
Dangerous builds = 0
unfix           myat1
next            cpt
jump            SELF loop
variable        zdes equal  -15+0.60*(${cpt}-1)
variable        zdes equal  -15+0.60*(8-1)
variable        zave equal xcm(H2,z)
fix             mytth2 H2 spring tether ${k1} 2.5 2.5 ${zdes} 0
fix             mytth2 H2 spring tether 1.5 2.5 2.5 ${zdes} 0
fix             mytth2 H2 spring tether 1.5 2.5 2.5 -10.8 0
run             10000
Generated 0 of 1 mixed pair_coeff terms from geometric mixing rule
Per MPI rank memory allocation (min/avg/max) = 13.32 | 13.62 | 14.95 Mbytes
   Step          Temp          E_pair         E_mol          TotEng         Press     
    440000   297.29599      394.01484      18526.016      19345.398      129.20688    
    450000   303.89991      380.96092      18555.328      19371.106     -237.44873    
Loop time of 3.84769 on 64 procs for 10000 steps with 481 atoms

Performance: 11.228 ns/day, 2.138 hours/ns, 2598.960 timesteps/s, 1.250 Matom-step/s
100.0% CPU use with 64 MPI tasks x 1 OpenMP threads

MPI task timing breakdown:
Section |  min time  |  avg time  |  max time  |%varavg| %total
---------------------------------------------------------------
Pair    | 0.0034292  | 0.14597    | 1.2456     |  74.3 |  3.79
Bond    | 0.0010741  | 0.15686    | 0.85039    |  66.6 |  4.08
Neigh   | 0.0058918  | 0.0068661  | 0.0075123  |   0.6 |  0.18
Comm    | 1.5064     | 2.98       | 3.5514     |  38.4 | 77.45
Output  | 0.0015996  | 0.0031758  | 0.0047198  |   1.7 |  0.08
Modify  | 0.13485    | 0.43279    | 1.9496     |  85.4 | 11.25
Other   |            | 0.122      |            |       |  3.17

Nlocal:        7.51562 ave          33 max           0 min
Histogram: 43 2 3 0 0 0 2 6 3 5
Nghost:        1820.61 ave        2411 max        1292 min
Histogram: 16 0 0 0 32 0 0 0 0 16
Neighs:              0 ave           0 max           0 min
Histogram: 64 0 0 0 0 0 0 0 0 0

Total # of neighbors = 0
Ave neighs/atom = 0
Ave special neighs/atom = 15.567568
Neighbor list builds = 14
Dangerous builds = 0
fix             myat1 all ave/time 1000 10 10000 v_zave v_zdes file simulation_data/abpot/${cpt}.dat
fix             myat1 all ave/time 1000 10 10000 v_zave v_zdes file simulation_data/abpot/8.dat
run             50000
Generated 0 of 1 mixed pair_coeff terms from geometric mixing rule
Per MPI rank memory allocation (min/avg/max) = 13.32 | 13.62 | 14.95 Mbytes
   Step          Temp          E_pair         E_mol          TotEng         Press     
    450000   303.89991      380.96092      18555.328      19371.106     -237.44873    
    460000   275.53916      388.08514      18559.068      19341.392     -163.91779    
    470000   303.92005      398.22638      18525.759      19358.83       351.81591    
    480000   325.5757       380.08051      18541.759      19387.669     -237.94732    
    490000   307.15543      386.39511      18536.709      19362.579     -173.09085    
    500000   300.28783      396.34439      18510.383      19336.376      316.5967     
Loop time of 19.0017 on 64 procs for 50000 steps with 481 atoms

Performance: 11.367 ns/day, 2.111 hours/ns, 2631.346 timesteps/s, 1.266 Matom-step/s
100.0% CPU use with 64 MPI tasks x 1 OpenMP threads

MPI task timing breakdown:
Section |  min time  |  avg time  |  max time  |%varavg| %total
---------------------------------------------------------------
Pair    | 0.017079   | 0.72691    | 6.0433     | 163.6 |  3.83
Bond    | 0.0054127  | 0.78324    | 4.0289     | 147.5 |  4.12
Neigh   | 0.038362   | 0.043588   | 0.047172   |   1.2 |  0.23
Comm    | 7.6664     | 14.715     | 17.52      |  84.2 | 77.44
Output  | 0.0075166  | 0.015629   | 0.02328    |   4.1 |  0.08
Modify  | 0.66591    | 2.1084     | 9.424      | 188.5 | 11.10
Other   |            | 0.6088     |            |       |  3.20

Nlocal:        7.51562 ave          37 max           0 min
Histogram: 41 6 1 0 1 1 0 11 1 2
Nghost:        1823.52 ave        2416 max        1287 min
Histogram: 16 0 0 0 32 0 0 0 0 16
Neighs:              0 ave           0 max           0 min
Histogram: 64 0 0 0 0 0 0 0 0 0

Total # of neighbors = 0
Ave neighs/atom = 0
Ave special neighs/atom = 15.567568
Neighbor list builds = 89
Dangerous builds = 0
unfix           myat1
next            cpt
jump            SELF loop
variable        zdes equal  -15+0.60*(${cpt}-1)
variable        zdes equal  -15+0.60*(9-1)
variable        zave equal xcm(H2,z)
fix             mytth2 H2 spring tether ${k1} 2.5 2.5 ${zdes} 0
fix             mytth2 H2 spring tether 1.5 2.5 2.5 ${zdes} 0
fix             mytth2 H2 spring tether 1.5 2.5 2.5 -10.2 0
run             10000
Generated 0 of 1 mixed pair_coeff terms from geometric mixing rule
Per MPI rank memory allocation (min/avg/max) = 13.32 | 13.62 | 14.95 Mbytes
   Step          Temp          E_pair         E_mol          TotEng         Press     
    500000   300.28783      396.34439      18510.383      19336.376      316.5967     
    510000   299.49045      385.06402      18520.595      19334.167     -178.38939    
Loop time of 3.88041 on 64 procs for 10000 steps with 481 atoms

Performance: 11.133 ns/day, 2.156 hours/ns, 2577.049 timesteps/s, 1.240 Matom-step/s
100.0% CPU use with 64 MPI tasks x 1 OpenMP threads

MPI task timing breakdown:
Section |  min time  |  avg time  |  max time  |%varavg| %total
---------------------------------------------------------------
Pair    | 0.0034553  | 0.14609    | 1.2252     |  74.3 |  3.76
Bond    | 0.0010801  | 0.15721    | 0.81823    |  66.5 |  4.05
Neigh   | 0.010189   | 0.011526   | 0.012452   |   0.6 |  0.30
Comm    | 1.5572     | 3.0002     | 3.5775     |  38.7 | 77.32
Output  | 0.0014545  | 0.0030277  | 0.0045693  |   1.8 |  0.08
Modify  | 0.13624    | 0.44125    | 1.9865     |  87.2 | 11.37
Other   |            | 0.1211     |            |       |  3.12

Nlocal:        7.51562 ave          36 max           0 min
Histogram: 40 8 0 0 0 1 2 7 5 1
Nghost:        1821.55 ave        2416 max        1288 min
Histogram: 16 0 0 0 32 0 0 0 0 16
Neighs:              0 ave           0 max           0 min
Histogram: 64 0 0 0 0 0 0 0 0 0

Total # of neighbors = 0
Ave neighs/atom = 0
Ave special neighs/atom = 15.567568
Neighbor list builds = 23
Dangerous builds = 0
fix             myat1 all ave/time 1000 10 10000 v_zave v_zdes file simulation_data/abpot/${cpt}.dat
fix             myat1 all ave/time 1000 10 10000 v_zave v_zdes file simulation_data/abpot/9.dat
run             50000
Generated 0 of 1 mixed pair_coeff terms from geometric mixing rule
Per MPI rank memory allocation (min/avg/max) = 13.32 | 13.62 | 14.95 Mbytes
   Step          Temp          E_pair         E_mol          TotEng         Press     
    510000   299.49045      385.06402      18520.595      19334.167     -178.38939    
    520000   296.84135      375.59275      18515.725      19316.035     -390.86237    
    530000   296.8906       395.62713      18528.777      19349.192      104.72447    
    540000   302.93053      385.79841      18541.773      19361.001      38.160383    
    550000   300.86749      380.76423      18546.107      19357.349     -218.41314    
    560000   287.84984      390.83231      18517.672      19320.357      83.890304    
Loop time of 19.7215 on 64 procs for 50000 steps with 481 atoms

Performance: 10.953 ns/day, 2.191 hours/ns, 2535.307 timesteps/s, 1.219 Matom-step/s
100.0% CPU use with 64 MPI tasks x 1 OpenMP threads

MPI task timing breakdown:
Section |  min time  |  avg time  |  max time  |%varavg| %total
---------------------------------------------------------------
Pair    | 0.017549   | 0.73086    | 6.4128     | 165.5 |  3.71
Bond    | 0.0053676  | 0.7854     | 4.2741     | 147.8 |  3.98
Neigh   | 0.04929    | 0.05557    | 0.059787   |   1.2 |  0.28
Comm    | 7.6646     | 15.263     | 18.229     |  87.9 | 77.40
Output  | 0.0073025  | 0.015277   | 0.022929   |   4.0 |  0.08
Modify  | 0.67925    | 2.2624     | 10.224     | 201.4 | 11.47
Other   |            | 0.6085     |            |       |  3.09

Nlocal:        7.51562 ave          37 max           0 min
Histogram: 40 8 0 0 0 2 3 7 3 1
Nghost:         1822.2 ave        2414 max        1287 min
Histogram: 16 0 0 0 32 0 0 0 0 16
Neighs:              0 ave           0 max           0 min
Histogram: 64 0 0 0 0 0 0 0 0 0

Total # of neighbors = 0
Ave neighs/atom = 0
Ave special neighs/atom = 15.567568
Neighbor list builds = 108
Dangerous builds = 0
unfix           myat1
next            cpt
jump            SELF loop
variable        zdes equal  -15+0.60*(${cpt}-1)
variable        zdes equal  -15+0.60*(10-1)
variable        zave equal xcm(H2,z)
fix             mytth2 H2 spring tether ${k1} 2.5 2.5 ${zdes} 0
fix             mytth2 H2 spring tether 1.5 2.5 2.5 ${zdes} 0
fix             mytth2 H2 spring tether 1.5 2.5 2.5 -9.6 0
run             10000
Generated 0 of 1 mixed pair_coeff terms from geometric mixing rule
Per MPI rank memory allocation (min/avg/max) = 13.32 | 13.62 | 14.95 Mbytes
   Step          Temp          E_pair         E_mol          TotEng         Press     
    560000   287.84984      390.83231      18517.672      19320.357      83.890304    
    570000   275.42613      391.88758      18529.523      19315.487     -81.517171    
Loop time of 3.7259 on 64 procs for 10000 steps with 481 atoms

Performance: 11.595 ns/day, 2.070 hours/ns, 2683.912 timesteps/s, 1.291 Matom-step/s
100.0% CPU use with 64 MPI tasks x 1 OpenMP threads

MPI task timing breakdown:
Section |  min time  |  avg time  |  max time  |%varavg| %total
---------------------------------------------------------------
Pair    | 0.0034655  | 0.14533    | 1.1336     |  72.3 |  3.90
Bond    | 0.0010745  | 0.15564    | 0.76634    |  65.4 |  4.18
Neigh   | 0.0054588  | 0.0062349  | 0.0067333  |   0.5 |  0.17
Comm    | 1.5797     | 2.8771     | 3.4391     |  37.1 | 77.22
Output  | 0.0014504  | 0.0030168  | 0.004558   |   1.8 |  0.08
Modify  | 0.13045    | 0.41774    | 1.835      |  82.6 | 11.21
Other   |            | 0.1209     |            |       |  3.24

Nlocal:        7.51562 ave          33 max           0 min
Histogram: 41 6 1 0 0 0 4 4 1 7
Nghost:        1821.64 ave        2411 max        1291 min
Histogram: 16 0 0 0 32 0 0 0 0 16
Neighs:              0 ave           0 max           0 min
Histogram: 64 0 0 0 0 0 0 0 0 0

Total # of neighbors = 0
Ave neighs/atom = 0
Ave special neighs/atom = 15.567568
Neighbor list builds = 13
Dangerous builds = 0
fix             myat1 all ave/time 1000 10 10000 v_zave v_zdes file simulation_data/abpot/${cpt}.dat
fix             myat1 all ave/time 1000 10 10000 v_zave v_zdes file simulation_data/abpot/10.dat
run             50000
Generated 0 of 1 mixed pair_coeff terms from geometric mixing rule
Per MPI rank memory allocation (min/avg/max) = 13.32 | 13.62 | 14.95 Mbytes
   Step          Temp          E_pair         E_mol          TotEng         Press     
    570000   275.42613      391.88758      18529.523      19315.487     -81.517171    
    580000   274.7388       381.56433      18551.025      19325.682     -269.65554    
    590000   294.19723      392.18582      18531.649      19344.769     -142.74672    
    600000   301.54382      387.02981      18542.335      19360.81      -54.20717     
    610000   323.49995      387.95076      18556.259      19407.07      -86.250253    
    620000   310.33883      389.67487      18542.386      19376.09       139.84651    
Loop time of 18.4237 on 64 procs for 50000 steps with 481 atoms

Performance: 11.724 ns/day, 2.047 hours/ns, 2713.892 timesteps/s, 1.305 Matom-step/s
100.0% CPU use with 64 MPI tasks x 1 OpenMP threads

MPI task timing breakdown:
Section |  min time  |  avg time  |  max time  |%varavg| %total
---------------------------------------------------------------
Pair    | 0.017247   | 0.7269     | 5.8364     | 161.7 |  3.95
Bond    | 0.0053083  | 0.78058    | 3.8446     | 146.6 |  4.24
Neigh   | 0.030614   | 0.035029   | 0.038059   |   1.1 |  0.19
Comm    | 7.477      | 14.228     | 16.964     |  81.8 | 77.23
Output  | 0.0073468  | 0.015459   | 0.023179   |   4.1 |  0.08
Modify  | 0.66728    | 2.0299     | 8.85       | 178.8 | 11.02
Other   |            | 0.6075     |            |       |  3.30

Nlocal:        7.51562 ave          35 max           0 min
Histogram: 41 6 1 0 0 0 3 5 6 2
Nghost:        1822.77 ave        2414 max        1289 min
Histogram: 16 0 0 0 32 0 0 0 0 16
Neighs:              0 ave           0 max           0 min
Histogram: 64 0 0 0 0 0 0 0 0 0

Total # of neighbors = 0
Ave neighs/atom = 0
Ave special neighs/atom = 15.567568
Neighbor list builds = 75
Dangerous builds = 0
unfix           myat1
next            cpt
jump            SELF loop
variable        zdes equal  -15+0.60*(${cpt}-1)
variable        zdes equal  -15+0.60*(11-1)
variable        zave equal xcm(H2,z)
fix             mytth2 H2 spring tether ${k1} 2.5 2.5 ${zdes} 0
fix             mytth2 H2 spring tether 1.5 2.5 2.5 ${zdes} 0
fix             mytth2 H2 spring tether 1.5 2.5 2.5 -9 0
run             10000
Generated 0 of 1 mixed pair_coeff terms from geometric mixing rule
Per MPI rank memory allocation (min/avg/max) = 13.32 | 13.62 | 14.95 Mbytes
   Step          Temp          E_pair         E_mol          TotEng         Press     
    620000   310.33883      389.67487      18542.386      19376.09       139.84651    
    630000   316.09388      390.05284      18522.471      19364.788      108.62134    
Loop time of 3.73565 on 64 procs for 10000 steps with 481 atoms

Performance: 11.564 ns/day, 2.075 hours/ns, 2676.908 timesteps/s, 1.288 Matom-step/s
100.0% CPU use with 64 MPI tasks x 1 OpenMP threads

MPI task timing breakdown:
Section |  min time  |  avg time  |  max time  |%varavg| %total
---------------------------------------------------------------
Pair    | 0.0033355  | 0.14466    | 1.1952     |  72.6 |  3.87
Bond    | 0.0010563  | 0.15533    | 0.76559    |  65.4 |  4.16
Neigh   | 0.0045953  | 0.0052697  | 0.0057255  |   0.4 |  0.14
Comm    | 1.5065     | 2.8937     | 3.4411     |  37.3 | 77.46
Output  | 0.0014031  | 0.0029656  | 0.0045022  |   1.8 |  0.08
Modify  | 0.13673    | 0.41301    | 1.8495     |  83.5 | 11.06
Other   |            | 0.1207     |            |       |  3.23

Nlocal:        7.51562 ave          33 max           0 min
Histogram: 40 8 0 0 0 0 3 2 5 6
Nghost:        1817.42 ave        2411 max        1292 min
Histogram: 16 0 0 0 32 0 0 0 0 16
Neighs:              0 ave           0 max           0 min
Histogram: 64 0 0 0 0 0 0 0 0 0

Total # of neighbors = 0
Ave neighs/atom = 0
Ave special neighs/atom = 15.567568
Neighbor list builds = 11
Dangerous builds = 0
fix             myat1 all ave/time 1000 10 10000 v_zave v_zdes file simulation_data/abpot/${cpt}.dat
fix             myat1 all ave/time 1000 10 10000 v_zave v_zdes file simulation_data/abpot/11.dat
run             50000
Generated 0 of 1 mixed pair_coeff terms from geometric mixing rule
Per MPI rank memory allocation (min/avg/max) = 13.32 | 13.62 | 14.95 Mbytes
   Step          Temp          E_pair         E_mol          TotEng         Press     
    630000   316.09388      390.05284      18522.471      19364.788      108.62134    
    640000   286.89032      386.15687      18534.727      19331.363     -114.79462    
    650000   292.32553      392.23021      18504.523      19315.009      33.536454    
    660000   302.40533      386.01807      18527.972      19346.668     -26.617849    
    670000   298.07988      390.05593      18562.032      19378.577     -36.068477    
    680000   301.87066      400.96323      18539.416      19372.292      254.05122    
Loop time of 18.6877 on 64 procs for 50000 steps with 481 atoms

Performance: 11.558 ns/day, 2.076 hours/ns, 2675.558 timesteps/s, 1.287 Matom-step/s
100.0% CPU use with 64 MPI tasks x 1 OpenMP threads

MPI task timing breakdown:
Section |  min time  |  avg time  |  max time  |%varavg| %total
---------------------------------------------------------------
Pair    | 0.017233   | 0.72997    | 6.0138     | 163.7 |  3.91
Bond    | 0.0053151  | 0.78117    | 4.1633     | 147.5 |  4.18
Neigh   | 0.032469   | 0.037023   | 0.040202   |   1.1 |  0.20
Comm    | 7.4141     | 14.477     | 17.241     |  83.1 | 77.47
Output  | 0.0072369  | 0.015302   | 0.022972   |   4.1 |  0.08
Modify  | 0.65112    | 2.0429     | 9.1122     | 183.1 | 10.93
Other   |            | 0.6047     |            |       |  3.24

Nlocal:        7.51562 ave          36 max           0 min
Histogram: 42 6 0 0 0 0 7 3 5 1
Nghost:        1825.11 ave        2426 max        1288 min
Histogram: 16 0 0 0 32 0 0 0 0 16
Neighs:              0 ave           0 max           0 min
Histogram: 64 0 0 0 0 0 0 0 0 0

Total # of neighbors = 0
Ave neighs/atom = 0
Ave special neighs/atom = 15.567568
Neighbor list builds = 78
Dangerous builds = 0
unfix           myat1
next            cpt
jump            SELF loop
variable        zdes equal  -15+0.60*(${cpt}-1)
variable        zdes equal  -15+0.60*(12-1)
variable        zave equal xcm(H2,z)
fix             mytth2 H2 spring tether ${k1} 2.5 2.5 ${zdes} 0
fix             mytth2 H2 spring tether 1.5 2.5 2.5 ${zdes} 0
fix             mytth2 H2 spring tether 1.5 2.5 2.5 -8.4 0
run             10000
Generated 0 of 1 mixed pair_coeff terms from geometric mixing rule
Per MPI rank memory allocation (min/avg/max) = 13.32 | 13.62 | 14.95 Mbytes
   Step          Temp          E_pair         E_mol          TotEng         Press     
    680000   301.87066      400.96323      18539.416      19372.292      254.05122    
    690000   306.1583       394.44805      18525.504      19358          101.04195    
Loop time of 3.79274 on 64 procs for 10000 steps with 481 atoms

Performance: 11.390 ns/day, 2.107 hours/ns, 2636.615 timesteps/s, 1.268 Matom-step/s
100.0% CPU use with 64 MPI tasks x 1 OpenMP threads

MPI task timing breakdown:
Section |  min time  |  avg time  |  max time  |%varavg| %total
---------------------------------------------------------------
Pair    | 0.003533   | 0.14791    | 1.1963     |  73.9 |  3.90
Bond    | 0.0010553  | 0.15695    | 0.82012    |  66.2 |  4.14
Neigh   | 0.0072782  | 0.008274   | 0.0090016  |   0.5 |  0.22
Comm    | 1.537      | 2.9402     | 3.5008     |  38.2 | 77.52
Output  | 0.0014312  | 0.0030119  | 0.0045635  |   1.8 |  0.08
Modify  | 0.13303    | 0.4153     | 1.9024     |  85.5 | 10.95
Other   |            | 0.1211     |            |       |  3.19

Nlocal:        7.51562 ave          37 max           0 min
Histogram: 40 8 0 0 0 3 5 2 5 1
Nghost:        1820.89 ave        2414 max        1287 min
Histogram: 16 0 0 0 32 0 0 0 0 16
Neighs:              0 ave           0 max           0 min
Histogram: 64 0 0 0 0 0 0 0 0 0

Total # of neighbors = 0
Ave neighs/atom = 0
Ave special neighs/atom = 15.567568
Neighbor list builds = 17
Dangerous builds = 0
fix             myat1 all ave/time 1000 10 10000 v_zave v_zdes file simulation_data/abpot/${cpt}.dat
fix             myat1 all ave/time 1000 10 10000 v_zave v_zdes file simulation_data/abpot/12.dat
run             50000
Generated 0 of 1 mixed pair_coeff terms from geometric mixing rule
Per MPI rank memory allocation (min/avg/max) = 13.32 | 13.62 | 14.95 Mbytes
   Step          Temp          E_pair         E_mol          TotEng         Press     
    690000   306.1583       394.44805      18525.504      19358          101.04195    
    700000   280.31932      388.11955      18526.042      19315.24      -166.44122    
    710000   290.22846      394.82088      18548.304      19358.38      -67.800053    
    720000   294.64137      389.61092      18557.732      19368.913     -249.54128    
    730000   309.60215      396.49785      18541.772      19381.245      141.9354     
    740000   288.53794      398.55051      18542.299      19353.686      139.19259    
Loop time of 18.2094 on 64 procs for 50000 steps with 481 atoms

Performance: 11.862 ns/day, 2.023 hours/ns, 2745.831 timesteps/s, 1.321 Matom-step/s
100.0% CPU use with 64 MPI tasks x 1 OpenMP threads

MPI task timing breakdown:
Section |  min time  |  avg time  |  max time  |%varavg| %total
---------------------------------------------------------------
Pair    | 0.017287   | 0.73251    | 5.6961     | 162.4 |  4.02
Bond    | 0.0052929  | 0.77727    | 3.7844     | 145.8 |  4.27
Neigh   | 0.035603   | 0.040686   | 0.044242   |   1.2 |  0.22
Comm    | 7.5587     | 14.056     | 16.748     |  81.8 | 77.19
Output  | 0.0071863  | 0.015797   | 0.024429   |   4.5 |  0.09
Modify  | 0.66389    | 1.9811     | 8.7481     | 177.6 | 10.88
Other   |            | 0.6058     |            |       |  3.33

Nlocal:        7.51562 ave          36 max           0 min
Histogram: 44 3 1 0 0 0 5 4 5 2
Nghost:        1824.08 ave        2418 max        1288 min
Histogram: 16 0 0 0 32 0 0 0 0 16
Neighs:              0 ave           0 max           0 min
Histogram: 64 0 0 0 0 0 0 0 0 0

Total # of neighbors = 0
Ave neighs/atom = 0
Ave special neighs/atom = 15.567568
Neighbor list builds = 87
Dangerous builds = 0
unfix           myat1
next            cpt
jump            SELF loop
variable        zdes equal  -15+0.60*(${cpt}-1)
variable        zdes equal  -15+0.60*(13-1)
variable        zave equal xcm(H2,z)
fix             mytth2 H2 spring tether ${k1} 2.5 2.5 ${zdes} 0
fix             mytth2 H2 spring tether 1.5 2.5 2.5 ${zdes} 0
fix             mytth2 H2 spring tether 1.5 2.5 2.5 -7.8 0
run             10000
Generated 0 of 1 mixed pair_coeff terms from geometric mixing rule
Per MPI rank memory allocation (min/avg/max) = 13.32 | 13.62 | 14.95 Mbytes
   Step          Temp          E_pair         E_mol          TotEng         Press     
    740000   288.53794      398.55051      18542.299      19353.686      139.19259    
    750000   273.56351      394.01793      18530.243      19315.673      78.117577    
Loop time of 3.61738 on 64 procs for 10000 steps with 481 atoms

Performance: 11.942 ns/day, 2.010 hours/ns, 2764.428 timesteps/s, 1.330 Matom-step/s
100.0% CPU use with 64 MPI tasks x 1 OpenMP threads

MPI task timing breakdown:
Section |  min time  |  avg time  |  max time  |%varavg| %total
---------------------------------------------------------------
Pair    | 0.0035633  | 0.14527    | 1.0488     |  71.2 |  4.02
Bond    | 0.0010591  | 0.1553     | 0.75555    |  65.0 |  4.29
Neigh   | 0.0084143  | 0.0096929  | 0.010531   |   0.6 |  0.27
Comm    | 1.5907     | 2.7838     | 3.318      |  35.8 | 76.96
Output  | 0.0014413  | 0.0030104  | 0.0045457  |   1.8 |  0.08
Modify  | 0.13773    | 0.39862    | 1.6952     |  77.2 | 11.02
Other   |            | 0.1217     |            |       |  3.37

Nlocal:        7.51562 ave          33 max           0 min
Histogram: 42 5 1 0 0 0 2 4 6 4
Nghost:        1824.92 ave        2420 max        1291 min
Histogram: 16 0 0 0 32 0 0 0 0 16
Neighs:              0 ave           0 max           0 min
Histogram: 64 0 0 0 0 0 0 0 0 0

Total # of neighbors = 0
Ave neighs/atom = 0
Ave special neighs/atom = 15.567568
Neighbor list builds = 21
Dangerous builds = 0
fix             myat1 all ave/time 1000 10 10000 v_zave v_zdes file simulation_data/abpot/${cpt}.dat
fix             myat1 all ave/time 1000 10 10000 v_zave v_zdes file simulation_data/abpot/13.dat
run             50000
Generated 0 of 1 mixed pair_coeff terms from geometric mixing rule
Per MPI rank memory allocation (min/avg/max) = 13.32 | 13.62 | 14.95 Mbytes
   Step          Temp          E_pair         E_mol          TotEng         Press     
    750000   273.56351      394.01793      18530.243      19315.673      78.117577    
    760000   304.33275      394.67826      18526.546      19356.66      -71.975362    
    770000   305.28355      396.88467      18538.963      19372.644      22.985863    
    780000   295.60373      394.83946      18537.134      19354.92       97.427245    
    790000   284.47995      379.9061       18544.615      19331.552     -398.97205    
    800000   304.65528      394.28297      18539.926      19370.107      77.668573    
Loop time of 18.512 on 64 procs for 50000 steps with 481 atoms

Performance: 11.668 ns/day, 2.057 hours/ns, 2700.955 timesteps/s, 1.299 Matom-step/s
100.0% CPU use with 64 MPI tasks x 1 OpenMP threads

MPI task timing breakdown:
Section |  min time  |  avg time  |  max time  |%varavg| %total
---------------------------------------------------------------
Pair    | 0.017749   | 0.73259    | 5.5298     | 162.1 |  3.96
Bond    | 0.0053095  | 0.78031    | 3.8865     | 146.7 |  4.22
Neigh   | 0.043183   | 0.049212   | 0.053432   |   1.3 |  0.27
Comm    | 7.9119     | 14.301     | 17.059     |  82.6 | 77.26
Output  | 0.0074227  | 0.015367   | 0.022961   |   4.0 |  0.08
Modify  | 0.65121    | 2.0287     | 9.0506     | 182.0 | 10.96
Other   |            | 0.6043     |            |       |  3.26

Nlocal:        7.51562 ave          32 max           0 min
Histogram: 40 8 0 0 0 0 0 1 11 4
Nghost:        1822.86 ave        2412 max        1292 min
Histogram: 16 0 0 0 32 0 0 0 0 16
Neighs:              0 ave           0 max           0 min
Histogram: 64 0 0 0 0 0 0 0 0 0

Total # of neighbors = 0
Ave neighs/atom = 0
Ave special neighs/atom = 15.567568
Neighbor list builds = 104
Dangerous builds = 0
unfix           myat1
next            cpt
jump            SELF loop
variable        zdes equal  -15+0.60*(${cpt}-1)
variable        zdes equal  -15+0.60*(14-1)
variable        zave equal xcm(H2,z)
fix             mytth2 H2 spring tether ${k1} 2.5 2.5 ${zdes} 0
fix             mytth2 H2 spring tether 1.5 2.5 2.5 ${zdes} 0
fix             mytth2 H2 spring tether 1.5 2.5 2.5 -7.2 0
run             10000
Generated 0 of 1 mixed pair_coeff terms from geometric mixing rule
Per MPI rank memory allocation (min/avg/max) = 13.32 | 13.62 | 14.95 Mbytes
   Step          Temp          E_pair         E_mol          TotEng         Press     
    800000   304.65528      394.28297      18539.926      19370.107      77.668573    
    810000   325.47976      387.2521       18538.144      19391.089     -220.33333    
Loop time of 3.83648 on 64 procs for 10000 steps with 481 atoms

Performance: 11.260 ns/day, 2.131 hours/ns, 2606.558 timesteps/s, 1.254 Matom-step/s
100.0% CPU use with 64 MPI tasks x 1 OpenMP threads

MPI task timing breakdown:
Section |  min time  |  avg time  |  max time  |%varavg| %total
---------------------------------------------------------------
Pair    | 0.0035064  | 0.14646    | 1.1677     |  72.6 |  3.82
Bond    | 0.0010577  | 0.15597    | 0.81276    |  65.5 |  4.07
Neigh   | 0.011459   | 0.013118   | 0.014159   |   0.6 |  0.34
Comm    | 1.6008     | 2.9587     | 3.5337     |  38.2 | 77.12
Output  | 0.0014238  | 0.0029922  | 0.0045406  |   1.8 |  0.08
Modify  | 0.13667    | 0.43846    | 1.94       |  86.5 | 11.43
Other   |            | 0.1208     |            |       |  3.15

Nlocal:        7.51562 ave          33 max           0 min
Histogram: 40 8 0 0 0 0 1 6 4 5
Nghost:        1822.02 ave        2411 max        1292 min
Histogram: 16 0 0 0 32 0 0 0 0 16
Neighs:              0 ave           0 max           0 min
Histogram: 64 0 0 0 0 0 0 0 0 0

Total # of neighbors = 0
Ave neighs/atom = 0
Ave special neighs/atom = 15.567568
Neighbor list builds = 27
Dangerous builds = 0
fix             myat1 all ave/time 1000 10 10000 v_zave v_zdes file simulation_data/abpot/${cpt}.dat
fix             myat1 all ave/time 1000 10 10000 v_zave v_zdes file simulation_data/abpot/14.dat
run             50000
Generated 0 of 1 mixed pair_coeff terms from geometric mixing rule
Per MPI rank memory allocation (min/avg/max) = 13.32 | 13.62 | 14.95 Mbytes
   Step          Temp          E_pair         E_mol          TotEng         Press     
    810000   325.47976      387.2521       18538.144      19391.089     -220.33333    
    820000   313.65698      373.8177       18546.215      19368.809     -458.27981    
    830000   294.41895      400.26502      18527.521      19349.038      226.94754    
    840000   306.80913      390.11732      18540.807      19369.903     -66.214047    
    850000   327.05544      388.10862      18537.634      19393.69      -3.2837243    
    860000   301.39056      385.13555      18568.562      19384.924     -173.75118    
Loop time of 18.6401 on 64 procs for 50000 steps with 481 atoms

Performance: 11.588 ns/day, 2.071 hours/ns, 2682.383 timesteps/s, 1.290 Matom-step/s
100.0% CPU use with 64 MPI tasks x 1 OpenMP threads

MPI task timing breakdown:
Section |  min time  |  avg time  |  max time  |%varavg| %total
---------------------------------------------------------------
Pair    | 0.017895   | 0.73397    | 5.8007     | 163.0 |  3.94
Bond    | 0.0054473  | 0.78122    | 3.9877     | 146.8 |  4.19
Neigh   | 0.054244   | 0.061906   | 0.0672     |   1.4 |  0.33
Comm    | 7.5288     | 14.395     | 17.147     |  82.9 | 77.22
Output  | 0.0071119  | 0.01511    | 0.022788   |   4.1 |  0.08
Modify  | 0.67526    | 2.0441     | 9.0411     | 182.6 | 10.97
Other   |            | 0.6092     |            |       |  3.27

Nlocal:        7.51562 ave          36 max           0 min
Histogram: 42 5 1 0 1 0 5 3 4 3
Nghost:        1822.02 ave        2409 max        1288 min
Histogram: 16 0 0 0 32 0 0 0 0 16
Neighs:              0 ave           0 max           0 min
Histogram: 64 0 0 0 0 0 0 0 0 0

Total # of neighbors = 0
Ave neighs/atom = 0
Ave special neighs/atom = 15.567568
Neighbor list builds = 131
Dangerous builds = 0
unfix           myat1
next            cpt
jump            SELF loop
variable        zdes equal  -15+0.60*(${cpt}-1)
variable        zdes equal  -15+0.60*(15-1)
variable        zave equal xcm(H2,z)
fix             mytth2 H2 spring tether ${k1} 2.5 2.5 ${zdes} 0
fix             mytth2 H2 spring tether 1.5 2.5 2.5 ${zdes} 0
fix             mytth2 H2 spring tether 1.5 2.5 2.5 -6.6 0
run             10000
Generated 0 of 1 mixed pair_coeff terms from geometric mixing rule
Per MPI rank memory allocation (min/avg/max) = 13.32 | 13.62 | 14.95 Mbytes
   Step          Temp          E_pair         E_mol          TotEng         Press     
    860000   301.39056      385.13555      18568.562      19384.924     -173.75118    
    870000   296.24001      386.93917      18532.785      19343.581     -238.90162    
Loop time of 3.56009 on 64 procs for 10000 steps with 481 atoms

Performance: 12.135 ns/day, 1.978 hours/ns, 2808.918 timesteps/s, 1.351 Matom-step/s
100.0% CPU use with 64 MPI tasks x 1 OpenMP threads

MPI task timing breakdown:
Section |  min time  |  avg time  |  max time  |%varavg| %total
---------------------------------------------------------------
Pair    | 0.0035084  | 0.14659    | 1.0866     |  72.7 |  4.12
Bond    | 0.0011032  | 0.15579    | 0.80288    |  65.8 |  4.38
Neigh   | 0.011378   | 0.013037   | 0.014165   |   0.7 |  0.37
Comm    | 1.468      | 2.745      | 3.2633     |  36.4 | 77.10
Output  | 0.0014436  | 0.0031572  | 0.0047756  |   1.9 |  0.09
Modify  | 0.13339    | 0.37577    | 1.6686     |  76.6 | 10.56
Other   |            | 0.1208     |            |       |  3.39

Nlocal:        7.51562 ave          38 max           0 min
Histogram: 43 4 1 1 0 1 6 4 1 3
Nghost:         1825.3 ave        2422 max        1286 min
Histogram: 16 0 0 0 32 0 0 0 0 16
Neighs:              0 ave           0 max           0 min
Histogram: 64 0 0 0 0 0 0 0 0 0

Total # of neighbors = 0
Ave neighs/atom = 0
Ave special neighs/atom = 15.567568
Neighbor list builds = 29
Dangerous builds = 0
fix             myat1 all ave/time 1000 10 10000 v_zave v_zdes file simulation_data/abpot/${cpt}.dat
fix             myat1 all ave/time 1000 10 10000 v_zave v_zdes file simulation_data/abpot/15.dat
run             50000
Generated 0 of 1 mixed pair_coeff terms from geometric mixing rule
Per MPI rank memory allocation (min/avg/max) = 13.32 | 13.62 | 14.95 Mbytes
   Step          Temp          E_pair         E_mol          TotEng         Press     
    870000   296.24001      386.93917      18532.785      19343.581     -238.90162    
    880000   299.62154      391.82476      18515.348      19335.868     -51.387793    
    890000   296.95873      391.04573      18533.465      19349.396      19.148037    
    900000   299.14294      391.74896      18557.573      19377.333     -109.75662    
    910000   302.82039      398.33488      18531.995      19363.602      43.972418    
    920000   312.08359      391.89623      18526.645      19365.067     -51.473224    
Loop time of 17.4921 on 64 procs for 50000 steps with 481 atoms

Performance: 12.348 ns/day, 1.944 hours/ns, 2858.441 timesteps/s, 1.375 Matom-step/s
100.0% CPU use with 64 MPI tasks x 1 OpenMP threads

MPI task timing breakdown:
Section |  min time  |  avg time  |  max time  |%varavg| %total
---------------------------------------------------------------
Pair    | 0.01776    | 0.72882    | 5.2642     | 160.5 |  4.17
Bond    | 0.0054008  | 0.77672    | 3.8386     | 146.3 |  4.44
Neigh   | 0.057842   | 0.066486   | 0.072532   |   1.6 |  0.38
Comm    | 7.0909     | 13.466     | 15.971     |  79.5 | 76.98
Output  | 0.0073348  | 0.015271   | 0.022888   |   4.0 |  0.09
Modify  | 0.69131    | 1.8317     | 7.9345     | 164.8 | 10.47
Other   |            | 0.6074     |            |       |  3.47

Nlocal:        7.51562 ave          34 max           0 min
Histogram: 43 2 3 0 0 1 2 5 5 3
Nghost:        1817.52 ave        2400 max        1291 min
Histogram: 16 0 0 0 32 0 0 0 0 16
Neighs:              0 ave           0 max           0 min
Histogram: 64 0 0 0 0 0 0 0 0 0

Total # of neighbors = 0
Ave neighs/atom = 0
Ave special neighs/atom = 15.567568
Neighbor list builds = 148
Dangerous builds = 0
unfix           myat1
next            cpt
jump            SELF loop
variable        zdes equal  -15+0.60*(${cpt}-1)
variable        zdes equal  -15+0.60*(16-1)
variable        zave equal xcm(H2,z)
fix             mytth2 H2 spring tether ${k1} 2.5 2.5 ${zdes} 0
fix             mytth2 H2 spring tether 1.5 2.5 2.5 ${zdes} 0
fix             mytth2 H2 spring tether 1.5 2.5 2.5 -6 0
run             10000
Generated 0 of 1 mixed pair_coeff terms from geometric mixing rule
Per MPI rank memory allocation (min/avg/max) = 13.32 | 13.62 | 14.95 Mbytes
   Step          Temp          E_pair         E_mol          TotEng         Press     
    920000   312.08359      391.89623      18526.645      19365.067     -51.473224    
    930000   302.26091      393.96913      18531.235      19357.675      2.9864998    
Loop time of 3.57253 on 64 procs for 10000 steps with 481 atoms

Performance: 12.092 ns/day, 1.985 hours/ns, 2799.134 timesteps/s, 1.346 Matom-step/s
100.0% CPU use with 64 MPI tasks x 1 OpenMP threads

MPI task timing breakdown:
Section |  min time  |  avg time  |  max time  |%varavg| %total
---------------------------------------------------------------
Pair    | 0.0033686  | 0.1461     | 1.0587     |  71.9 |  4.09
Bond    | 0.0010866  | 0.15546    | 0.80602    |  65.5 |  4.35
Neigh   | 0.010445   | 0.011912   | 0.012936   |   0.6 |  0.33
Comm    | 1.4998     | 2.7583     | 3.2736     |  35.7 | 77.21
Output  | 0.0014536  | 0.0030255  | 0.0045674  |   1.8 |  0.08
Modify  | 0.13198    | 0.37674    | 1.6536     |  75.8 | 10.55
Other   |            | 0.121      |            |       |  3.39

Nlocal:        7.51562 ave          35 max           0 min
Histogram: 42 4 2 0 0 1 2 6 4 3
Nghost:        1817.98 ave        2408 max        1293 min
Histogram: 16 0 0 0 32 0 0 0 0 16
Neighs:              0 ave           0 max           0 min
Histogram: 64 0 0 0 0 0 0 0 0 0

Total # of neighbors = 0
Ave neighs/atom = 0
Ave special neighs/atom = 15.567568
Neighbor list builds = 26
Dangerous builds = 0
fix             myat1 all ave/time 1000 10 10000 v_zave v_zdes file simulation_data/abpot/${cpt}.dat
fix             myat1 all ave/time 1000 10 10000 v_zave v_zdes file simulation_data/abpot/16.dat
run             50000
Generated 0 of 1 mixed pair_coeff terms from geometric mixing rule
Per MPI rank memory allocation (min/avg/max) = 13.32 | 13.62 | 14.95 Mbytes
   Step          Temp          E_pair         E_mol          TotEng         Press     
    930000   302.26091      393.96913      18531.235      19357.675      2.9864998    
    940000   289.02762      393.40259      18518.62       19325.56      -4.9106398    
    950000   274.90586      382.75185      18532.303      19308.387     -376.04891    
    960000   297.61644      398.62419      18512.764      19337.215      191.01461    
    970000   307.47637      388.18814      18539.044      19367.166     -203.24518    
    980000   300.82249      395.55194      18557.421      19383.387     -49.256312    
Loop time of 18.5092 on 64 procs for 50000 steps with 481 atoms

Performance: 11.670 ns/day, 2.057 hours/ns, 2701.353 timesteps/s, 1.299 Matom-step/s
100.0% CPU use with 64 MPI tasks x 1 OpenMP threads

MPI task timing breakdown:
Section |  min time  |  avg time  |  max time  |%varavg| %total
---------------------------------------------------------------
Pair    | 0.017945   | 0.7343     | 5.6652     | 162.4 |  3.97
Bond    | 0.0054501  | 0.78027    | 3.8617     | 146.8 |  4.22
Neigh   | 0.056199   | 0.063998   | 0.069409   |   1.5 |  0.35
Comm    | 7.6081     | 14.277     | 17.007     |  82.5 | 77.14
Output  | 0.0072529  | 0.015184   | 0.022779   |   4.0 |  0.08
Modify  | 0.67316    | 2.0331     | 8.8979     | 180.5 | 10.98
Other   |            | 0.6052     |            |       |  3.27

Nlocal:        7.51562 ave          37 max           0 min
Histogram: 41 7 0 0 1 0 4 6 3 2
Nghost:        1814.14 ave        2391 max        1290 min
Histogram: 16 0 0 0 32 0 0 0 0 16
Neighs:              0 ave           0 max           0 min
Histogram: 64 0 0 0 0 0 0 0 0 0

Total # of neighbors = 0
Ave neighs/atom = 0
Ave special neighs/atom = 15.567568
Neighbor list builds = 135
Dangerous builds = 0
unfix           myat1
next            cpt
jump            SELF loop
variable        zdes equal  -15+0.60*(${cpt}-1)
variable        zdes equal  -15+0.60*(17-1)
variable        zave equal xcm(H2,z)
fix             mytth2 H2 spring tether ${k1} 2.5 2.5 ${zdes} 0
fix             mytth2 H2 spring tether 1.5 2.5 2.5 ${zdes} 0
fix             mytth2 H2 spring tether 1.5 2.5 2.5 -5.4 0
run             10000
Generated 0 of 1 mixed pair_coeff terms from geometric mixing rule
Per MPI rank memory allocation (min/avg/max) = 13.32 | 13.62 | 14.95 Mbytes
   Step          Temp          E_pair         E_mol          TotEng         Press     
    980000   300.82249      395.55194      18557.421      19383.387     -49.256312    
    990000   289.28254      405.53753      18557.584      19377.023      306.82124    
Loop time of 3.68315 on 64 procs for 10000 steps with 481 atoms

Performance: 11.729 ns/day, 2.046 hours/ns, 2715.068 timesteps/s, 1.306 Matom-step/s
100.0% CPU use with 64 MPI tasks x 1 OpenMP threads

MPI task timing breakdown:
Section |  min time  |  avg time  |  max time  |%varavg| %total
---------------------------------------------------------------
Pair    | 0.003421   | 0.14716    | 1.19       |  73.0 |  4.00
Bond    | 0.0010891  | 0.15613    | 0.78962    |  65.6 |  4.24
Neigh   | 0.0098743  | 0.011277   | 0.012286   |   0.6 |  0.31
Comm    | 1.4307     | 2.839      | 3.3912     |  37.2 | 77.08
[...]
Section |  min time  |  avg time  |  max time  |%varavg| %total
---------------------------------------------------------------
Pair    | 0.0034016  | 0.14583    | 1.1541     |  73.8 |  3.95
Bond    | 0.0010607  | 0.15683    | 0.82977    |  66.2 |  4.24
Neigh   | 0.0054015  | 0.0061755  | 0.0067243  |   0.5 |  0.17
Comm    | 1.5246     | 2.8556     | 3.4        |  37.0 | 77.27
Output  | 0.0014711  | 0.0039827  | 0.0064758  |   2.9 |  0.11
Modify  | 0.13539    | 0.40508    | 1.8054     |  80.2 | 10.96
Other   |            | 0.1223     |            |       |  3.31

Nlocal:        7.51562 ave          36 max           0 min
Histogram: 43 4 1 0 1 1 4 1 6 3
Nghost:        1816.67 ave        2399 max        1291 min
Histogram: 16 0 0 0 32 0 0 0 0 16
Neighs:              0 ave           0 max           0 min
Histogram: 64 0 0 0 0 0 0 0 0 0

Total # of neighbors = 0
Ave neighs/atom = 0
Ave special neighs/atom = 15.567568
Neighbor list builds = 13
Dangerous builds = 0
fix             myat1 all ave/time 1000 10 10000 v_zave v_zdes file simulation_data/abpot/${cpt}.dat
fix             myat1 all ave/time 1000 10 10000 v_zave v_zdes file simulation_data/abpot/47.dat
run             50000
Generated 0 of 1 mixed pair_coeff terms from geometric mixing rule
Per MPI rank memory allocation (min/avg/max) = 13.32 | 13.62 | 14.95 Mbytes
   Step          Temp          E_pair         E_mol          TotEng         Press     
   2790000   310.9204       377.44864      18545.662      19367.973     -282.27318    
   2800000   299.49886      389.43529      18534.257      19352.212      137.47334    
   2810000   284.29526      374.34536      18557.148      19338.26      -321.92537    
   2820000   294.11121      383.13933      18513.279      19317.229     -119.59089    
   2830000   307.07684      381.7824       18512.974      19334.118      21.976865    
   2840000   300.8746       383.86027      18517.377      19331.725      16.311489    
Loop time of 18.8563 on 64 procs for 50000 steps with 481 atoms

Performance: 11.455 ns/day, 2.095 hours/ns, 2651.628 timesteps/s, 1.275 Matom-step/s
100.0% CPU use with 64 MPI tasks x 1 OpenMP threads

MPI task timing breakdown:
Section |  min time  |  avg time  |  max time  |%varavg| %total
---------------------------------------------------------------
Pair    | 0.017197   | 0.72968    | 5.9545     | 165.8 |  3.87
Bond    | 0.0053993  | 0.78689    | 4.3253     | 148.7 |  4.17
Neigh   | 0.048786   | 0.055342   | 0.059841   |   1.3 |  0.29
Comm    | 7.9611     | 14.503     | 17.345     |  84.2 | 76.91
Output  | 0.0078326  | 0.015898   | 0.023543   |   4.0 |  0.08
Modify  | 0.69999    | 2.156      | 9.355      | 183.4 | 11.43
Other   |            | 0.6099     |            |       |  3.23

Nlocal:        7.51562 ave          37 max           0 min
Histogram: 43 4 1 0 2 1 2 7 1 3
Nghost:        1818.73 ave        2409 max        1287 min
Histogram: 16 0 0 0 32 0 0 0 0 16
Neighs:              0 ave           0 max           0 min
Histogram: 64 0 0 0 0 0 0 0 0 0

Total # of neighbors = 0
Ave neighs/atom = 0
Ave special neighs/atom = 15.567568
Neighbor list builds = 110
Dangerous builds = 0
unfix           myat1
next            cpt
jump            SELF loop
variable        zdes equal  -15+0.60*(${cpt}-1)
variable        zdes equal  -15+0.60*(48-1)
variable        zave equal xcm(H2,z)
fix             mytth2 H2 spring tether ${k1} 2.5 2.5 ${zdes} 0
fix             mytth2 H2 spring tether 1.5 2.5 2.5 ${zdes} 0
fix             mytth2 H2 spring tether 1.5 2.5 2.5 13.2 0
run             10000
Generated 0 of 1 mixed pair_coeff terms from geometric mixing rule
Per MPI rank memory allocation (min/avg/max) = 13.32 | 13.62 | 14.95 Mbytes
   Step          Temp          E_pair         E_mol          TotEng         Press     
   2840000   300.8746       383.86027      18517.377      19331.725      16.311489    
   2850000   313.3554       390.85806      18515.375      19354.578      213.43858    
Loop time of 3.74375 on 64 procs for 10000 steps with 481 atoms

Performance: 11.539 ns/day, 2.080 hours/ns, 2671.118 timesteps/s, 1.285 Matom-step/s
100.0% CPU use with 64 MPI tasks x 1 OpenMP threads

MPI task timing breakdown:
Section |  min time  |  avg time  |  max time  |%varavg| %total
---------------------------------------------------------------
Pair    | 0.0033376  | 0.14558    | 1.1868     |  73.4 |  3.89
Bond    | 0.0010797  | 0.15709    | 0.87504    |  66.2 |  4.20
Neigh   | 0.0087381  | 0.010035   | 0.010885   |   0.6 |  0.27
Comm    | 1.5717     | 2.889      | 3.4382     |  37.5 | 77.17
Output  | 0.0014795  | 0.0030703  | 0.0046308  |   1.8 |  0.08
Modify  | 0.13867    | 0.41449    | 1.8419     |  82.4 | 11.07
Other   |            | 0.1244     |            |       |  3.32

Nlocal:        7.51562 ave          40 max           0 min
Histogram: 43 4 1 0 2 2 3 6 2 1
Nghost:         1822.2 ave        2417 max        1284 min
Histogram: 16 0 0 0 32 0 0 0 0 16
Neighs:              0 ave           0 max           0 min
Histogram: 64 0 0 0 0 0 0 0 0 0

Total # of neighbors = 0
Ave neighs/atom = 0
Ave special neighs/atom = 15.567568
Neighbor list builds = 21
Dangerous builds = 0
fix             myat1 all ave/time 1000 10 10000 v_zave v_zdes file simulation_data/abpot/${cpt}.dat
fix             myat1 all ave/time 1000 10 10000 v_zave v_zdes file simulation_data/abpot/48.dat
run             50000
Generated 0 of 1 mixed pair_coeff terms from geometric mixing rule
Per MPI rank memory allocation (min/avg/max) = 13.32 | 13.62 | 14.95 Mbytes
   Step          Temp          E_pair         E_mol          TotEng         Press     
   2850000   313.3554       390.85806      18515.375      19354.578      213.43858    
   2860000   301.4216       389.15454      18525.592      19346.017      69.817506    
   2870000   298.03788      380.10166      18528.437      19334.968     -82.010113    
   2880000   289.15598      390.11183      18521.383      19325.216      55.028874    
   2890000   287.65067      399.77691      18491.272      19302.616      435.596      
   2900000   283.84027      382.80043      18542.551      19331.467     -69.813379    
Loop time of 18.6568 on 64 procs for 50000 steps with 481 atoms

Performance: 11.578 ns/day, 2.073 hours/ns, 2679.988 timesteps/s, 1.289 Matom-step/s
100.0% CPU use with 64 MPI tasks x 1 OpenMP threads

MPI task timing breakdown:
Section |  min time  |  avg time  |  max time  |%varavg| %total
---------------------------------------------------------------
Pair    | 0.017127   | 0.72259    | 5.7601     | 162.8 |  3.87
Bond    | 0.0053343  | 0.7831     | 4.3336     | 147.8 |  4.20
Neigh   | 0.034512   | 0.039403   | 0.042778   |   1.2 |  0.21
Comm    | 8.0927     | 14.414     | 17.171     |  82.8 | 77.26
Output  | 0.0075945  | 0.015588   | 0.023223   |   4.0 |  0.08
Modify  | 0.68752    | 2.0705     | 9.071      | 182.5 | 11.10
Other   |            | 0.6114     |            |       |  3.28

Nlocal:        7.51562 ave          41 max           0 min
Histogram: 43 4 2 0 1 3 4 3 3 1
Nghost:        1817.98 ave        2409 max        1290 min
Histogram: 16 0 0 0 32 0 0 0 0 16
Neighs:              0 ave           0 max           0 min
Histogram: 64 0 0 0 0 0 0 0 0 0

Total # of neighbors = 0
Ave neighs/atom = 0
Ave special neighs/atom = 15.567568
Neighbor list builds = 81
Dangerous builds = 0
unfix           myat1
next            cpt
jump            SELF loop
variable        zdes equal  -15+0.60*(${cpt}-1)
variable        zdes equal  -15+0.60*(49-1)
variable        zave equal xcm(H2,z)
fix             mytth2 H2 spring tether ${k1} 2.5 2.5 ${zdes} 0
fix             mytth2 H2 spring tether 1.5 2.5 2.5 ${zdes} 0
fix             mytth2 H2 spring tether 1.5 2.5 2.5 13.8 0
run             10000
Generated 0 of 1 mixed pair_coeff terms from geometric mixing rule
Per MPI rank memory allocation (min/avg/max) = 13.32 | 13.62 | 14.95 Mbytes
   Step          Temp          E_pair         E_mol          TotEng         Press     
   2900000   283.84027      382.80043      18542.551      19331.467     -69.813379    
   2910000   290.19961      381.102        18555.392      19351.708     -178.2578     
Loop time of 3.87825 on 64 procs for 10000 steps with 481 atoms

Performance: 11.139 ns/day, 2.155 hours/ns, 2578.480 timesteps/s, 1.240 Matom-step/s
100.0% CPU use with 64 MPI tasks x 1 OpenMP threads

MPI task timing breakdown:
Section |  min time  |  avg time  |  max time  |%varavg| %total
---------------------------------------------------------------
Pair    | 0.0033193  | 0.14627    | 1.2637     |  75.3 |  3.77
Bond    | 0.0010743  | 0.15742    | 0.86784    |  67.1 |  4.06
Neigh   | 0.0044304  | 0.0050159  | 0.0054272  |   0.4 |  0.13
Comm    | 1.5861     | 3.012      | 3.5863     |  39.2 | 77.66
Output  | 0.0014971  | 0.0030741  | 0.0046269  |   1.8 |  0.08
Modify  | 0.13822    | 0.43323    | 1.9909     |  88.4 | 11.17
Other   |            | 0.1213     |            |       |  3.13

Nlocal:        7.51562 ave          39 max           0 min
Histogram: 42 5 1 0 1 6 1 3 3 2
Nghost:        1817.05 ave        2402 max        1286 min
Histogram: 16 0 0 0 32 0 0 0 0 16
Neighs:              0 ave           0 max           0 min
Histogram: 64 0 0 0 0 0 0 0 0 0

Total # of neighbors = 0
Ave neighs/atom = 0
Ave special neighs/atom = 15.567568
Neighbor list builds = 10
Dangerous builds = 0
fix             myat1 all ave/time 1000 10 10000 v_zave v_zdes file simulation_data/abpot/${cpt}.dat
fix             myat1 all ave/time 1000 10 10000 v_zave v_zdes file simulation_data/abpot/49.dat
run             50000
Generated 0 of 1 mixed pair_coeff terms from geometric mixing rule
Per MPI rank memory allocation (min/avg/max) = 13.32 | 13.62 | 14.95 Mbytes
   Step          Temp          E_pair         E_mol          TotEng         Press     
   2910000   290.19961      381.102        18555.392      19351.708     -178.2578     
   2920000   282.1146       384.88484      18528.869      19317.4       -111.16361    
   2930000   300.74319      384.52266      18517.647      19332.47      -71.723787    
   2940000   315.77109      390.02678      18511.004      19352.832      89.290205    
   2950000   320.32574      386.09959      18535.682      19380.1       -25.507792    
   2960000   294.07867      382.76208      18524.193      19327.72      -44.00729     
Loop time of 19.1174 on 64 procs for 50000 steps with 481 atoms

Performance: 11.299 ns/day, 2.124 hours/ns, 2615.425 timesteps/s, 1.258 Matom-step/s
100.0% CPU use with 64 MPI tasks x 1 OpenMP threads

MPI task timing breakdown:
Section |  min time  |  avg time  |  max time  |%varavg| %total
---------------------------------------------------------------
Pair    | 0.016827   | 0.72653    | 6.1324     | 165.5 |  3.80
Bond    | 0.0053723  | 0.78807    | 4.6213     | 149.6 |  4.12
Neigh   | 0.024467   | 0.027758   | 0.030088   |   1.0 |  0.15
Comm    | 7.833      | 14.796     | 17.629     |  85.7 | 77.40
Output  | 0.007637   | 0.015615   | 0.023236   |   4.0 |  0.08
Modify  | 0.70178    | 2.154      | 9.6534     | 190.7 | 11.27
Other   |            | 0.6092     |            |       |  3.19

Nlocal:        7.51562 ave          34 max           0 min
Histogram: 42 4 2 0 0 1 2 5 4 4
Nghost:        1822.39 ave        2417 max        1292 min
Histogram: 16 0 0 0 32 0 0 0 0 16
Neighs:              0 ave           0 max           0 min
Histogram: 64 0 0 0 0 0 0 0 0 0

Total # of neighbors = 0
Ave neighs/atom = 0
Ave special neighs/atom = 15.567568
Neighbor list builds = 55
Dangerous builds = 0
unfix           myat1
next            cpt
jump            SELF loop
variable        zdes equal  -15+0.60*(${cpt}-1)
variable        zdes equal  -15+0.60*(50-1)
variable        zave equal xcm(H2,z)
fix             mytth2 H2 spring tether ${k1} 2.5 2.5 ${zdes} 0
fix             mytth2 H2 spring tether 1.5 2.5 2.5 ${zdes} 0
fix             mytth2 H2 spring tether 1.5 2.5 2.5 14.4 0
run             10000
Generated 0 of 1 mixed pair_coeff terms from geometric mixing rule
Per MPI rank memory allocation (min/avg/max) = 13.32 | 13.62 | 14.95 Mbytes
   Step          Temp          E_pair         E_mol          TotEng         Press     
   2960000   294.07867      382.76208      18524.193      19327.72      -44.00729     
   2970000   310.8865       389.95166      18486.298      19321.063      11.609854    
Loop time of 3.8075 on 64 procs for 10000 steps with 481 atoms

Performance: 11.346 ns/day, 2.115 hours/ns, 2626.395 timesteps/s, 1.263 Matom-step/s
100.0% CPU use with 64 MPI tasks x 1 OpenMP threads

MPI task timing breakdown:
Section |  min time  |  avg time  |  max time  |%varavg| %total
---------------------------------------------------------------
Pair    | 0.0034997  | 0.14555    | 1.1646     |  74.2 |  3.82
Bond    | 0.0010621  | 0.15711    | 0.86017    |  66.9 |  4.13
Neigh   | 0.0078083  | 0.0088368  | 0.0095912  |   0.6 |  0.23
Comm    | 1.5739     | 2.9231     | 3.5072     |  37.7 | 76.77
Output  | 0.0015721  | 0.0031508  | 0.004709   |   1.8 |  0.08
Modify  | 0.14167    | 0.44813    | 1.9088     |  82.3 | 11.77
Other   |            | 0.1216     |            |       |  3.19

Nlocal:        7.51562 ave          35 max           0 min
Histogram: 43 2 3 0 0 2 3 2 6 3
Nghost:        1820.52 ave        2413 max        1289 min
Histogram: 16 0 0 0 32 0 0 0 0 16
Neighs:              0 ave           0 max           0 min
Histogram: 64 0 0 0 0 0 0 0 0 0

Total # of neighbors = 0
Ave neighs/atom = 0
Ave special neighs/atom = 15.567568
Neighbor list builds = 18
Dangerous builds = 0
fix             myat1 all ave/time 1000 10 10000 v_zave v_zdes file simulation_data/abpot/${cpt}.dat
fix             myat1 all ave/time 1000 10 10000 v_zave v_zdes file simulation_data/abpot/50.dat
run             50000
Generated 0 of 1 mixed pair_coeff terms from geometric mixing rule
Per MPI rank memory allocation (min/avg/max) = 13.32 | 13.62 | 14.95 Mbytes
   Step          Temp          E_pair         E_mol          TotEng         Press     
   2970000   310.8865       389.95166      18486.298      19321.063      11.609854    
   2980000   299.42439      383.77863      18532.352      19344.543     -70.089724    
   2990000   306.35399      377.09582      18548.435      19363.859     -372.29788    
   3000000   308.92579      382.09243      18504.595      19328.695     -152.31226    
   3010000   281.27098      384.5087       18526.666      19313.614     -23.618111    
   3020000   296.183        378.36701      18505.33       19307.473     -108.47752    
Loop time of 18.8934 on 64 procs for 50000 steps with 481 atoms

Performance: 11.433 ns/day, 2.099 hours/ns, 2646.429 timesteps/s, 1.273 Matom-step/s
100.0% CPU use with 64 MPI tasks x 1 OpenMP threads

MPI task timing breakdown:
Section |  min time  |  avg time  |  max time  |%varavg| %total
---------------------------------------------------------------
Pair    | 0.017788   | 0.7269     | 5.8006     | 164.6 |  3.85
Bond    | 0.0054265  | 0.78684    | 4.2287     | 149.1 |  4.16
Neigh   | 0.039747   | 0.045352   | 0.049207   |   1.2 |  0.24
Comm    | 7.966      | 14.579     | 17.396     |  84.8 | 77.16
Output  | 0.0074613  | 0.015406   | 0.022988   |   4.0 |  0.08
Modify  | 0.69639    | 2.1332     | 9.4306     | 187.2 | 11.29
Other   |            | 0.6072     |            |       |  3.21

Nlocal:        7.51562 ave          37 max           0 min
Histogram: 42 5 1 0 1 1 4 5 4 1
Nghost:        1816.77 ave        2398 max        1291 min
Histogram: 16 0 0 0 32 0 0 0 0 16
Neighs:              0 ave           0 max           0 min
Histogram: 64 0 0 0 0 0 0 0 0 0

Total # of neighbors = 0
Ave neighs/atom = 0
Ave special neighs/atom = 15.567568
Neighbor list builds = 93
Dangerous builds = 0
unfix           myat1
next            cpt
jump            SELF loop
variable        zdes equal  -15+0.60*(${cpt}-1)
variable        zdes equal  -15+0.60*(51-1)
variable        zave equal xcm(H2,z)
fix             mytth2 H2 spring tether ${k1} 2.5 2.5 ${zdes} 0
fix             mytth2 H2 spring tether 1.5 2.5 2.5 ${zdes} 0
fix             mytth2 H2 spring tether 1.5 2.5 2.5 15 0
run             10000
Generated 0 of 1 mixed pair_coeff terms from geometric mixing rule
Per MPI rank memory allocation (min/avg/max) = 13.32 | 13.62 | 14.95 Mbytes
   Step          Temp          E_pair         E_mol          TotEng         Press     
   3020000   296.183        378.36701      18505.33       19307.473     -108.47752    
   3030000   299.69755      389.9817       18510.803      19329.589      62.399296    
Loop time of 3.70468 on 64 procs for 10000 steps with 481 atoms

Performance: 11.661 ns/day, 2.058 hours/ns, 2699.292 timesteps/s, 1.298 Matom-step/s
100.0% CPU use with 64 MPI tasks x 1 OpenMP threads

MPI task timing breakdown:
Section |  min time  |  avg time  |  max time  |%varavg| %total
---------------------------------------------------------------
Pair    | 0.0034596  | 0.1451     | 1.1466     |  73.4 |  3.92
Bond    | 0.0010663  | 0.15677    | 0.86256    |  66.6 |  4.23
Neigh   | 0.005037   | 0.0057277  | 0.0062205  |   0.4 |  0.15
Comm    | 1.562      | 2.8622     | 3.4117     |  37.5 | 77.26
Output  | 0.0014611  | 0.0030343  | 0.004574   |   1.8 |  0.08
Modify  | 0.13428    | 0.41082    | 1.8137     |  82.1 | 11.09
Other   |            | 0.1211     |            |       |  3.27

Nlocal:        7.51562 ave          38 max           0 min
Histogram: 40 8 0 1 0 2 4 3 5 1
Nghost:        1817.52 ave        2404 max        1291 min
Histogram: 16 0 0 0 32 0 0 0 0 16
Neighs:              0 ave           0 max           0 min
Histogram: 64 0 0 0 0 0 0 0 0 0

Total # of neighbors = 0
Ave neighs/atom = 0
Ave special neighs/atom = 15.567568
Neighbor list builds = 12
Dangerous builds = 0
fix             myat1 all ave/time 1000 10 10000 v_zave v_zdes file simulation_data/abpot/${cpt}.dat
fix             myat1 all ave/time 1000 10 10000 v_zave v_zdes file simulation_data/abpot/51.dat
run             50000
Generated 0 of 1 mixed pair_coeff terms from geometric mixing rule
Per MPI rank memory allocation (min/avg/max) = 13.32 | 13.62 | 14.95 Mbytes
   Step          Temp          E_pair         E_mol          TotEng         Press     
   3030000   299.69755      389.9817       18510.803      19329.589      62.399296    
   3040000   295.42746      378.97448      18538.203      19339.871     -154.50851    
   3050000   304.91993      371.1065       18501.423      19308.806     -204.77225    
   3060000   293.41363      384.79682      18514.54       19319.149     -105.51114    
   3070000   299.09134      373.63201      18533.504      19335.072     -359.82326    
   3080000   302.82188      379.96332      18518.983      19332.22      -247.49056    
Loop time of 18.8818 on 64 procs for 50000 steps with 481 atoms

Performance: 11.440 ns/day, 2.098 hours/ns, 2648.059 timesteps/s, 1.274 Matom-step/s
100.0% CPU use with 64 MPI tasks x 1 OpenMP threads

MPI task timing breakdown:
Section |  min time  |  avg time  |  max time  |%varavg| %total
---------------------------------------------------------------
Pair    | 0.017638   | 0.72652    | 5.9659     | 164.6 |  3.85
Bond    | 0.0053401  | 0.78652    | 4.1244     | 148.4 |  4.17
Neigh   | 0.029393   | 0.033333   | 0.035937   |   1.0 |  0.18
Comm    | 7.7629     | 14.572     | 17.409     |  84.8 | 77.17
Output  | 0.0074414  | 0.015331   | 0.022896   |   4.0 |  0.08
Modify  | 0.69448    | 2.1415     | 9.4384     | 187.8 | 11.34
Other   |            | 0.6066     |            |       |  3.21

Nlocal:        7.51562 ave          34 max           0 min
Histogram: 42 4 2 0 0 1 1 7 4 3
Nghost:        1817.05 ave        2404 max        1293 min
Histogram: 16 0 0 0 32 0 0 0 0 16
Neighs:              0 ave           0 max           0 min
Histogram: 64 0 0 0 0 0 0 0 0 0

Total # of neighbors = 0
Ave neighs/atom = 0
Ave special neighs/atom = 15.567568
Neighbor list builds = 67
Dangerous builds = 0
unfix           myat1
next            cpt
jump            SELF loop

Total wall time: 0:19:24
