# --- log file ---

variable pre equal 112 # desired pressure (Atm)
variable tem equal 300 # desired temperature (K)

variable k1 equal 5.1 # spring constant
variable k2 equal 3.5 # spring constant

units real
atom_style molecular
boundary p p p
neighbor 1.0 bin
neigh_modify delay 3 one 6000
bond_style harmonic
angle_style harmonic
dihedral_style opls
improper_style harmonic
pair_style hybrid lj/cut 14 sg 15 cb 30 # Fluid-fluid interactions have a cutoff of 15 Å, fluid-solid interactions have a cutoff of 30 Å
# *--* C-C parameters *--*
bond_style harmonic
angle_style harmonic
dihedral_style opls
improper_style harmonic
# *--* C-C parameters *--*


# 2. Read the graphite platelet data file and define potentials parameters
read_data       ../geometry/carbonPlatelets/simulation_data/abpot_sys.data  extra/atom/types 1
Reading data file ...
  orthogonal box = (-30 -30 -30) to (30 30 30)
  3 by 4 by 4 MPI processor grid
  reading atoms ...
  480 atoms
  reading velocities ...
  480 velocities
  scanning bonds ...
  2 = max bonds/atom
  scanning angles ...
  3 = max angles/atom
  scanning dihedrals ...
  8 = max dihedrals/atom
  scanning impropers ...
  2 = max impropers/atom
  orthogonal box = (-30 -30 -30) to (30 30 30)
  3 by 4 by 4 MPI processor grid
  reading bonds ...
  676 bonds
  reading angles ...
  1268 angles
  reading dihedrals ...
  2394 dihedrals
  reading impropers ...
  396 impropers
Finding 1-2 1-3 1-4 neighbors ...
  special bond factors lj:    0        0        0       
  special bond factors coul:  0        0        0       
     3 = max # of 1-2 neighbors
     6 = max # of 1-3 neighbors
    18 = max # of 1-4 neighbors
    18 = max # of special neighbors
  special bonds CPU = 0.002 seconds
  read_data CPU = 0.047 seconds
include         PARM.lammps

#////////////////////////////////////////////////////////////////////////////////////////////////////////////////////////////////
#//     Filename: PARM.lammps
#//     File Type: LAMMPS input script
#//     Description: This script defines the parameters for the simulation of hydrogen absorption in graphite platelets.
#//     Author: Edoardo Cabiati
#//     Date: 2024-07-27
#////////////////////////////////////////////////////////////////////////////////////////////////////////////////////////////////

mass 2 2.016 # For now at least, in accordance with the paper by Wang and Johnson,
             # 1998, the hydrogen atoms are regarded as simple spherical atoms

# //////////////////////////////////////    C-C potentials    //////////////////////////////////////
pair_coeff 1 1 lj/cut 0.066 3.4
bond_coeff 1 469 1.4
angle_coeff 1 63 120
dihedral_coeff 1 0 7.25 0 0
improper_coeff 1 5 180
special_bonds lj 0.0 0.0 0.5
Finding 1-2 1-3 1-4 neighbors ...
  special bond factors lj:    0        0        0.5     
  special bond factors coul:  0        0        0       
     3 = max # of 1-2 neighbors
     6 = max # of 1-3 neighbors
    18 = max # of 1-4 neighbors
    18 = max # of special neighbors
  special bonds CPU = 0.001 seconds
# //////////////////////////////////////    C-C potentials    //////////////////////////////////////
# -------------------------------------------------------------------------------------------------
# //////////////////////////////////////    H-H potentials    //////////////////////////////////////
variable alpha equal 1.713          #|
variable sigma equal 1.567          #|
variable gamma equal 0.00993        #|
variable c6 equal 12.14             #|      The parameters are all in atomic units, the conversion to kcal/mol
variable c8 equal 215.2             #|      is performed in the pair_sg.cpp file
variable c9 equal 143.1             #|
variable c10 equal 4813.9           #|
variable rc equal 8.321             #|
pair_coeff 2 2 sg ${alpha} ${sigma} ${gamma} ${c6} ${c8} ${c9} ${c10} ${rc} # H-H potentials
pair_coeff 2 2 sg 1.713 ${sigma} ${gamma} ${c6} ${c8} ${c9} ${c10} ${rc} 
pair_coeff 2 2 sg 1.713 1.567 ${gamma} ${c6} ${c8} ${c9} ${c10} ${rc} 
pair_coeff 2 2 sg 1.713 1.567 0.00993 ${c6} ${c8} ${c9} ${c10} ${rc} 
pair_coeff 2 2 sg 1.713 1.567 0.00993 12.14 ${c8} ${c9} ${c10} ${rc} 
pair_coeff 2 2 sg 1.713 1.567 0.00993 12.14 215.2 ${c9} ${c10} ${rc} 
pair_coeff 2 2 sg 1.713 1.567 0.00993 12.14 215.2 143.1 ${c10} ${rc} 
pair_coeff 2 2 sg 1.713 1.567 0.00993 12.14 215.2 143.1 4813.9 ${rc} 
pair_coeff 2 2 sg 1.713 1.567 0.00993 12.14 215.2 143.1 4813.9 8.321 
#pair_coeff 2 2 sg 1.713 1.567 0.00993 12.14 215.2 143.1 4813.9 8.321 # H-H potentials
# //////////////////////////////////////    H-H potentials    //////////////////////////////////////
# -------------------------------------------------------------------------------------------------
# //////////////////////////////////////    C-H potentials    //////////////////////////////////////
variable sigma_CC equal 3.43 # Å
variable sigma_HH equal 3.075 # Å
variable sigma_CH_geo equal sqrt(${sigma_CC}*${sigma_HH}) # Å
variable sigma_CH_geo equal sqrt(3.43*${sigma_HH}) 
variable sigma_CH_geo equal sqrt(3.43*3.075) 
variable sigma_CH_arit equal 0.5*(${sigma_CC}+${sigma_HH}) # Å
variable sigma_CH_arit equal 0.5*(3.43+${sigma_HH}) 
variable sigma_CH_arit equal 0.5*(3.43+3.075) 

variable P_par equal 0.57 # Å^3
variable P_perp equal 1.995 # Å^3
variable P_h equal 0.81 # Å^3
variable E_h equal 2.337e5*(1/503.23) # K * 1/503.23 kcal/mol/K = kcal/mol
variable E_c equal 1.39254e5*(1/503.23) # K * 1/503.23 kcal/mol/K = kcal/mol

variable epsilon equal 4*v_E_h*v_E_c*v_P_h*(v_P_par+v_P_perp/2)/(v_sigma_CH_geo^6*(v_E_h+v_E_c)) # kcal/mol

pair_coeff 1 2 cb ${epsilon} ${sigma_CH_geo} ${P_par} ${P_perp} # C-H potential
pair_coeff 1 2 cb 0.750549668586509 ${sigma_CH_geo} ${P_par} ${P_perp} 
pair_coeff 1 2 cb 0.750549668586509 3.24765299870537 ${P_par} ${P_perp} 
pair_coeff 1 2 cb 0.750549668586509 3.24765299870537 0.57 ${P_perp} 
pair_coeff 1 2 cb 0.750549668586509 3.24765299870537 0.57 1.995 
#pair_coeff 1 2 lj/cut 0.3025 2.065
# //////////////////////////////////////    C-H potentials    //////////////////////////////////////

# 3. Add a single hydrogen molecule to the system, close to the center of the first platelet
create_atoms    2 single 0 0 -2
Created 1 atoms
  using lattice units in orthogonal box = (-30 -30 -30) to (30 30 30)
  create_atoms CPU = 0.000 seconds

group           C type 1
480 atoms in group C
group           H2 type 2
1 atoms in group H2

# 4. Equilibration
timestep        0.05
fix             mytth1 C spring/self ${k2} # Apply a spring force to the carbon atoms
fix             mytth1 C spring/self 3.5 
velocity        all create ${tem} 48 rot yes mom yes dist gaussian # Initialize velocities
velocity        all create 300 48 rot yes mom yes dist gaussian 
fix             mynpt all npt temp ${tem} ${tem} 100 x ${pre} ${pre} 1000 y ${pre} ${pre} 1000 # Apply NPT ensemble to the system
fix             mynpt all npt temp 300 ${tem} 100 x ${pre} ${pre} 1000 y ${pre} ${pre} 1000 
fix             mynpt all npt temp 300 300 100 x ${pre} ${pre} 1000 y ${pre} ${pre} 1000 
fix             mynpt all npt temp 300 300 100 x 112 ${pre} 1000 y ${pre} ${pre} 1000 
fix             mynpt all npt temp 300 300 100 x 112 112 1000 y ${pre} ${pre} 1000 
fix             mynpt all npt temp 300 300 100 x 112 112 1000 y 112 ${pre} 1000 
fix             mynpt all npt temp 300 300 100 x 112 112 1000 y 112 112 1000 

thermo          10000
dump            dump all atom 1000 simulation_data/absorption_pot.lammpstrj

run             20000

CITE-CITE-CITE-CITE-CITE-CITE-CITE-CITE-CITE-CITE-CITE-CITE-CITE

Your simulation uses code contributions which should be cited:

- Type Label Framework: https://doi.org/10.1021/acs.jpcb.3c08419

@Article{Gissinger24,
 author = {Jacob R. Gissinger, Ilia Nikiforov, Yaser Afshar, Brendon Waters, Moon-ki Choi, Daniel S. Karls, Alexander Stukowski, Wonpil Im, Hendrik Heinz, Axel Kohlmeyer, and Ellad B. Tadmor},
 title = {Type Label Framework for Bonded Force Fields in LAMMPS},
 journal = {J. Phys. Chem. B},
 year =    2024,
 volume =  128,
 number =  13,
 pages =   {3282–-3297}
}

CITE-CITE-CITE-CITE-CITE-CITE-CITE-CITE-CITE-CITE-CITE-CITE-CITE

Generated 0 of 1 mixed pair_coeff terms from geometric mixing rule
Neighbor list info ...
  update: every = 1 steps, delay = 3 steps, check = yes
  max neighbors/atom: 6000, page size: 100000
  master list distance cutoff = 31
  ghost atom cutoff = 31
  binsize = 15.5, bins = 4 4 4
  4 neighbor lists, perpetual/occasional/extra = 4 0 0
  (1) pair lj/cut, perpetual, skip trim from (4)
      attributes: half, newton on, cut 15
      pair build: skip/trim
      stencil: none
      bin: none
  (2) pair sg, perpetual, skip trim from (4)
      attributes: half, newton on, cut 16
      pair build: skip/trim
      stencil: none
      bin: none
  (3) pair cb, perpetual, skip from (4)
      attributes: half, newton on
      pair build: skip
      stencil: none
      bin: none
  (4) neighbor class addition, perpetual
      attributes: half, newton on
      pair build: half/bin/newton
      stencil: half/bin/3d
      bin: standard
Per MPI rank memory allocation (min/avg/max) = 13.28 | 13.37 | 13.93 Mbytes
   Step          Temp          E_pair         E_mol          TotEng         Press          Volume    
         0   300            308.43814      19603.922      20341.597     -432.48369      216000       
     10000   308.72719      373.58236      18568.419      19383.724     -313.9945       172136.64    
     20000   322.02648      371.05675      18538.378      19370.187     -418.66256      126544.33    
Loop time of 8.08327 on 48 procs for 20000 steps with 481 atoms

Performance: 10.689 ns/day, 2.245 hours/ns, 2474.245 timesteps/s, 1.190 Matom-step/s
99.8% CPU use with 48 MPI tasks x 1 OpenMP threads

MPI task timing breakdown:
Section |  min time  |  avg time  |  max time  |%varavg| %total
---------------------------------------------------------------
Pair    | 0.13217    | 0.49297    | 2.326      |  80.4 |  6.10
Bond    | 0.0043387  | 0.45214    | 2.5412     | 118.1 |  5.59
Neigh   | 0.024067   | 0.02641    | 0.028443   |   0.7 |  0.33
Comm    | 2.3342     | 4.5153     | 6.6779     |  74.3 | 55.86
Output  | 0.0041259  | 0.0095291  | 0.01553    |   3.9 |  0.12
Modify  | 0.70549    | 2.2955     | 5.1672     | 112.0 | 28.40
Other   |            | 0.2914     |            |       |  3.61

Nlocal:        10.0208 ave          42 max           0 min
Histogram: 21 4 10 5 0 1 0 3 3 1
Nghost:        1907.85 ave        2370 max        1332 min
Histogram: 8 0 0 0 24 0 0 0 0 16
Neighs:              0 ave           0 max           0 min
Histogram: 48 0 0 0 0 0 0 0 0 0

Total # of neighbors = 0
Ave neighs/atom = 0
Ave special neighs/atom = 15.567568
Neighbor list builds = 55
Dangerous builds = 0
unfix           mynpt
unfix           mytth1

# 5. Umbrella sampling
fix             mynvt all nvt temp ${tem} ${tem} 100
fix             mynvt all nvt temp 300 ${tem} 100
fix             mynvt all nvt temp 300 300 100
fix             mytth1 C spring/self ${k2}
fix             mytth1 C spring/self 3.5

variable        cpt loop 51
label           loop
variable        zdes equal  -15+0.60*(${cpt}-1)
variable        zdes equal  -15+0.60*(1-1)
variable        zave equal xcm(H2,z)
fix             mytth2 H2 spring tether ${k1} 2.5 2.5 ${zdes} 0
fix             mytth2 H2 spring tether 5.1 2.5 2.5 ${zdes} 0
fix             mytth2 H2 spring tether 5.1 2.5 2.5 -15 0
run             10000
Generated 0 of 1 mixed pair_coeff terms from geometric mixing rule
Per MPI rank memory allocation (min/avg/max) = 13.32 | 13.74 | 14.98 Mbytes
   Step          Temp          E_pair         E_mol          TotEng         Press     
     20000   322.02648      371.05675      18538.378      19370.187     -418.66256    
     30000   246.6866       339.79635      18587.621      19280.373     -1059.5988    
Loop time of 3.17469 on 48 procs for 10000 steps with 481 atoms

Performance: 13.608 ns/day, 1.764 hours/ns, 3149.914 timesteps/s, 1.515 Matom-step/s
100.0% CPU use with 48 MPI tasks x 1 OpenMP threads

MPI task timing breakdown:
Section |  min time  |  avg time  |  max time  |%varavg| %total
---------------------------------------------------------------
Pair    | 0.0036279  | 0.14691    | 0.80269    |  54.7 |  4.63
Bond    | 0.0010698  | 0.18485    | 0.77091    |  56.4 |  5.82
Neigh   | 0.046516   | 0.051175   | 0.05437    |   1.0 |  1.61
Comm    | 1.3248     | 2.3019     | 2.8239     |  34.0 | 72.51
Output  | 0.0012986  | 0.0030683  | 0.0051466  |   2.2 |  0.10
Modify  | 0.13649    | 0.37407    | 1.5803     |  76.2 | 11.78
Other   |            | 0.1127     |            |       |  3.55

Nlocal:        10.0208 ave          41 max           0 min
Histogram: 22 5 6 6 1 1 1 1 2 3
Nghost:        1914.25 ave        2388 max        1334 min
Histogram: 8 0 0 0 24 0 0 0 0 16
Neighs:              0 ave           0 max           0 min
Histogram: 48 0 0 0 0 0 0 0 0 0

Total # of neighbors = 0
Ave neighs/atom = 0
Ave special neighs/atom = 15.567568
Neighbor list builds = 140
Dangerous builds = 0
fix             myat1 all ave/time 1000 10 10000 v_zave v_zdes file simulation_data/abpot/${cpt}.dat
fix             myat1 all ave/time 1000 10 10000 v_zave v_zdes file simulation_data/abpot/1.dat
run             50000
Generated 0 of 1 mixed pair_coeff terms from geometric mixing rule
Per MPI rank memory allocation (min/avg/max) = 13.32 | 13.79 | 14.98 Mbytes
   Step          Temp          E_pair         E_mol          TotEng         Press     
     30000   246.6866       339.79635      18587.621      19280.373     -1059.5988    
     40000   282.50552      417.22805      18511.783      19333.217      647.81719    
     50000   303.0711       380.14393      18552.643      19366.417      96.105908    
     60000   310.06451      363.88974      18562.693      19370.22      -256.79101    
     70000   322.4777       366.28713      18562.751      19390.436     -275.91529    
     80000   277.57765      387.11776      18562.308      19346.581      290.82864    
Loop time of 15.0982 on 48 procs for 50000 steps with 481 atoms

Performance: 14.306 ns/day, 1.678 hours/ns, 3311.646 timesteps/s, 1.593 Matom-step/s
100.0% CPU use with 48 MPI tasks x 1 OpenMP threads

MPI task timing breakdown:
Section |  min time  |  avg time  |  max time  |%varavg| %total
---------------------------------------------------------------
Pair    | 0.017426   | 0.73232    | 3.6791     | 120.5 |  4.85
Bond    | 0.0052894  | 0.92582    | 3.9201     | 126.4 |  6.13
Neigh   | 0.063631   | 0.069545   | 0.073745   |   1.2 |  0.46
Comm    | 6.607      | 10.973     | 13.469     |  75.2 | 72.68
Output  | 0.0062699  | 0.013413   | 0.021003   |   4.1 |  0.09
Modify  | 0.66771    | 1.8139     | 7.6155     | 163.2 | 12.01
Other   |            | 0.5702     |            |       |  3.78

Nlocal:        10.0208 ave          42 max           0 min
Histogram: 22 2 13 2 1 1 2 1 1 3
Nghost:        1931.85 ave        2414 max        1333 min
Histogram: 8 0 0 0 24 0 0 0 0 16
Neighs:              0 ave           0 max           0 min
Histogram: 48 0 0 0 0 0 0 0 0 0

Total # of neighbors = 0
Ave neighs/atom = 0
Ave special neighs/atom = 15.567568
Neighbor list builds = 191
Dangerous builds = 0
unfix           myat1
next            cpt
jump            SELF loop
variable        zdes equal  -15+0.60*(${cpt}-1)
variable        zdes equal  -15+0.60*(2-1)
variable        zave equal xcm(H2,z)
fix             mytth2 H2 spring tether ${k1} 2.5 2.5 ${zdes} 0
fix             mytth2 H2 spring tether 5.1 2.5 2.5 ${zdes} 0
fix             mytth2 H2 spring tether 5.1 2.5 2.5 -14.4 0
run             10000
Generated 0 of 1 mixed pair_coeff terms from geometric mixing rule
Per MPI rank memory allocation (min/avg/max) = 13.32 | 13.82 | 14.98 Mbytes
   Step          Temp          E_pair         E_mol          TotEng         Press     
     80000   277.57765      387.11776      18562.308      19346.581      290.82864    
     90000   311.26746      372.18484      18541.382      19358.925     -132.35414    
Loop time of 3.10437 on 48 procs for 10000 steps with 481 atoms

Performance: 13.916 ns/day, 1.725 hours/ns, 3221.266 timesteps/s, 1.549 Matom-step/s
100.0% CPU use with 48 MPI tasks x 1 OpenMP threads

MPI task timing breakdown:
Section |  min time  |  avg time  |  max time  |%varavg| %total
---------------------------------------------------------------
Pair    | 0.0034118  | 0.1469     | 0.74282    |  54.0 |  4.73
Bond    | 0.0010408  | 0.18559    | 0.78015    |  56.5 |  5.98
Neigh   | 0.0070382  | 0.0076507  | 0.0081125  |   0.4 |  0.25
Comm    | 1.3372     | 2.2699     | 2.7882     |  34.7 | 73.12
Output  | 0.0012057  | 0.002418   | 0.0037155  |   1.6 |  0.08
Modify  | 0.12771    | 0.37803    | 1.6336     |  78.1 | 12.18
Other   |            | 0.1139     |            |       |  3.67

Nlocal:        10.0208 ave          43 max           0 min
Histogram: 21 6 9 4 0 2 0 2 2 2
Nghost:        1925.23 ave        2400 max        1337 min
Histogram: 8 0 0 0 24 0 0 0 0 16
Neighs:              0 ave           0 max           0 min
Histogram: 48 0 0 0 0 0 0 0 0 0

Total # of neighbors = 0
Ave neighs/atom = 0
Ave special neighs/atom = 15.567568
Neighbor list builds = 20
Dangerous builds = 0
fix             myat1 all ave/time 1000 10 10000 v_zave v_zdes file simulation_data/abpot/${cpt}.dat
fix             myat1 all ave/time 1000 10 10000 v_zave v_zdes file simulation_data/abpot/2.dat
run             50000
Generated 0 of 1 mixed pair_coeff terms from geometric mixing rule
Per MPI rank memory allocation (min/avg/max) = 13.32 | 13.83 | 14.98 Mbytes
   Step          Temp          E_pair         E_mol          TotEng         Press     
     90000   311.26746      372.18484      18541.382      19358.925     -132.35414    
    100000   296.50112      357.6029       18576.499      19358.333     -603.01997    
    110000   279.52704      383.86745      18535.004      19318.816      116.645      
    120000   291.89721      373.77366      18541.71       19333.127     -11.047605    
    130000   308.8469       361.63796      18567.375      19370.908     -354.733      
    140000   316.92195      375.56205      18548.711      19377.721      16.584988    
Loop time of 15.3445 on 48 procs for 50000 steps with 481 atoms

Performance: 14.077 ns/day, 1.705 hours/ns, 3258.495 timesteps/s, 1.567 Matom-step/s
100.0% CPU use with 48 MPI tasks x 1 OpenMP threads

MPI task timing breakdown:
Section |  min time  |  avg time  |  max time  |%varavg| %total
---------------------------------------------------------------
Pair    | 0.016798   | 0.73389    | 3.9662     | 121.2 |  4.78
Bond    | 0.0052722  | 0.92812    | 3.7925     | 126.3 |  6.05
Neigh   | 0.028243   | 0.030631   | 0.032304   |   0.7 |  0.20
Comm    | 6.3542     | 11.218     | 13.742     |  75.4 | 73.11
Output  | 0.0060224  | 0.011674   | 0.017416   |   3.4 |  0.08
Modify  | 0.65258    | 1.859      | 7.8337     | 166.6 | 12.11
Other   |            | 0.5631     |            |       |  3.67

Nlocal:        10.0208 ave          40 max           0 min
Histogram: 21 4 8 6 1 0 1 1 4 2
Nghost:         1930.1 ave        2409 max        1338 min
Histogram: 8 0 0 0 24 0 0 0 0 16
Neighs:              0 ave           0 max           0 min
Histogram: 48 0 0 0 0 0 0 0 0 0

Total # of neighbors = 0
Ave neighs/atom = 0
Ave special neighs/atom = 15.567568
Neighbor list builds = 80
Dangerous builds = 0
unfix           myat1
next            cpt
jump            SELF loop
variable        zdes equal  -15+0.60*(${cpt}-1)
variable        zdes equal  -15+0.60*(3-1)
variable        zave equal xcm(H2,z)
fix             mytth2 H2 spring tether ${k1} 2.5 2.5 ${zdes} 0
fix             mytth2 H2 spring tether 5.1 2.5 2.5 ${zdes} 0
fix             mytth2 H2 spring tether 5.1 2.5 2.5 -13.8 0
run             10000
Generated 0 of 1 mixed pair_coeff terms from geometric mixing rule
Per MPI rank memory allocation (min/avg/max) = 13.32 | 13.83 | 14.98 Mbytes
   Step          Temp          E_pair         E_mol          TotEng         Press     
    140000   316.92195      375.56205      18548.711      19377.721      16.584988    
    150000   326.39949      393.36205      18528.959      19389.329      536.41974    
Loop time of 3.00574 on 48 procs for 10000 steps with 481 atoms

Performance: 14.372 ns/day, 1.670 hours/ns, 3326.963 timesteps/s, 1.600 Matom-step/s
100.0% CPU use with 48 MPI tasks x 1 OpenMP threads

MPI task timing breakdown:
Section |  min time  |  avg time  |  max time  |%varavg| %total
---------------------------------------------------------------
Pair    | 0.0034731  | 0.14639    | 0.74389    |  53.6 |  4.87
Bond    | 0.0010691  | 0.18486    | 0.77835    |  56.3 |  6.15
Neigh   | 0.0065487  | 0.0071029  | 0.0076258  |   0.4 |  0.24
Comm    | 1.2697     | 2.2006     | 2.7048     |  33.3 | 73.21
Output  | 0.0012556  | 0.0023251  | 0.0034396  |   1.4 |  0.08
Modify  | 0.12842    | 0.35231    | 1.4884     |  72.7 | 11.72
Other   |            | 0.1122     |            |       |  3.73

Nlocal:        10.0208 ave          37 max           0 min
Histogram: 21 8 3 5 2 1 0 2 2 4
Nghost:        1939.85 ave        2425 max        1336 min
Histogram: 8 0 0 0 24 0 0 0 0 16
Neighs:              0 ave           0 max           0 min
Histogram: 48 0 0 0 0 0 0 0 0 0

Total # of neighbors = 0
Ave neighs/atom = 0
Ave special neighs/atom = 15.567568
Neighbor list builds = 19
Dangerous builds = 0
fix             myat1 all ave/time 1000 10 10000 v_zave v_zdes file simulation_data/abpot/${cpt}.dat
fix             myat1 all ave/time 1000 10 10000 v_zave v_zdes file simulation_data/abpot/3.dat
run             50000
Generated 0 of 1 mixed pair_coeff terms from geometric mixing rule
Per MPI rank memory allocation (min/avg/max) = 13.32 | 13.84 | 14.98 Mbytes
   Step          Temp          E_pair         E_mol          TotEng         Press     
    150000   326.39949      393.36205      18528.959      19389.329      536.41974    
    160000   283.44566      355.01404      18563.107      19323.672     -470.66161    
    170000   308.3302       375.95006      18542.671      19359.777      14.91288     
    180000   308.915        383.03001      18557.041      19382.063      387.23806    
    190000   311.90073      361.17755      18571.19       19378.631     -379.28135    
    200000   294.35986      369.57595      18538.103      19328.846     -221.30423    
Loop time of 15.1322 on 48 procs for 50000 steps with 481 atoms

Performance: 14.274 ns/day, 1.681 hours/ns, 3304.218 timesteps/s, 1.589 Matom-step/s
100.0% CPU use with 48 MPI tasks x 1 OpenMP threads

MPI task timing breakdown:
Section |  min time  |  avg time  |  max time  |%varavg| %total
---------------------------------------------------------------
Pair    | 0.017824   | 0.73186    | 3.8549     | 120.4 |  4.84
Bond    | 0.0053597  | 0.92381    | 3.9223     | 125.8 |  6.10
Neigh   | 0.024607   | 0.026804   | 0.028713   |   0.7 |  0.18
Comm    | 6.3411     | 11.051     | 13.562     |  74.8 | 73.03
Output  | 0.0058261  | 0.011169   | 0.016423   |   3.3 |  0.07
Modify  | 0.62539    | 1.8325     | 7.7143     | 165.1 | 12.11
Other   |            | 0.555      |            |       |  3.67

Nlocal:        10.0208 ave          38 max           0 min
Histogram: 19 7 7 6 1 0 0 2 4 2
Nghost:         1916.6 ave        2389 max        1335 min
Histogram: 8 0 0 0 24 0 0 0 0 16
Neighs:              0 ave           0 max           0 min
Histogram: 48 0 0 0 0 0 0 0 0 0

Total # of neighbors = 0
Ave neighs/atom = 0
Ave special neighs/atom = 15.567568
Neighbor list builds = 73
Dangerous builds = 0
unfix           myat1
next            cpt
jump            SELF loop
variable        zdes equal  -15+0.60*(${cpt}-1)
variable        zdes equal  -15+0.60*(4-1)
variable        zave equal xcm(H2,z)
fix             mytth2 H2 spring tether ${k1} 2.5 2.5 ${zdes} 0
fix             mytth2 H2 spring tether 5.1 2.5 2.5 ${zdes} 0
fix             mytth2 H2 spring tether 5.1 2.5 2.5 -13.2 0
run             10000
Generated 0 of 1 mixed pair_coeff terms from geometric mixing rule
Per MPI rank memory allocation (min/avg/max) = 13.32 | 13.84 | 14.98 Mbytes
   Step          Temp          E_pair         E_mol          TotEng         Press     
    200000   294.35986      369.57595      18538.103      19328.846     -221.30423    
    210000   290.92134      390.55829      18514.112      19320.917      510.89084    
Loop time of 3.04922 on 48 procs for 10000 steps with 481 atoms

Performance: 14.168 ns/day, 1.694 hours/ns, 3279.525 timesteps/s, 1.577 Matom-step/s
100.0% CPU use with 48 MPI tasks x 1 OpenMP threads

MPI task timing breakdown:
Section |  min time  |  avg time  |  max time  |%varavg| %total
---------------------------------------------------------------
Pair    | 0.0035585  | 0.14666    | 0.74486    |  53.7 |  4.81
Bond    | 0.0010682  | 0.18482    | 0.76631    |  56.3 |  6.06
Neigh   | 0.0040918  | 0.0044469  | 0.0047761  |   0.3 |  0.15
Comm    | 1.3378     | 2.2449     | 2.7398     |  32.8 | 73.62
Output  | 0.0011355  | 0.0021727  | 0.0032496  |   1.4 |  0.07
Modify  | 0.12471    | 0.35555    | 1.5057     |  72.9 | 11.66
Other   |            | 0.1107     |            |       |  3.63

Nlocal:        10.0208 ave          37 max           0 min
Histogram: 20 5 7 6 2 0 0 1 3 4
Nghost:        1936.62 ave        2418 max        1337 min
Histogram: 8 0 0 0 24 0 0 0 0 16
Neighs:              0 ave           0 max           0 min
Histogram: 48 0 0 0 0 0 0 0 0 0

Total # of neighbors = 0
Ave neighs/atom = 0
Ave special neighs/atom = 15.567568
Neighbor list builds = 12
Dangerous builds = 0
fix             myat1 all ave/time 1000 10 10000 v_zave v_zdes file simulation_data/abpot/${cpt}.dat
fix             myat1 all ave/time 1000 10 10000 v_zave v_zdes file simulation_data/abpot/4.dat
run             50000
Generated 0 of 1 mixed pair_coeff terms from geometric mixing rule
Per MPI rank memory allocation (min/avg/max) = 13.32 | 13.84 | 14.98 Mbytes
   Step          Temp          E_pair         E_mol          TotEng         Press     
    210000   290.92134      390.55829      18514.112      19320.917      510.89084    
    220000   303.50818      364.12958      18533.589      19331.975     -317.20481    
    230000   294.39758      372.60048      18562.616      19356.437     -28.85378     
    240000   301.47416      380.50949      18547.965      19359.82       98.234898    
    250000   313.4528       380.11664      18528.044      19356.646      197.00214    
    260000   292.78607      363.17682      18547.697      19329.789     -198.95893    
Loop time of 15.1342 on 48 procs for 50000 steps with 481 atoms

Performance: 14.272 ns/day, 1.682 hours/ns, 3303.768 timesteps/s, 1.589 Matom-step/s
100.0% CPU use with 48 MPI tasks x 1 OpenMP threads

MPI task timing breakdown:
Section |  min time  |  avg time  |  max time  |%varavg| %total
---------------------------------------------------------------
Pair    | 0.017214   | 0.73338    | 3.6987     | 120.2 |  4.85
Bond    | 0.0052759  | 0.92482    | 3.8772     | 125.9 |  6.11
Neigh   | 0.028533   | 0.031178   | 0.033444   |   0.8 |  0.21
Comm    | 6.4367     | 11.067     | 13.547     |  74.6 | 73.13
Output  | 0.0059175  | 0.011186   | 0.016395   |   3.2 |  0.07
Modify  | 0.63545    | 1.8065     | 7.5164     | 163.6 | 11.94
Other   |            | 0.56       |            |       |  3.70

Nlocal:        10.0208 ave          46 max           0 min
Histogram: 22 7 7 4 1 1 2 1 1 2
Nghost:        1920.73 ave        2397 max        1327 min
Histogram: 8 0 0 0 24 0 0 0 0 16
Neighs:              0 ave           0 max           0 min
Histogram: 48 0 0 0 0 0 0 0 0 0

Total # of neighbors = 0
Ave neighs/atom = 0
Ave special neighs/atom = 15.567568
Neighbor list builds = 84
Dangerous builds = 0
unfix           myat1
next            cpt
jump            SELF loop
variable        zdes equal  -15+0.60*(${cpt}-1)
variable        zdes equal  -15+0.60*(5-1)
variable        zave equal xcm(H2,z)
fix             mytth2 H2 spring tether ${k1} 2.5 2.5 ${zdes} 0
fix             mytth2 H2 spring tether 5.1 2.5 2.5 ${zdes} 0
fix             mytth2 H2 spring tether 5.1 2.5 2.5 -12.6 0
run             10000
Generated 0 of 1 mixed pair_coeff terms from geometric mixing rule
Per MPI rank memory allocation (min/avg/max) = 13.32 | 13.85 | 14.98 Mbytes
   Step          Temp          E_pair         E_mol          TotEng         Press     
    260000   292.78607      363.17682      18547.697      19329.789     -198.95893    
    270000   278.30679      376.01382      18558.464      19332.676     -27.012659    
Loop time of 3.08686 on 48 procs for 10000 steps with 481 atoms

Performance: 13.995 ns/day, 1.715 hours/ns, 3239.540 timesteps/s, 1.558 Matom-step/s
100.0% CPU use with 48 MPI tasks x 1 OpenMP threads

MPI task timing breakdown:
Section |  min time  |  avg time  |  max time  |%varavg| %total
---------------------------------------------------------------
Pair    | 0.0034303  | 0.14711    | 0.7712     |  53.9 |  4.77
Bond    | 0.0010523  | 0.18523    | 0.78751    |  56.4 |  6.00
Neigh   | 0.0098739  | 0.010769   | 0.011524   |   0.5 |  0.35
Comm    | 1.3054     | 2.2703     | 2.7791     |  33.4 | 73.55
Output  | 0.0012252  | 0.0022627  | 0.0033261  |   1.4 |  0.07
Modify  | 0.12582    | 0.35941    | 1.5194     |  74.9 | 11.64
Other   |            | 0.1118     |            |       |  3.62

Nlocal:        10.0208 ave          41 max           0 min
Histogram: 21 4 10 5 0 0 3 0 3 2
Nghost:        1922.35 ave        2403 max        1332 min
Histogram: 8 0 0 0 24 0 0 0 0 16
Neighs:              0 ave           0 max           0 min
Histogram: 48 0 0 0 0 0 0 0 0 0

Total # of neighbors = 0
Ave neighs/atom = 0
Ave special neighs/atom = 15.567568
Neighbor list builds = 29
Dangerous builds = 0
fix             myat1 all ave/time 1000 10 10000 v_zave v_zdes file simulation_data/abpot/${cpt}.dat
fix             myat1 all ave/time 1000 10 10000 v_zave v_zdes file simulation_data/abpot/5.dat
run             50000
Generated 0 of 1 mixed pair_coeff terms from geometric mixing rule
Per MPI rank memory allocation (min/avg/max) = 13.32 | 13.85 | 14.98 Mbytes
   Step          Temp          E_pair         E_mol          TotEng         Press     
    270000   278.30679      376.01382      18558.464      19332.676     -27.012659    
    280000   297.38905      388.72536      18527.977      19342.204      237.73345    
    290000   300.304        369.0408       18571.445      19370.158     -282.85006    
    300000   296.40261      360.35295      18576.722      19361.165     -455.71157    
    310000   277.52837      385.56211      18544.607      19327.254      250.83381    
    320000   278.06261      377.75747      18535.029      19310.635      143.37141    
Loop time of 15.4697 on 48 procs for 50000 steps with 481 atoms

Performance: 13.963 ns/day, 1.719 hours/ns, 3232.125 timesteps/s, 1.555 Matom-step/s
100.0% CPU use with 48 MPI tasks x 1 OpenMP threads

MPI task timing breakdown:
Section |  min time  |  avg time  |  max time  |%varavg| %total
---------------------------------------------------------------
Pair    | 0.017417   | 0.7343     | 3.912      | 120.6 |  4.75
Bond    | 0.0053275  | 0.92508    | 4.1018     | 126.4 |  5.98
Neigh   | 0.027912   | 0.030486   | 0.032641   |   0.8 |  0.20
Comm    | 6.4804     | 11.385     | 13.871     |  75.1 | 73.60
Output  | 0.0060494  | 0.011317   | 0.016501   |   3.2 |  0.07
Modify  | 0.6223     | 1.8251     | 7.6878     | 168.5 | 11.80
Other   |            | 0.5581     |            |       |  3.61

Nlocal:        10.0208 ave          37 max           0 min
Histogram: 21 5 8 3 2 1 0 1 3 4
Nghost:        1937.35 ave        2421 max        1336 min
Histogram: 8 0 0 0 24 0 0 0 0 16
Neighs:              0 ave           0 max           0 min
Histogram: 48 0 0 0 0 0 0 0 0 0

Total # of neighbors = 0
Ave neighs/atom = 0
Ave special neighs/atom = 15.567568
Neighbor list builds = 81
Dangerous builds = 0
unfix           myat1
next            cpt
jump            SELF loop
variable        zdes equal  -15+0.60*(${cpt}-1)
variable        zdes equal  -15+0.60*(6-1)
variable        zave equal xcm(H2,z)
fix             mytth2 H2 spring tether ${k1} 2.5 2.5 ${zdes} 0
fix             mytth2 H2 spring tether 5.1 2.5 2.5 ${zdes} 0
fix             mytth2 H2 spring tether 5.1 2.5 2.5 -12 0
run             10000
Generated 0 of 1 mixed pair_coeff terms from geometric mixing rule
Per MPI rank memory allocation (min/avg/max) = 13.32 | 13.85 | 14.98 Mbytes
   Step          Temp          E_pair         E_mol          TotEng         Press     
    320000   278.06261      377.75747      18535.029      19310.635      143.37141    
    330000   293.87086      359.468        18553.98       19333.916     -497.18075    
Loop time of 3.1862 on 48 procs for 10000 steps with 481 atoms

Performance: 13.558 ns/day, 1.770 hours/ns, 3138.534 timesteps/s, 1.510 Matom-step/s
99.9% CPU use with 48 MPI tasks x 1 OpenMP threads

MPI task timing breakdown:
Section |  min time  |  avg time  |  max time  |%varavg| %total
---------------------------------------------------------------
Pair    | 0.0035955  | 0.14694    | 0.76994    |  54.2 |  4.61
Bond    | 0.001076   | 0.18491    | 0.815      |  56.4 |  5.80
Neigh   | 0.0039067  | 0.0042961  | 0.0045865  |   0.3 |  0.13
Comm    | 1.3864     | 2.3535     | 2.8842     |  34.9 | 73.87
Output  | 0.0011984  | 0.0022432  | 0.0033087  |   1.4 |  0.07
Modify  | 0.12487    | 0.38192    | 1.6567     |  80.5 | 11.99
Other   |            | 0.1124     |            |       |  3.53

Nlocal:        10.0208 ave          40 max           0 min
Histogram: 20 6 6 6 2 0 1 1 4 2
Nghost:        1927.73 ave        2408 max        1334 min
Histogram: 8 0 0 0 24 0 0 0 0 16
Neighs:              0 ave           0 max           0 min
Histogram: 48 0 0 0 0 0 0 0 0 0

Total # of neighbors = 0
Ave neighs/atom = 0
Ave special neighs/atom = 15.567568
Neighbor list builds = 10
Dangerous builds = 0
fix             myat1 all ave/time 1000 10 10000 v_zave v_zdes file simulation_data/abpot/${cpt}.dat
fix             myat1 all ave/time 1000 10 10000 v_zave v_zdes file simulation_data/abpot/6.dat
run             50000
Generated 0 of 1 mixed pair_coeff terms from geometric mixing rule
Per MPI rank memory allocation (min/avg/max) = 13.32 | 13.85 | 14.98 Mbytes
   Step          Temp          E_pair         E_mol          TotEng         Press     
    330000   293.87086      359.468        18553.98       19333.916     -497.18075    
    340000   322.34983      368.88124      18533.142      19363.237     -17.248884    
    350000   306.7212       378.87279      18553.726      19371.452      73.006451    
    360000   295.26301      371.40828      18548.604      19342.471     -46.037973    
    370000   302.57254      366.11594      18548.332      19347.366     -320.14929    
    380000   300.15322      378.96485      18531.783      19340.203      190.74654    
Loop time of 15.8647 on 48 procs for 50000 steps with 481 atoms

Performance: 13.615 ns/day, 1.763 hours/ns, 3151.649 timesteps/s, 1.516 Matom-step/s
100.0% CPU use with 48 MPI tasks x 1 OpenMP threads

MPI task timing breakdown:
Section |  min time  |  avg time  |  max time  |%varavg| %total
---------------------------------------------------------------
Pair    | 0.017532   | 0.73512    | 3.8254     | 120.9 |  4.63
Bond    | 0.0053325  | 0.92588    | 3.9139     | 126.0 |  5.84
Neigh   | 0.019954   | 0.021763   | 0.023099   |   0.6 |  0.14
Comm    | 7.0192     | 11.7       | 14.334     |  77.9 | 73.75
Output  | 0.0059342  | 0.011091   | 0.016231   |   3.2 |  0.07
Modify  | 0.6363     | 1.9149     | 8.2034     | 179.2 | 12.07
Other   |            | 0.5563     |            |       |  3.51

Nlocal:        10.0208 ave          50 max           0 min
Histogram: 20 10 8 3 0 3 1 0 2 1
Nghost:        1927.98 ave        2403 max        1329 min
Histogram: 8 0 0 0 24 0 0 0 0 16
Neighs:              0 ave           0 max           0 min
Histogram: 48 0 0 0 0 0 0 0 0 0

Total # of neighbors = 0
Ave neighs/atom = 0
Ave special neighs/atom = 15.567568
Neighbor list builds = 55
Dangerous builds = 0
unfix           myat1
next            cpt
jump            SELF loop
variable        zdes equal  -15+0.60*(${cpt}-1)
variable        zdes equal  -15+0.60*(7-1)
variable        zave equal xcm(H2,z)
fix             mytth2 H2 spring tether ${k1} 2.5 2.5 ${zdes} 0
fix             mytth2 H2 spring tether 5.1 2.5 2.5 ${zdes} 0
fix             mytth2 H2 spring tether 5.1 2.5 2.5 -11.4 0
run             10000
Generated 0 of 1 mixed pair_coeff terms from geometric mixing rule
Per MPI rank memory allocation (min/avg/max) = 13.32 | 13.86 | 14.98 Mbytes
   Step          Temp          E_pair         E_mol          TotEng         Press     
    380000   300.15322      378.96485      18531.783      19340.203      190.74654    
    390000   305.92044      371.07162      18524.389      19333.169     -54.179683    
Loop time of 3.27747 on 48 procs for 10000 steps with 481 atoms

Performance: 13.181 ns/day, 1.821 hours/ns, 3051.135 timesteps/s, 1.468 Matom-step/s
100.0% CPU use with 48 MPI tasks x 1 OpenMP threads

MPI task timing breakdown:
Section |  min time  |  avg time  |  max time  |%varavg| %total
---------------------------------------------------------------
Pair    | 0.0034753  | 0.14734    | 0.77984    |  54.6 |  4.50
Bond    | 0.001045   | 0.18557    | 0.84003    |  56.6 |  5.66
Neigh   | 0.0046222  | 0.0051077  | 0.0054706  |   0.3 |  0.16
Comm    | 1.3566     | 2.4202     | 2.96       |  36.6 | 73.84
Output  | 0.0012036  | 0.0022363  | 0.0033093  |   1.4 |  0.07
Modify  | 0.12789    | 0.40553    | 1.7921     |  85.4 | 12.37
Other   |            | 0.1115     |            |       |  3.40

Nlocal:        10.0208 ave          44 max           0 min
Histogram: 21 7 8 4 0 2 1 2 1 2
Nghost:        1929.23 ave        2408 max        1329 min
Histogram: 8 0 0 0 24 0 0 0 0 16
Neighs:              0 ave           0 max           0 min
Histogram: 48 0 0 0 0 0 0 0 0 0

Total # of neighbors = 0
Ave neighs/atom = 0
Ave special neighs/atom = 15.567568
Neighbor list builds = 12
Dangerous builds = 0
fix             myat1 all ave/time 1000 10 10000 v_zave v_zdes file simulation_data/abpot/${cpt}.dat
fix             myat1 all ave/time 1000 10 10000 v_zave v_zdes file simulation_data/abpot/7.dat
run             50000
Generated 0 of 1 mixed pair_coeff terms from geometric mixing rule
Per MPI rank memory allocation (min/avg/max) = 13.32 | 13.86 | 14.98 Mbytes
   Step          Temp          E_pair         E_mol          TotEng         Press     
    390000   305.92044      371.07162      18524.389      19333.169     -54.179683    
    400000   312.49903      370.38399      18542.876      19360.38      -20.463445    
    410000   338.11011      372.67847      18540.628      19397.071     -16.67279     
    420000   303.07573      378.23343      18537.714      19349.585      29.479741    
    430000   305.17         374.06245      18514.385      19325.081     -122.71459    
    440000   300.71141      369.69574      18513.35       19313.3       -88.006735    
Loop time of 15.8766 on 48 procs for 50000 steps with 481 atoms

Performance: 13.605 ns/day, 1.764 hours/ns, 3149.292 timesteps/s, 1.515 Matom-step/s
100.0% CPU use with 48 MPI tasks x 1 OpenMP threads

MPI task timing breakdown:
Section |  min time  |  avg time  |  max time  |%varavg| %total
---------------------------------------------------------------
Pair    | 0.017399   | 0.73654    | 3.8142     | 121.7 |  4.64
Bond    | 0.0052807  | 0.92648    | 4.3216     | 126.8 |  5.84
Neigh   | 0.027274   | 0.029569   | 0.031479   |   0.7 |  0.19
Comm    | 6.5159     | 11.713     | 14.308     |  77.5 | 73.78
Output  | 0.0060256  | 0.011182   | 0.016336   |   3.1 |  0.07
Modify  | 0.64255    | 1.9028     | 8.2099     | 176.2 | 11.98
Other   |            | 0.5571     |            |       |  3.51

Nlocal:        10.0208 ave          47 max           0 min
Histogram: 20 8 10 1 3 1 0 3 1 1
Nghost:         1929.1 ave        2416 max        1326 min
Histogram: 8 0 0 0 24 0 0 0 0 16
Neighs:              0 ave           0 max           0 min
Histogram: 48 0 0 0 0 0 0 0 0 0

Total # of neighbors = 0
Ave neighs/atom = 0
Ave special neighs/atom = 15.567568
Neighbor list builds = 75
Dangerous builds = 0
unfix           myat1
next            cpt
jump            SELF loop
variable        zdes equal  -15+0.60*(${cpt}-1)
variable        zdes equal  -15+0.60*(8-1)
variable        zave equal xcm(H2,z)
fix             mytth2 H2 spring tether ${k1} 2.5 2.5 ${zdes} 0
fix             mytth2 H2 spring tether 5.1 2.5 2.5 ${zdes} 0
fix             mytth2 H2 spring tether 5.1 2.5 2.5 -10.8 0
run             10000
Generated 0 of 1 mixed pair_coeff terms from geometric mixing rule
Per MPI rank memory allocation (min/avg/max) = 13.32 | 13.86 | 14.98 Mbytes
   Step          Temp          E_pair         E_mol          TotEng         Press     
    440000   300.71141      369.69574      18513.35       19313.3       -88.006735    
    450000   294.7129       379.26674      18506.838      19307.777      97.856218    
Loop time of 3.19651 on 48 procs for 10000 steps with 481 atoms

Performance: 13.515 ns/day, 1.776 hours/ns, 3128.412 timesteps/s, 1.505 Matom-step/s
100.0% CPU use with 48 MPI tasks x 1 OpenMP threads

MPI task timing breakdown:
Section |  min time  |  avg time  |  max time  |%varavg| %total
---------------------------------------------------------------
Pair    | 0.0034183  | 0.14712    | 0.84828    |  54.6 |  4.60
Bond    | 0.0010482  | 0.18501    | 0.93634    |  57.2 |  5.79
Neigh   | 0.0072411  | 0.0078995  | 0.0084819  |   0.4 |  0.25
Comm    | 1.1703     | 2.3549     | 2.8791     |  34.8 | 73.67
Output  | 0.0011642  | 0.0021806  | 0.0032372  |   1.4 |  0.07
Modify  | 0.1267     | 0.38833    | 1.6602     |  79.2 | 12.15
Other   |            | 0.1111     |            |       |  3.48

Nlocal:        10.0208 ave          46 max           0 min
Histogram: 21 8 8 3 2 1 0 2 2 1
Nghost:        1928.85 ave        2414 max        1327 min
Histogram: 8 0 0 0 24 0 0 0 0 16
Neighs:              0 ave           0 max           0 min
Histogram: 48 0 0 0 0 0 0 0 0 0

Total # of neighbors = 0
Ave neighs/atom = 0
Ave special neighs/atom = 15.567568
Neighbor list builds = 20
Dangerous builds = 0
fix             myat1 all ave/time 1000 10 10000 v_zave v_zdes file simulation_data/abpot/${cpt}.dat
fix             myat1 all ave/time 1000 10 10000 v_zave v_zdes file simulation_data/abpot/8.dat
run             50000
Generated 0 of 1 mixed pair_coeff terms from geometric mixing rule
Per MPI rank memory allocation (min/avg/max) = 13.32 | 13.86 | 14.98 Mbytes
   Step          Temp          E_pair         E_mol          TotEng         Press     
    450000   294.7129       379.26674      18506.838      19307.777      97.856218    
    460000   314.45725      365.78538      18511.084      19326.791     -126.14508    
    470000   306.27477      369.89141      18532.906      19341.012     -136.37333    
    480000   304.43399      380.60621      18513.584      19329.771      185.81292    
    490000   291.05281      371.70868      18501.723      19289.867     -44.134112    
    500000   290.22206      373.66367      18542.422      19331.332      0.16824323   
Loop time of 15.6123 on 48 procs for 50000 steps with 481 atoms

Performance: 13.835 ns/day, 1.735 hours/ns, 3202.606 timesteps/s, 1.540 Matom-step/s
100.0% CPU use with 48 MPI tasks x 1 OpenMP threads

MPI task timing breakdown:
Section |  min time  |  avg time  |  max time  |%varavg| %total
---------------------------------------------------------------
Pair    | 0.017333   | 0.73644    | 4.0129     | 121.2 |  4.72
Bond    | 0.0052484  | 0.9246     | 4.3525     | 126.6 |  5.92
Neigh   | 0.027933   | 0.030408   | 0.032572   |   0.8 |  0.19
Comm    | 6.0195     | 11.486     | 14.028     |  76.8 | 73.57
Output  | 0.0059677  | 0.011227   | 0.016429   |   3.2 |  0.07
Modify  | 0.63697    | 1.86       | 7.9994     | 172.9 | 11.91
Other   |            | 0.5634     |            |       |  3.61

Nlocal:        10.0208 ave          40 max           0 min
Histogram: 21 6 6 4 3 0 1 2 3 2
Nghost:        1938.48 ave        2423 max        1335 min
Histogram: 8 0 0 0 24 0 0 0 0 16
Neighs:              0 ave           0 max           0 min
Histogram: 48 0 0 0 0 0 0 0 0 0

Total # of neighbors = 0
Ave neighs/atom = 0
Ave special neighs/atom = 15.567568
Neighbor list builds = 80
Dangerous builds = 0
unfix           myat1
next            cpt
jump            SELF loop
variable        zdes equal  -15+0.60*(${cpt}-1)
variable        zdes equal  -15+0.60*(9-1)
variable        zave equal xcm(H2,z)
fix             mytth2 H2 spring tether ${k1} 2.5 2.5 ${zdes} 0
fix             mytth2 H2 spring tether 5.1 2.5 2.5 ${zdes} 0
fix             mytth2 H2 spring tether 5.1 2.5 2.5 -10.2 0
run             10000
Generated 0 of 1 mixed pair_coeff terms from geometric mixing rule
Per MPI rank memory allocation (min/avg/max) = 13.32 | 13.86 | 14.98 Mbytes
   Step          Temp          E_pair         E_mol          TotEng         Press     
    500000   290.22206      373.66367      18542.422      19331.332      0.16824323   
    510000   306.58567      375.37485      18544.186      19358.22      -4.5762439    
Loop time of 3.14617 on 48 procs for 10000 steps with 481 atoms

Performance: 13.731 ns/day, 1.748 hours/ns, 3178.471 timesteps/s, 1.529 Matom-step/s
100.0% CPU use with 48 MPI tasks x 1 OpenMP threads

MPI task timing breakdown:
Section |  min time  |  avg time  |  max time  |%varavg| %total
---------------------------------------------------------------
Pair    | 0.0034829  | 0.14824    | 0.77522    |  54.0 |  4.71
Bond    | 0.0010495  | 0.18556    | 0.86376    |  56.7 |  5.90
Neigh   | 0.0064627  | 0.0070551  | 0.0075832  |   0.4 |  0.22
Comm    | 1.2573     | 2.3136     | 2.8285     |  34.4 | 73.54
Output  | 0.0011939  | 0.0022191  | 0.003278   |   1.4 |  0.07
Modify  | 0.12755    | 0.37505    | 1.5905     |  77.7 | 11.92
Other   |            | 0.1145     |            |       |  3.64

Nlocal:        10.0208 ave          44 max           0 min
Histogram: 21 5 11 2 1 2 2 0 1 3
Nghost:        1927.85 ave        2405 max        1329 min
Histogram: 8 0 0 0 24 0 0 0 0 16
Neighs:              0 ave           0 max           0 min
Histogram: 48 0 0 0 0 0 0 0 0 0

Total # of neighbors = 0
Ave neighs/atom = 0
Ave special neighs/atom = 15.567568
Neighbor list builds = 19
Dangerous builds = 0
fix             myat1 all ave/time 1000 10 10000 v_zave v_zdes file simulation_data/abpot/${cpt}.dat
fix             myat1 all ave/time 1000 10 10000 v_zave v_zdes file simulation_data/abpot/9.dat
run             50000
Generated 0 of 1 mixed pair_coeff terms from geometric mixing rule
Per MPI rank memory allocation (min/avg/max) = 13.32 | 13.86 | 14.98 Mbytes
   Step          Temp          E_pair         E_mol          TotEng         Press     
    510000   306.58567      375.37485      18544.186      19358.22      -4.5762439    
    520000   304.48707      369.61047      18540.144      19345.411     -37.189421    
    530000   296.21473      382.86165      18547.878      19354.56       35.378656    
    540000   301.33491      379.12629      18535.365      19345.638     -30.23547     
    550000   294.25048      373.40293      18537.172      19331.585     -155.10511    
    560000   293.53193      365.64326      18531.92       19317.546     -259.75156    
Loop time of 15.7259 on 48 procs for 50000 steps with 481 atoms

Performance: 13.735 ns/day, 1.747 hours/ns, 3179.471 timesteps/s, 1.529 Matom-step/s
100.0% CPU use with 48 MPI tasks x 1 OpenMP threads

MPI task timing breakdown:
Section |  min time  |  avg time  |  max time  |%varavg| %total
---------------------------------------------------------------
Pair    | 0.017409   | 0.73652    | 3.8019     | 121.9 |  4.68
Bond    | 0.0052604  | 0.92526    | 4.1846     | 127.1 |  5.88
Neigh   | 0.026363   | 0.028644   | 0.030644   |   0.7 |  0.18
Comm    | 6.542      | 11.565     | 14.124     |  77.4 | 73.54
Output  | 0.0060923  | 0.011389   | 0.016632   |   3.2 |  0.07
Modify  | 0.6352     | 1.892      | 8.1262     | 173.9 | 12.03
Other   |            | 0.5666     |            |       |  3.60

Nlocal:        10.0208 ave          47 max           0 min
Histogram: 22 6 9 3 1 0 3 2 1 1
Nghost:         1932.6 ave        2416 max        1335 min
Histogram: 8 0 0 0 24 0 0 0 0 16
Neighs:              0 ave           0 max           0 min
Histogram: 48 0 0 0 0 0 0 0 0 0

Total # of neighbors = 0
Ave neighs/atom = 0
Ave special neighs/atom = 15.567568
Neighbor list builds = 74
Dangerous builds = 0
unfix           myat1
next            cpt
jump            SELF loop
variable        zdes equal  -15+0.60*(${cpt}-1)
variable        zdes equal  -15+0.60*(10-1)
variable        zave equal xcm(H2,z)
fix             mytth2 H2 spring tether ${k1} 2.5 2.5 ${zdes} 0
fix             mytth2 H2 spring tether 5.1 2.5 2.5 ${zdes} 0
fix             mytth2 H2 spring tether 5.1 2.5 2.5 -9.6 0
run             10000
Generated 0 of 1 mixed pair_coeff terms from geometric mixing rule
Per MPI rank memory allocation (min/avg/max) = 13.32 | 13.86 | 14.98 Mbytes
   Step          Temp          E_pair         E_mol          TotEng         Press     
    560000   293.53193      365.64326      18531.92       19317.546     -259.75156    
    570000   308.63887      374.06332      18536.176      19351.836     -94.011005    
Loop time of 3.22633 on 48 procs for 10000 steps with 481 atoms

Performance: 13.390 ns/day, 1.792 hours/ns, 3099.496 timesteps/s, 1.491 Matom-step/s
100.0% CPU use with 48 MPI tasks x 1 OpenMP threads

MPI task timing breakdown:
Section |  min time  |  avg time  |  max time  |%varavg| %total
---------------------------------------------------------------
Pair    | 0.0035514  | 0.14713    | 0.77915    |  54.9 |  4.56
Bond    | 0.001074   | 0.18488    | 0.86089    |  57.1 |  5.73
Neigh   | 0.0055769  | 0.0061482  | 0.0065981  |   0.4 |  0.19
Comm    | 1.3537     | 2.3773     | 2.9107     |  35.6 | 73.68
Output  | 0.0012715  | 0.0023107  | 0.0034043  |   1.4 |  0.07
Modify  | 0.12308    | 0.39509    | 1.7243     |  81.6 | 12.25
Other   |            | 0.1135     |            |       |  3.52

Nlocal:        10.0208 ave          52 max           0 min
Histogram: 23 9 8 1 0 3 0 2 1 1
Nghost:         1930.6 ave        2410 max        1331 min
Histogram: 8 0 0 0 24 0 0 0 0 16
Neighs:              0 ave           0 max           0 min
Histogram: 48 0 0 0 0 0 0 0 0 0

Total # of neighbors = 0
Ave neighs/atom = 0
Ave special neighs/atom = 15.567568
Neighbor list builds = 16
Dangerous builds = 0
fix             myat1 all ave/time 1000 10 10000 v_zave v_zdes file simulation_data/abpot/${cpt}.dat
fix             myat1 all ave/time 1000 10 10000 v_zave v_zdes file simulation_data/abpot/10.dat
run             50000
Generated 0 of 1 mixed pair_coeff terms from geometric mixing rule
Per MPI rank memory allocation (min/avg/max) = 13.32 | 13.86 | 14.98 Mbytes
   Step          Temp          E_pair         E_mol          TotEng         Press     
    570000   308.63887      374.06332      18536.176      19351.836     -94.011005    
    580000   308.8292       368.90966      18561.993      19372.772     -161.55235    
    590000   296.9551       380.42037      18559.428      19364.728      57.498357    
    600000   282.12371      370.20142      18514.724      19288.585     -217.74947    
    610000   294.10722      368.78817      18529.618      19319.212     -110.45874    
    620000   284.86147      372.84057      18559.516      19339.933     -146.77907    
Loop time of 16.078 on 48 procs for 50000 steps with 481 atoms

Performance: 13.435 ns/day, 1.786 hours/ns, 3109.849 timesteps/s, 1.496 Matom-step/s
100.0% CPU use with 48 MPI tasks x 1 OpenMP threads

MPI task timing breakdown:
Section |  min time  |  avg time  |  max time  |%varavg| %total
---------------------------------------------------------------
Pair    | 0.017523   | 0.73831    | 3.8581     | 122.6 |  4.59
Bond    | 0.005284   | 0.92589    | 4.1926     | 127.9 |  5.76
Neigh   | 0.018752   | 0.020535   | 0.021981   |   0.7 |  0.13
Comm    | 6.8552     | 11.852     | 14.501     |  78.2 | 73.71
Output  | 0.0062887  | 0.011545   | 0.016765   |   3.2 |  0.07
Modify  | 0.61886    | 1.9596     | 8.4433     | 178.6 | 12.19
Other   |            | 0.5704     |            |       |  3.55

Nlocal:        10.0208 ave          41 max           0 min
Histogram: 21 6 10 2 1 0 1 2 3 2
Nghost:         1927.6 ave        2402 max        1332 min
Histogram: 8 0 0 0 24 0 0 0 0 16
Neighs:              0 ave           0 max           0 min
Histogram: 48 0 0 0 0 0 0 0 0 0

Total # of neighbors = 0
Ave neighs/atom = 0
Ave special neighs/atom = 15.567568
Neighbor list builds = 52
Dangerous builds = 0
unfix           myat1
next            cpt
jump            SELF loop
variable        zdes equal  -15+0.60*(${cpt}-1)
variable        zdes equal  -15+0.60*(11-1)
variable        zave equal xcm(H2,z)
fix             mytth2 H2 spring tether ${k1} 2.5 2.5 ${zdes} 0
fix             mytth2 H2 spring tether 5.1 2.5 2.5 ${zdes} 0
fix             mytth2 H2 spring tether 5.1 2.5 2.5 -9 0
run             10000
Generated 0 of 1 mixed pair_coeff terms from geometric mixing rule
Per MPI rank memory allocation (min/avg/max) = 13.32 | 13.86 | 14.98 Mbytes
   Step          Temp          E_pair         E_mol          TotEng         Press     
    620000   284.86147      372.84057      18559.516      19339.933     -146.77907    
    630000   293.08257      390.21576      18514.62       19324.175      42.732937    
Loop time of 3.40734 on 48 procs for 10000 steps with 481 atoms

Performance: 12.679 ns/day, 1.893 hours/ns, 2934.841 timesteps/s, 1.412 Matom-step/s
100.0% CPU use with 48 MPI tasks x 1 OpenMP threads

MPI task timing breakdown:
Section |  min time  |  avg time  |  max time  |%varavg| %total
---------------------------------------------------------------
Pair    | 0.0034877  | 0.14891    | 0.83486    |  55.8 |  4.37
Bond    | 0.001048   | 0.18527    | 0.86473    |  57.5 |  5.44
Neigh   | 0.0046094  | 0.0050516  | 0.0053772  |   0.3 |  0.15
Comm    | 1.3874     | 2.5136     | 3.0906     |  36.6 | 73.77
Output  | 0.0012361  | 0.0022648  | 0.0033213  |   1.4 |  0.07
Modify  | 0.12742    | 0.43825    | 1.8889     |  85.4 | 12.86
Other   |            | 0.114      |            |       |  3.35

Nlocal:        10.0208 ave          41 max           0 min
Histogram: 22 3 10 5 0 1 0 2 3 2
Nghost:         1928.6 ave        2412 max        1335 min
Histogram: 8 0 0 0 24 0 0 0 0 16
Neighs:              0 ave           0 max           0 min
Histogram: 48 0 0 0 0 0 0 0 0 0

Total # of neighbors = 0
Ave neighs/atom = 0
Ave special neighs/atom = 15.567568
Neighbor list builds = 12
Dangerous builds = 0
fix             myat1 all ave/time 1000 10 10000 v_zave v_zdes file simulation_data/abpot/${cpt}.dat
fix             myat1 all ave/time 1000 10 10000 v_zave v_zdes file simulation_data/abpot/11.dat
run             50000
Generated 0 of 1 mixed pair_coeff terms from geometric mixing rule
Per MPI rank memory allocation (min/avg/max) = 13.32 | 13.86 | 14.98 Mbytes
   Step          Temp          E_pair         E_mol          TotEng         Press     
    630000   293.08257      390.21576      18514.62       19324.175      42.732937    
    640000   308.51141      391.7684       18506.375      19339.559     -31.99014     
    650000   319.99617      391.68894      18529.097      19378.633      145.17805    
    660000   288.95998      390.26727      18555.615      19359.323     -79.338035    
    670000   302.94358      392.18698      18513.049      19338.684     -100.576      
    680000   296.90281      396.87619      18505.509      19327.191      99.529781    
Loop time of 16.2108 on 48 procs for 50000 steps with 481 atoms

Performance: 13.324 ns/day, 1.801 hours/ns, 3084.367 timesteps/s, 1.484 Matom-step/s
100.0% CPU use with 48 MPI tasks x 1 OpenMP threads

MPI task timing breakdown:
Section |  min time  |  avg time  |  max time  |%varavg| %total
---------------------------------------------------------------
Pair    | 0.017245   | 0.74568    | 4.0515     | 124.6 |  4.60
Bond    | 0.0052688  | 0.92543    | 3.88       | 126.1 |  5.71
Neigh   | 0.021136   | 0.023074   | 0.024592   |   0.7 |  0.14
Comm    | 6.9532     | 11.953     | 14.66      |  79.7 | 73.73
Output  | 0.0061654  | 0.011437   | 0.016649   |   3.2 |  0.07
Modify  | 0.62488    | 1.9911     | 8.612      | 183.7 | 12.28
Other   |            | 0.5613     |            |       |  3.46

Nlocal:        10.0208 ave          56 max           0 min
Histogram: 21 11 9 2 0 1 0 3 0 1
Nghost:        1930.85 ave        2408 max        1317 min
Histogram: 8 0 0 0 24 0 0 0 0 16
Neighs:              0 ave           0 max           0 min
Histogram: 48 0 0 0 0 0 0 0 0 0

Total # of neighbors = 0
Ave neighs/atom = 0
Ave special neighs/atom = 15.567568
Neighbor list builds = 58
Dangerous builds = 0
unfix           myat1
next            cpt
jump            SELF loop
variable        zdes equal  -15+0.60*(${cpt}-1)
variable        zdes equal  -15+0.60*(12-1)
variable        zave equal xcm(H2,z)
fix             mytth2 H2 spring tether ${k1} 2.5 2.5 ${zdes} 0
fix             mytth2 H2 spring tether 5.1 2.5 2.5 ${zdes} 0
fix             mytth2 H2 spring tether 5.1 2.5 2.5 -8.4 0
run             10000
Generated 0 of 1 mixed pair_coeff terms from geometric mixing rule
Per MPI rank memory allocation (min/avg/max) = 13.32 | 13.86 | 14.98 Mbytes
   Step          Temp          E_pair         E_mol          TotEng         Press     
    680000   296.90281      396.87619      18505.509      19327.191      99.529781    
    690000   299.89663      392.35321      18540.393      19361.835     -51.814678    
Loop time of 3.23421 on 48 procs for 10000 steps with 481 atoms

Performance: 13.357 ns/day, 1.797 hours/ns, 3091.943 timesteps/s, 1.487 Matom-step/s
100.0% CPU use with 48 MPI tasks x 1 OpenMP threads

MPI task timing breakdown:
Section |  min time  |  avg time  |  max time  |%varavg| %total
---------------------------------------------------------------
Pair    | 0.0035057  | 0.14926    | 0.79263    |  55.6 |  4.62
Bond    | 0.0010509  | 0.18516    | 0.74285    |  56.2 |  5.72
Neigh   | 0.0053634  | 0.0058151  | 0.0061912  |   0.4 |  0.18
Comm    | 1.3624     | 2.378      | 2.9206     |  35.2 | 73.53
Output  | 0.0012154  | 0.0022424  | 0.0033038  |   1.4 |  0.07
Modify  | 0.12484    | 0.40229    | 1.7425     |  81.0 | 12.44
Other   |            | 0.1114     |            |       |  3.44

Nlocal:        10.0208 ave          52 max           0 min
Histogram: 24 6 8 3 1 2 1 1 1 1
Nghost:         1929.6 ave        2418 max        1321 min
Histogram: 8 0 0 0 24 0 0 0 0 16
Neighs:              0 ave           0 max           0 min
Histogram: 48 0 0 0 0 0 0 0 0 0

Total # of neighbors = 0
Ave neighs/atom = 0
Ave special neighs/atom = 15.567568
Neighbor list builds = 15
Dangerous builds = 0
fix             myat1 all ave/time 1000 10 10000 v_zave v_zdes file simulation_data/abpot/${cpt}.dat
fix             myat1 all ave/time 1000 10 10000 v_zave v_zdes file simulation_data/abpot/12.dat
run             50000
Generated 0 of 1 mixed pair_coeff terms from geometric mixing rule
Per MPI rank memory allocation (min/avg/max) = 13.32 | 13.86 | 14.98 Mbytes
   Step          Temp          E_pair         E_mol          TotEng         Press     
    690000   299.89663      392.35321      18540.393      19361.835     -51.814678    
    700000   295.16171      385.88019      18558.84       19367.034     -216.11914    
    710000   287.42481      397.45533      18528.902      19337.601     -66.497996    
    720000   289.76         397.53022      18534.109      19346.225      26.794438    
    730000   307.15083      381.97424      18527.602      19349.044     -311.6681     
    740000   300.07232      395.23756      18541.473      19366.051     -28.425223    
Loop time of 16.651 on 48 procs for 50000 steps with 481 atoms

Performance: 12.972 ns/day, 1.850 hours/ns, 3002.824 timesteps/s, 1.444 Matom-step/s
100.0% CPU use with 48 MPI tasks x 1 OpenMP threads

MPI task timing breakdown:
Section |  min time  |  avg time  |  max time  |%varavg| %total
---------------------------------------------------------------
Pair    | 0.017734   | 0.74621    | 4.1586     | 125.4 |  4.48
Bond    | 0.005282   | 0.92554    | 3.8548     | 126.2 |  5.56
Neigh   | 0.028101   | 0.030718   | 0.032837   |   0.9 |  0.18
Comm    | 6.873      | 12.317     | 15.071     |  82.4 | 73.97
Output  | 0.0062737  | 0.011453   | 0.016598   |   3.1 |  0.07
Modify  | 0.62919    | 2.055      | 9.1214     | 192.9 | 12.34
Other   |            | 0.5651     |            |       |  3.39

Nlocal:        10.0208 ave          43 max           0 min
Histogram: 20 8 7 5 0 1 1 3 2 1
Nghost:         1928.1 ave        2407 max        1330 min
Histogram: 8 0 0 0 24 0 0 0 0 16
Neighs:              0 ave           0 max           0 min
Histogram: 48 0 0 0 0 0 0 0 0 0

Total # of neighbors = 0
Ave neighs/atom = 0
Ave special neighs/atom = 15.567568
Neighbor list builds = 77
Dangerous builds = 0
unfix           myat1
next            cpt
jump            SELF loop
variable        zdes equal  -15+0.60*(${cpt}-1)
variable        zdes equal  -15+0.60*(13-1)
variable        zave equal xcm(H2,z)
fix             mytth2 H2 spring tether ${k1} 2.5 2.5 ${zdes} 0
fix             mytth2 H2 spring tether 5.1 2.5 2.5 ${zdes} 0
fix             mytth2 H2 spring tether 5.1 2.5 2.5 -7.8 0
run             10000
Generated 0 of 1 mixed pair_coeff terms from geometric mixing rule
Per MPI rank memory allocation (min/avg/max) = 13.32 | 13.86 | 14.98 Mbytes
   Step          Temp          E_pair         E_mol          TotEng         Press     
    740000   300.07232      395.23756      18541.473      19366.051     -28.425223    
    750000   312.05798      400.48629      18520.592      19367.567      243.6667     
Loop time of 3.20284 on 48 procs for 10000 steps with 481 atoms

Performance: 13.488 ns/day, 1.779 hours/ns, 3122.233 timesteps/s, 1.502 Matom-step/s
100.0% CPU use with 48 MPI tasks x 1 OpenMP threads

MPI task timing breakdown:
Section |  min time  |  avg time  |  max time  |%varavg| %total
---------------------------------------------------------------
Pair    | 0.0034995  | 0.14957    | 0.79942    |  55.6 |  4.67
Bond    | 0.0010678  | 0.18532    | 0.81512    |  56.5 |  5.79
Neigh   | 0.0091468  | 0.010071   | 0.010826   |   0.5 |  0.31
Comm    | 1.3418     | 2.3553     | 2.8858     |  35.7 | 73.54
Output  | 0.0012247  | 0.0022493  | 0.0033031  |   1.4 |  0.07
Modify  | 0.12699    | 0.38795    | 1.7267     |  81.8 | 12.11
Other   |            | 0.1124     |            |       |  3.51

Nlocal:        10.0208 ave          42 max           0 min
Histogram: 22 6 4 7 1 1 1 2 2 2
Nghost:        1933.23 ave        2418 max        1333 min
Histogram: 8 0 0 0 24 0 0 0 0 16
Neighs:              0 ave           0 max           0 min
Histogram: 48 0 0 0 0 0 0 0 0 0

Total # of neighbors = 0
Ave neighs/atom = 0
Ave special neighs/atom = 15.567568
Neighbor list builds = 26
Dangerous builds = 0
fix             myat1 all ave/time 1000 10 10000 v_zave v_zdes file simulation_data/abpot/${cpt}.dat
fix             myat1 all ave/time 1000 10 10000 v_zave v_zdes file simulation_data/abpot/13.dat
run             50000
Generated 0 of 1 mixed pair_coeff terms from geometric mixing rule
Per MPI rank memory allocation (min/avg/max) = 13.32 | 13.86 | 14.98 Mbytes
   Step          Temp          E_pair         E_mol          TotEng         Press     
    750000   312.05798      400.48629      18520.592      19367.567      243.6667     
    760000   298.14581      388.47951      18527.376      19342.439     -247.41346    
    770000   291.5816       398.43709      18504.413      19320.042      92.00318     
    780000   293.49033      394.85368      18493.193      19307.969      97.864914    
    790000   307.17833      384.28451      18536.88       19360.672     -313.25946    
    800000   304.9944       396.91191      18526.087      19359.382      2.9087359    
Loop time of 16.1947 on 48 procs for 50000 steps with 481 atoms

Performance: 13.338 ns/day, 1.799 hours/ns, 3087.424 timesteps/s, 1.485 Matom-step/s
100.0% CPU use with 48 MPI tasks x 1 OpenMP threads

MPI task timing breakdown:
Section |  min time  |  avg time  |  max time  |%varavg| %total
---------------------------------------------------------------
Pair    | 0.017611   | 0.74677    | 4.1394     | 124.9 |  4.61
Bond    | 0.0053532  | 0.92559    | 3.7994     | 126.1 |  5.72
Neigh   | 0.043082   | 0.046988   | 0.050321   |   1.0 |  0.29
Comm    | 7.0111     | 11.947     | 14.691     |  79.7 | 73.77
Output  | 0.0059687  | 0.011117   | 0.016217   |   3.1 |  0.07
Modify  | 0.63584    | 1.9571     | 8.517      | 183.6 | 12.08
Other   |            | 0.5602     |            |       |  3.46

Nlocal:        10.0208 ave          40 max           0 min
Histogram: 20 7 6 4 3 0 1 3 0 4
Nghost:         1923.6 ave        2399 max        1336 min
Histogram: 8 0 0 0 24 0 0 0 0 16
Neighs:              0 ave           0 max           0 min
Histogram: 48 0 0 0 0 0 0 0 0 0

Total # of neighbors = 0
Ave neighs/atom = 0
Ave special neighs/atom = 15.567568
Neighbor list builds = 119
Dangerous builds = 0
unfix           myat1
next            cpt
jump            SELF loop
variable        zdes equal  -15+0.60*(${cpt}-1)
variable        zdes equal  -15+0.60*(14-1)
variable        zave equal xcm(H2,z)
fix             mytth2 H2 spring tether ${k1} 2.5 2.5 ${zdes} 0
fix             mytth2 H2 spring tether 5.1 2.5 2.5 ${zdes} 0
fix             mytth2 H2 spring tether 5.1 2.5 2.5 -7.2 0
run             10000
Generated 0 of 1 mixed pair_coeff terms from geometric mixing rule
Per MPI rank memory allocation (min/avg/max) = 13.32 | 13.86 | 14.98 Mbytes
   Step          Temp          E_pair         E_mol          TotEng         Press     
    800000   304.9944       396.91191      18526.087      19359.382      2.9087359    
    810000   306.62826      397.68365      18498.62       19335.024      10.728981    
Loop time of 3.15011 on 48 procs for 10000 steps with 481 atoms

Performance: 13.714 ns/day, 1.750 hours/ns, 3174.492 timesteps/s, 1.527 Matom-step/s
100.0% CPU use with 48 MPI tasks x 1 OpenMP threads

MPI task timing breakdown:
Section |  min time  |  avg time  |  max time  |%varavg| %total
---------------------------------------------------------------
Pair    | 0.0034484  | 0.14928    | 0.8421     |  55.7 |  4.74
Bond    | 0.0010629  | 0.18507    | 0.77611    |  56.6 |  5.88
Neigh   | 0.0066077  | 0.0071969  | 0.0077322  |   0.4 |  0.23
Comm    | 1.2923     | 2.3148     | 2.8418     |  35.3 | 73.48
Output  | 0.0012061  | 0.0022428  | 0.0033063  |   1.4 |  0.07
Modify  | 0.12467    | 0.3786     | 1.6466     |  79.7 | 12.02
Other   |            | 0.1129     |            |       |  3.58

Nlocal:        10.0208 ave          39 max           0 min
Histogram: 21 4 7 7 1 0 1 1 4 2
Nghost:        1931.98 ave        2413 max        1338 min
Histogram: 8 0 0 0 24 0 0 0 0 16
Neighs:              0 ave           0 max           0 min
Histogram: 48 0 0 0 0 0 0 0 0 0

Total # of neighbors = 0
Ave neighs/atom = 0
Ave special neighs/atom = 15.567568
Neighbor list builds = 19
Dangerous builds = 0
fix             myat1 all ave/time 1000 10 10000 v_zave v_zdes file simulation_data/abpot/${cpt}.dat
fix             myat1 all ave/time 1000 10 10000 v_zave v_zdes file simulation_data/abpot/14.dat
run             50000
Generated 0 of 1 mixed pair_coeff terms from geometric mixing rule
Per MPI rank memory allocation (min/avg/max) = 13.32 | 13.86 | 14.98 Mbytes
   Step          Temp          E_pair         E_mol          TotEng         Press     
    810000   306.62826      397.68365      18498.62       19335.024      10.728981    
    820000   271.52155      380.70666      18555.304      19324.501     -396.1489     
    830000   309.11397      387.70614      18519.342      19349.325     -210.2588     
    840000   310.67699      388.10286      18535.459      19368.075     -195.01787    
    850000   286.08729      386.13708      18541.106      19336.574     -233.45612    
    860000   304.51779      394.80256      18523.796      19354.299     -83.440659    
Loop time of 15.6587 on 48 procs for 50000 steps with 481 atoms

Performance: 13.794 ns/day, 1.740 hours/ns, 3193.122 timesteps/s, 1.536 Matom-step/s
100.0% CPU use with 48 MPI tasks x 1 OpenMP threads

MPI task timing breakdown:
Section |  min time  |  avg time  |  max time  |%varavg| %total
---------------------------------------------------------------
Pair    | 0.017469   | 0.74764    | 4.1511     | 125.3 |  4.77
Bond    | 0.005296   | 0.92548    | 3.7827     | 125.9 |  5.91
Neigh   | 0.03165    | 0.034558   | 0.037093   |   0.8 |  0.22
Comm    | 6.6902     | 11.512     | 14.136     |  76.6 | 73.52
Output  | 0.0057722  | 0.010936   | 0.01641    |   3.2 |  0.07
Modify  | 0.63391    | 1.8676     | 8.0195     | 170.9 | 11.93
Other   |            | 0.5603     |            |       |  3.58

Nlocal:        10.0208 ave          41 max           0 min
Histogram: 21 8 5 4 3 0 1 1 2 3
Nghost:         1935.1 ave        2417 max        1334 min
Histogram: 8 0 0 0 24 0 0 0 0 16
Neighs:              0 ave           0 max           0 min
Histogram: 48 0 0 0 0 0 0 0 0 0

Total # of neighbors = 0
Ave neighs/atom = 0
Ave special neighs/atom = 15.567568
Neighbor list builds = 92
Dangerous builds = 0
unfix           myat1
next            cpt
jump            SELF loop
variable        zdes equal  -15+0.60*(${cpt}-1)
variable        zdes equal  -15+0.60*(15-1)
variable        zave equal xcm(H2,z)
fix             mytth2 H2 spring tether ${k1} 2.5 2.5 ${zdes} 0
fix             mytth2 H2 spring tether 5.1 2.5 2.5 ${zdes} 0
fix             mytth2 H2 spring tether 5.1 2.5 2.5 -6.6 0
run             10000
Generated 0 of 1 mixed pair_coeff terms from geometric mixing rule
Per MPI rank memory allocation (min/avg/max) = 13.32 | 13.86 | 14.98 Mbytes
   Step          Temp          E_pair         E_mol          TotEng         Press     
    860000   304.51779      394.80256      18523.796      19354.299     -83.440659    
    870000   317.14042      381.72215      18539.632      19375.115     -291.06261    
Loop time of 3.18615 on 48 procs for 10000 steps with 481 atoms

Performance: 13.559 ns/day, 1.770 hours/ns, 3138.584 timesteps/s, 1.510 Matom-step/s
100.0% CPU use with 48 MPI tasks x 1 OpenMP threads

MPI task timing breakdown:
Section |  min time  |  avg time  |  max time  |%varavg| %total
---------------------------------------------------------------
Pair    | 0.003469   | 0.14948    | 0.81059    |  55.9 |  4.69
Bond    | 0.0010566  | 0.18512    | 0.76475    |  56.4 |  5.81
Neigh   | 0.0079286  | 0.0086586  | 0.0093007  |   0.4 |  0.27
Comm    | 1.3722     | 2.3527     | 2.8783     |  35.0 | 73.84
Output  | 0.0011962  | 0.0022174  | 0.0032824  |   1.4 |  0.07
Modify  | 0.12472    | 0.37646    | 1.6817     |  79.8 | 11.82
Other   |            | 0.1115     |            |       |  3.50

Nlocal:        10.0208 ave          48 max           0 min
Histogram: 21 8 8 4 0 0 3 3 0 1
Nghost:         1930.1 ave        2410 max        1338 min
Histogram: 8 0 0 0 24 0 0 0 0 16
Neighs:              0 ave           0 max           0 min
Histogram: 48 0 0 0 0 0 0 0 0 0

Total # of neighbors = 0
Ave neighs/atom = 0
Ave special neighs/atom = 15.567568
Neighbor list builds = 22
Dangerous builds = 0
fix             myat1 all ave/time 1000 10 10000 v_zave v_zdes file simulation_data/abpot/${cpt}.dat
fix             myat1 all ave/time 1000 10 10000 v_zave v_zdes file simulation_data/abpot/15.dat
run             50000
Generated 0 of 1 mixed pair_coeff terms from geometric mixing rule
Per MPI rank memory allocation (min/avg/max) = 13.32 | 13.86 | 14.98 Mbytes
   Step          Temp          E_pair         E_mol          TotEng         Press     
    870000   317.14042      381.72215      18539.632      19375.115     -291.06261    
    880000   313.00061      391.37667      18494.89       19334.105     -67.937181    
    890000   282.47911      396.77618      18508.834      19309.779      91.432186    
    900000   289.61865      388.31552      18528.826      19331.525     -138.67524    
    910000   294.43338      391.86629      18530.203      19343.341     -147.60798    
    920000   304.47003      397.64035      18526.904      19360.177      170.05324    
Loop time of 15.4281 on 48 procs for 50000 steps with 481 atoms

Performance: 14.000 ns/day, 1.714 hours/ns, 3240.838 timesteps/s, 1.559 Matom-step/s
100.0% CPU use with 48 MPI tasks x 1 OpenMP threads

MPI task timing breakdown:
Section |  min time  |  avg time  |  max time  |%varavg| %total
---------------------------------------------------------------
Pair    | 0.01754    | 0.74704    | 4.1572     | 125.4 |  4.84
Bond    | 0.0052398  | 0.925      | 3.876      | 126.0 |  6.00
Neigh   | 0.035455   | 0.038786   | 0.041628   |   0.9 |  0.25
Comm    | 6.4812     | 11.292     | 13.83      |  76.4 | 73.19
Output  | 0.0062955  | 0.01146    | 0.016588   |   3.1 |  0.07
Modify  | 0.64082    | 1.8584     | 7.9333     | 167.6 | 12.05
Other   |            | 0.5554     |            |       |  3.60

Nlocal:        10.0208 ave          47 max           0 min
Histogram: 20 8 10 2 0 2 3 2 0 1
Nghost:        1923.73 ave        2402 max        1326 min
Histogram: 8 0 0 0 24 0 0 0 0 16
Neighs:              0 ave           0 max           0 min
Histogram: 48 0 0 0 0 0 0 0 0 0

Total # of neighbors = 0
Ave neighs/atom = 0
Ave special neighs/atom = 15.567568
Neighbor list builds = 103
Dangerous builds = 0
unfix           myat1
next            cpt
jump            SELF loop
variable        zdes equal  -15+0.60*(${cpt}-1)
variable        zdes equal  -15+0.60*(16-1)
variable        zave equal xcm(H2,z)
fix             mytth2 H2 spring tether ${k1} 2.5 2.5 ${zdes} 0
fix             mytth2 H2 spring tether 5.1 2.5 2.5 ${zdes} 0
fix             mytth2 H2 spring tether 5.1 2.5 2.5 -6 0
run             10000
Generated 0 of 1 mixed pair_coeff terms from geometric mixing rule
Per MPI rank memory allocation (min/avg/max) = 13.32 | 13.86 | 14.98 Mbytes
   Step          Temp          E_pair         E_mol          TotEng         Press     
    920000   304.47003      397.64035      18526.904      19360.177      170.05324    
    930000   298.80695      393.51285      18520.548      19341.59       57.205129    
Loop time of 3.14926 on 48 procs for 10000 steps with 481 atoms

Performance: 13.718 ns/day, 1.750 hours/ns, 3175.348 timesteps/s, 1.527 Matom-step/s
100.0% CPU use with 48 MPI tasks x 1 OpenMP threads

MPI task timing breakdown:
Section |  min time  |  avg time  |  max time  |%varavg| %total
---------------------------------------------------------------
Pair    | 0.003472   | 0.14997    | 0.83723    |  56.0 |  4.76
Bond    | 0.0010448  | 0.18542    | 0.81845    |  56.7 |  5.89
Neigh   | 0.010586   | 0.011534   | 0.012351   |   0.5 |  0.37
Comm    | 1.3208     | 2.3241     | 2.8495     |  34.1 | 73.80
Output  | 0.0011451  | 0.0021815  | 0.0033757  |   1.4 |  0.07
Modify  | 0.12928    | 0.36407    | 1.6093     |  76.3 | 11.56
Other   |            | 0.112      |            |       |  3.56

Nlocal:        10.0208 ave          44 max           0 min
Histogram: 21 4 13 2 0 1 3 2 1 1
Nghost:        1930.35 ave        2411 max        1329 min
Histogram: 8 0 0 0 24 0 0 0 0 16
Neighs:              0 ave           0 max           0 min
Histogram: 48 0 0 0 0 0 0 0 0 0

Total # of neighbors = 0
Ave neighs/atom = 0
Ave special neighs/atom = 15.567568
Neighbor list builds = 30
Dangerous builds = 0
fix             myat1 all ave/time 1000 10 10000 v_zave v_zdes file simulation_data/abpot/${cpt}.dat
fix             myat1 all ave/time 1000 10 10000 v_zave v_zdes file simulation_data/abpot/16.dat
run             50000
Generated 0 of 1 mixed pair_coeff terms from geometric mixing rule
Per MPI rank memory allocation (min/avg/max) = 13.32 | 13.86 | 14.98 Mbytes
   Step          Temp          E_pair         E_mol          TotEng         Press     
    930000   298.80695      393.51285      18520.548      19341.59       57.205129    
    940000   287.94963      388.20417      18529.939      19330.139     -78.837768    
    950000   304.13367      382.38821      18548.185      19365.724     -247.46488    
    960000   311.95093      401.52976      18511.775      19359.64       255.43078    
    970000   290.47357      389.11308      18511.467      19316.186     -280.86397    
    980000   290.12684      394.50576      18486.598      19296.214      40.882847    
Loop time of 15.3167 on 48 procs for 50000 steps with 481 atoms

Performance: 14.102 ns/day, 1.702 hours/ns, 3264.401 timesteps/s, 1.570 Matom-step/s
100.0% CPU use with 48 MPI tasks x 1 OpenMP threads

MPI task timing breakdown:
Section |  min time  |  avg time  |  max time  |%varavg| %total
---------------------------------------------------------------
Pair    | 0.017391   | 0.74726    | 4.1899     | 125.2 |  4.88
Bond    | 0.0053441  | 0.92532    | 3.7797     | 126.1 |  6.04
Neigh   | 0.054764   | 0.059825   | 0.064278   |   1.1 |  0.39
Comm    | 6.2312     | 11.202     | 13.689     |  75.5 | 73.13
Output  | 0.005926   | 0.011161   | 0.016663   |   3.2 |  0.07
Modify  | 0.64045    | 1.8156     | 7.5942     | 163.8 | 11.85
Other   |            | 0.5559     |            |       |  3.63

Nlocal:        10.0208 ave          47 max           0 min
Histogram: 23 7 5 5 1 1 2 2 1 1
Nghost:        1930.23 ave        2417 max        1326 min
Histogram: 8 0 0 0 24 0 0 0 0 16
Neighs:              0 ave           0 max           0 min
Histogram: 48 0 0 0 0 0 0 0 0 0

Total # of neighbors = 0
Ave neighs/atom = 0
Ave special neighs/atom = 15.567568
Neighbor list builds = 161
Dangerous builds = 0
unfix           myat1
next            cpt
jump            SELF loop
variable        zdes equal  -15+0.60*(${cpt}-1)
variable        zdes equal  -15+0.60*(17-1)
variable        zave equal xcm(H2,z)
fix             mytth2 H2 spring tether ${k1} 2.5 2.5 ${zdes} 0
fix             mytth2 H2 spring tether 5.1 2.5 2.5 ${zdes} 0
fix             mytth2 H2 spring tether 5.1 2.5 2.5 -5.4 0
run             10000
Generated 0 of 1 mixed pair_coeff terms from geometric mixing rule
Per MPI rank memory allocation (min/avg/max) = 13.32 | 13.86 | 14.98 Mbytes
   Step          Temp          E_pair         E_mol          TotEng         Press     
    980000   290.12684      394.50576      18486.598      19296.214      40.882847    
    990000   310.13303      395.75823      18511.583      19351.076      66.176085    
Loop time of 3.17308 on 48 procs for 10000 steps with 481 atoms

Performance: 13.615 ns/day, 1.763 hours/ns, 3151.509 timesteps/s, 1.516 Matom-step/s
100.0% CPU use with 48 MPI tasks x 1 OpenMP threads

MPI task timing breakdown:
Section |  min time  |  avg time  |  max time  |%varavg| %total
---------------------------------------------------------------
Pair    | 0.0034541  | 0.1495     | 0.85658    |  56.4 |  4.71
Bond    | 0.0010539  | 0.18481    | 0.75495    |  56.3 |  5.82
Neigh   | 0.0089041  | 0.0097033  | 0.010397   |   0.4 |  0.31
Comm    | 1.3226     | 2.3372     | 2.8701     |  35.2 | 73.66
Output  | 0.0011786  | 0.0022099  | 0.0032624  |   1.4 |  0.07
Modify  | 0.12389    | 0.37949    | 1.6221     |  79.7 | 11.96
Other   |            | 0.1102     |            |       |  3.47

Nlocal:        10.0208 ave          50 max           0 min
Histogram: 20 11 4 6 0 1 3 2 0 1
Nghost:        1930.35 ave        2409 max        1323 min
Histogram: 8 0 0 0 24 0 0 0 0 16
Neighs:              0 ave           0 max           0 min
Histogram: 48 0 0 0 0 0 0 0 0 0

Total # of neighbors = 0
Ave neighs/atom = 0
Ave special neighs/atom = 15.567568
[...]
Section |  min time  |  avg time  |  max time  |%varavg| %total
---------------------------------------------------------------
Pair    | 0.0034748  | 0.14707    | 0.84333    |  54.1 |  4.92
Bond    | 0.001052   | 0.18449    | 0.81693    |  56.4 |  6.18
Neigh   | 0.0019335  | 0.0021013  | 0.0022479  |   0.2 |  0.07
Comm    | 1.133      | 2.1777     | 2.7052     |  33.3 | 72.90
Output  | 0.0011577  | 0.0021923  | 0.003244   |   1.4 |  0.07
Modify  | 0.12827    | 0.36045    | 1.4708     |  72.3 | 12.07
Other   |            | 0.1131     |            |       |  3.79

Nlocal:        10.0208 ave          37 max           0 min
Histogram: 19 9 4 5 3 0 0 0 5 3
Nghost:        1929.48 ave        2408 max        1336 min
Histogram: 8 0 0 0 24 0 0 0 0 16
Neighs:              0 ave           0 max           0 min
Histogram: 48 0 0 0 0 0 0 0 0 0

Total # of neighbors = 0
Ave neighs/atom = 0
Ave special neighs/atom = 15.567568
Neighbor list builds = 6
Dangerous builds = 0
fix             myat1 all ave/time 1000 10 10000 v_zave v_zdes file simulation_data/abpot/${cpt}.dat
fix             myat1 all ave/time 1000 10 10000 v_zave v_zdes file simulation_data/abpot/47.dat
run             50000
Generated 0 of 1 mixed pair_coeff terms from geometric mixing rule
Per MPI rank memory allocation (min/avg/max) = 13.32 | 13.88 | 14.98 Mbytes
   Step          Temp          E_pair         E_mol          TotEng         Press     
   2790000   298.44192      372.43223      18533.043      19332.482     -22.806944    
   2800000   305.38295      370.96064      18532.083      19339.982     -149.01164    
   2810000   312.13765      370.89383      18545.423      19362.92      -14.919716    
   2820000   311.79761      370.23726      18555.302      19371.655     -156.40952    
   2830000   303.79878      366.31057      18510.674      19311.657     -176.35112    
   2840000   294.26902      375.89164      18515.89       19312.819      12.828151    
Loop time of 15.2449 on 48 procs for 50000 steps with 481 atoms

Performance: 14.169 ns/day, 1.694 hours/ns, 3279.779 timesteps/s, 1.578 Matom-step/s
100.0% CPU use with 48 MPI tasks x 1 OpenMP threads

MPI task timing breakdown:
Section |  min time  |  avg time  |  max time  |%varavg| %total
---------------------------------------------------------------
Pair    | 0.017341   | 0.73663    | 4.1361     | 121.4 |  4.83
Bond    | 0.0052193  | 0.92477    | 3.7582     | 126.1 |  6.07
Neigh   | 0.015607   | 0.017026   | 0.018236   |   0.6 |  0.11
Comm    | 6.1359     | 11.185     | 13.783     |  75.0 | 73.37
Output  | 0.0059745  | 0.01145    | 0.016737   |   3.3 |  0.08
Modify  | 0.64841    | 1.8028     | 7.5605     | 165.8 | 11.83
Other   |            | 0.567      |            |       |  3.72

Nlocal:        10.0208 ave          40 max           0 min
Histogram: 19 9 5 4 3 0 0 6 0 2
Nghost:        1924.35 ave        2401 max        1333 min
Histogram: 8 0 0 0 24 0 0 0 0 16
Neighs:              0 ave           0 max           0 min
Histogram: 48 0 0 0 0 0 0 0 0 0

Total # of neighbors = 0
Ave neighs/atom = 0
Ave special neighs/atom = 15.567568
Neighbor list builds = 45
Dangerous builds = 0
unfix           myat1
next            cpt
jump            SELF loop
variable        zdes equal  -15+0.60*(${cpt}-1)
variable        zdes equal  -15+0.60*(48-1)
variable        zave equal xcm(H2,z)
fix             mytth2 H2 spring tether ${k1} 2.5 2.5 ${zdes} 0
fix             mytth2 H2 spring tether 5.1 2.5 2.5 ${zdes} 0
fix             mytth2 H2 spring tether 5.1 2.5 2.5 13.2 0
run             10000
Generated 0 of 1 mixed pair_coeff terms from geometric mixing rule
Per MPI rank memory allocation (min/avg/max) = 13.32 | 13.88 | 14.98 Mbytes
   Step          Temp          E_pair         E_mol          TotEng         Press     
   2840000   294.26902      375.89164      18515.89       19312.819      12.828151    
   2850000   308.48791      375.42268      18533.832      19350.636      14.746572    
Loop time of 3.07075 on 48 procs for 10000 steps with 481 atoms

Performance: 14.068 ns/day, 1.706 hours/ns, 3256.538 timesteps/s, 1.566 Matom-step/s
100.0% CPU use with 48 MPI tasks x 1 OpenMP threads

MPI task timing breakdown:
Section |  min time  |  avg time  |  max time  |%varavg| %total
---------------------------------------------------------------
Pair    | 0.0034604  | 0.14724    | 0.82419    |  54.0 |  4.79
Bond    | 0.001042   | 0.18475    | 0.81791    |  56.5 |  6.02
Neigh   | 0.0030443  | 0.0033463  | 0.0036043  |   0.3 |  0.11
Comm    | 1.2808     | 2.2592     | 2.7793     |  33.7 | 73.57
Output  | 0.0011692  | 0.0022241  | 0.0032976  |   1.4 |  0.07
Modify  | 0.12493    | 0.36139    | 1.5284     |  75.6 | 11.77
Other   |            | 0.1126     |            |       |  3.67

Nlocal:        10.0208 ave          37 max           0 min
Histogram: 21 6 5 4 4 0 0 1 3 4
Nghost:        1933.23 ave        2411 max        1337 min
Histogram: 8 0 0 0 24 0 0 0 0 16
Neighs:              0 ave           0 max           0 min
Histogram: 48 0 0 0 0 0 0 0 0 0

Total # of neighbors = 0
Ave neighs/atom = 0
Ave special neighs/atom = 15.567568
Neighbor list builds = 9
Dangerous builds = 0
fix             myat1 all ave/time 1000 10 10000 v_zave v_zdes file simulation_data/abpot/${cpt}.dat
fix             myat1 all ave/time 1000 10 10000 v_zave v_zdes file simulation_data/abpot/48.dat
run             50000
Generated 0 of 1 mixed pair_coeff terms from geometric mixing rule
Per MPI rank memory allocation (min/avg/max) = 13.32 | 13.88 | 14.98 Mbytes
   Step          Temp          E_pair         E_mol          TotEng         Press     
   2850000   308.48791      375.42268      18533.832      19350.636      14.746572    
   2860000   284.39389      360.92267      18533.961      19301.791     -352.02155    
   2870000   289.72087      371.86308      18512.46       19298.853     -4.869726     
   2880000   285.26481      372.66567      18501.042      19281.861     -1.3090076    
   2890000   305.10726      372.53704      18521.165      19330.247      65.327068    
   2900000   291.99371      372.99336      18533.846      19324.621      89.992903    
Loop time of 15.6071 on 48 procs for 50000 steps with 481 atoms

Performance: 13.840 ns/day, 1.734 hours/ns, 3203.662 timesteps/s, 1.541 Matom-step/s
100.0% CPU use with 48 MPI tasks x 1 OpenMP threads

MPI task timing breakdown:
Section |  min time  |  avg time  |  max time  |%varavg| %total
---------------------------------------------------------------
Pair    | 0.017576   | 0.73502    | 4.2153     | 121.1 |  4.71
Bond    | 0.0052615  | 0.92528    | 4.0016     | 126.8 |  5.93
Neigh   | 0.022248   | 0.024197   | 0.025909   |   0.7 |  0.16
Comm    | 6.4187     | 11.472     | 14.053     |  77.1 | 73.50
Output  | 0.0061209  | 0.011427   | 0.016923   |   3.2 |  0.07
Modify  | 0.63284    | 1.8799     | 8.0076     | 174.4 | 12.05
Other   |            | 0.5596     |            |       |  3.59

Nlocal:        10.0208 ave          46 max           0 min
Histogram: 20 7 10 3 0 2 1 3 0 2
Nghost:        1927.73 ave        2405 max        1327 min
Histogram: 8 0 0 0 24 0 0 0 0 16
Neighs:              0 ave           0 max           0 min
Histogram: 48 0 0 0 0 0 0 0 0 0

Total # of neighbors = 0
Ave neighs/atom = 0
Ave special neighs/atom = 15.567568
Neighbor list builds = 62
Dangerous builds = 0
unfix           myat1
next            cpt
jump            SELF loop
variable        zdes equal  -15+0.60*(${cpt}-1)
variable        zdes equal  -15+0.60*(49-1)
variable        zave equal xcm(H2,z)
fix             mytth2 H2 spring tether ${k1} 2.5 2.5 ${zdes} 0
fix             mytth2 H2 spring tether 5.1 2.5 2.5 ${zdes} 0
fix             mytth2 H2 spring tether 5.1 2.5 2.5 13.8 0
run             10000
Generated 0 of 1 mixed pair_coeff terms from geometric mixing rule
Per MPI rank memory allocation (min/avg/max) = 13.32 | 13.88 | 14.98 Mbytes
   Step          Temp          E_pair         E_mol          TotEng         Press     
   2900000   291.99371      372.99336      18533.846      19324.621      89.992903    
   2910000   313.97215      368.53227      18519.582      19337.342     -92.275407    
Loop time of 3.08093 on 48 procs for 10000 steps with 481 atoms

Performance: 14.022 ns/day, 1.712 hours/ns, 3245.772 timesteps/s, 1.561 Matom-step/s
100.0% CPU use with 48 MPI tasks x 1 OpenMP threads

MPI task timing breakdown:
Section |  min time  |  avg time  |  max time  |%varavg| %total
---------------------------------------------------------------
Pair    | 0.0035462  | 0.14735    | 0.89927    |  54.5 |  4.78
Bond    | 0.0010638  | 0.18592    | 0.83026    |  57.0 |  6.03
Neigh   | 0.0038977  | 0.0042459  | 0.0045598  |   0.3 |  0.14
Comm    | 1.1516     | 2.2607     | 2.7763     |  34.3 | 73.38
Output  | 0.0011906  | 0.0022438  | 0.0033173  |   1.4 |  0.07
Modify  | 0.12814    | 0.36883    | 1.5604     |  76.6 | 11.97
Other   |            | 0.1116     |            |       |  3.62

Nlocal:        10.0208 ave          40 max           0 min
Histogram: 19 6 8 5 2 0 2 0 3 3
Nghost:        1934.48 ave        2423 max        1337 min
Histogram: 8 0 0 0 24 0 0 0 0 16
Neighs:              0 ave           0 max           0 min
Histogram: 48 0 0 0 0 0 0 0 0 0

Total # of neighbors = 0
Ave neighs/atom = 0
Ave special neighs/atom = 15.567568
Neighbor list builds = 11
Dangerous builds = 0
fix             myat1 all ave/time 1000 10 10000 v_zave v_zdes file simulation_data/abpot/${cpt}.dat
fix             myat1 all ave/time 1000 10 10000 v_zave v_zdes file simulation_data/abpot/49.dat
run             50000
Generated 0 of 1 mixed pair_coeff terms from geometric mixing rule
Per MPI rank memory allocation (min/avg/max) = 13.32 | 13.88 | 14.98 Mbytes
   Step          Temp          E_pair         E_mol          TotEng         Press     
   2910000   313.97215      368.53227      18519.582      19337.342     -92.275407    
   2920000   299.52875      363.26807      18501.359      19293.19      -168.10417    
   2930000   282.52777      368.44022      18507.732      19280.41      -99.225636    
   2940000   296.21988      368.91043      18533.078      19325.817     -55.694305    
   2950000   309.6799       374.68172      18527.261      19345.029     -14.945586    
   2960000   287.13492      373.6569       18499.443      19283.929      158.52384    
Loop time of 15.3606 on 48 procs for 50000 steps with 481 atoms

Performance: 14.062 ns/day, 1.707 hours/ns, 3255.077 timesteps/s, 1.566 Matom-step/s
100.0% CPU use with 48 MPI tasks x 1 OpenMP threads

MPI task timing breakdown:
Section |  min time  |  avg time  |  max time  |%varavg| %total
---------------------------------------------------------------
Pair    | 0.017449   | 0.73349    | 4.0393     | 120.1 |  4.78
Bond    | 0.0053794  | 0.92441    | 4.1192     | 126.7 |  6.02
Neigh   | 0.019116   | 0.020881   | 0.022266   |   0.7 |  0.14
Comm    | 6.3356     | 11.275     | 13.917     |  76.1 | 73.40
Output  | 0.006012   | 0.011314   | 0.016997   |   3.2 |  0.07
Modify  | 0.63622    | 1.8339     | 7.8077     | 170.7 | 11.94
Other   |            | 0.5613     |            |       |  3.65

Nlocal:        10.0208 ave          49 max           0 min
Histogram: 21 10 7 3 1 0 3 1 1 1
Nghost:        1927.98 ave        2412 max        1329 min
Histogram: 8 0 0 0 24 0 0 0 0 16
Neighs:              0 ave           0 max           0 min
Histogram: 48 0 0 0 0 0 0 0 0 0

Total # of neighbors = 0
Ave neighs/atom = 0
Ave special neighs/atom = 15.567568
Neighbor list builds = 54
Dangerous builds = 0
unfix           myat1
next            cpt
jump            SELF loop
variable        zdes equal  -15+0.60*(${cpt}-1)
variable        zdes equal  -15+0.60*(50-1)
variable        zave equal xcm(H2,z)
fix             mytth2 H2 spring tether ${k1} 2.5 2.5 ${zdes} 0
fix             mytth2 H2 spring tether 5.1 2.5 2.5 ${zdes} 0
fix             mytth2 H2 spring tether 5.1 2.5 2.5 14.4 0
run             10000
Generated 0 of 1 mixed pair_coeff terms from geometric mixing rule
Per MPI rank memory allocation (min/avg/max) = 13.32 | 13.88 | 14.98 Mbytes
   Step          Temp          E_pair         E_mol          TotEng         Press     
   2960000   287.13492      373.6569       18499.443      19283.929      158.52384    
   2970000   284.33761      367.1308       18520.206      19294.164     -144.00724    
Loop time of 3.0978 on 48 procs for 10000 steps with 481 atoms

Performance: 13.945 ns/day, 1.721 hours/ns, 3228.100 timesteps/s, 1.553 Matom-step/s
100.0% CPU use with 48 MPI tasks x 1 OpenMP threads

MPI task timing breakdown:
Section |  min time  |  avg time  |  max time  |%varavg| %total
---------------------------------------------------------------
Pair    | 0.0035221  | 0.14686    | 0.80673    |  53.4 |  4.74
Bond    | 0.0010754  | 0.18495    | 0.84393    |  57.0 |  5.97
Neigh   | 0.0054179  | 0.0059248  | 0.0063322  |   0.4 |  0.19
Comm    | 1.3306     | 2.2744     | 2.8136     |  34.0 | 73.42
Output  | 0.0012174  | 0.0022514  | 0.003319   |   1.4 |  0.07
Modify  | 0.128      | 0.36954    | 1.5692     |  76.9 | 11.93
Other   |            | 0.1139     |            |       |  3.68

Nlocal:        10.0208 ave          50 max           0 min
Histogram: 22 8 5 6 1 2 0 1 1 2
Nghost:        1928.23 ave        2410 max        1323 min
Histogram: 8 0 0 0 24 0 0 0 0 16
Neighs:              0 ave           0 max           0 min
Histogram: 48 0 0 0 0 0 0 0 0 0

Total # of neighbors = 0
Ave neighs/atom = 0
Ave special neighs/atom = 15.567568
Neighbor list builds = 15
Dangerous builds = 0
fix             myat1 all ave/time 1000 10 10000 v_zave v_zdes file simulation_data/abpot/${cpt}.dat
fix             myat1 all ave/time 1000 10 10000 v_zave v_zdes file simulation_data/abpot/50.dat
run             50000
Generated 0 of 1 mixed pair_coeff terms from geometric mixing rule
Per MPI rank memory allocation (min/avg/max) = 13.32 | 13.88 | 14.98 Mbytes
   Step          Temp          E_pair         E_mol          TotEng         Press     
   2970000   284.33761      367.1308       18520.206      19294.164     -144.00724    
   2980000   311.2758       372.74943      18514.454      19332.573      54.43963     
   2990000   286.25747      374.4195       18540.574      19324.567      93.441928    
   3000000   283.84542      375.33066      18504.186      19285.639      114.89019    
   3010000   292.06437      366.79904      18504.486      19289.168     -124.18737    
   3020000   306.84732      362.67142      18495.037      19296.743     -310.72958    
Loop time of 15.3273 on 48 procs for 50000 steps with 481 atoms

Performance: 14.092 ns/day, 1.703 hours/ns, 3262.147 timesteps/s, 1.569 Matom-step/s
100.0% CPU use with 48 MPI tasks x 1 OpenMP threads

MPI task timing breakdown:
Section |  min time  |  avg time  |  max time  |%varavg| %total
---------------------------------------------------------------
Pair    | 0.017572   | 0.73463    | 4.0385     | 120.1 |  4.79
Bond    | 0.0054231  | 0.92603    | 4.2676     | 127.7 |  6.04
Neigh   | 0.021609   | 0.023559   | 0.02519    |   0.7 |  0.15
Comm    | 6.2538     | 11.245     | 13.795     |  75.8 | 73.37
Output  | 0.0060357  | 0.011305   | 0.016508   |   3.2 |  0.07
Modify  | 0.64699    | 1.8241     | 7.7608     | 168.8 | 11.90
Other   |            | 0.5625     |            |       |  3.67

Nlocal:        10.0208 ave          44 max           0 min
Histogram: 22 4 10 4 0 1 2 3 1 1
Nghost:        1926.98 ave        2403 max        1329 min
Histogram: 8 0 0 0 24 0 0 0 0 16
Neighs:              0 ave           0 max           0 min
Histogram: 48 0 0 0 0 0 0 0 0 0

Total # of neighbors = 0
Ave neighs/atom = 0
Ave special neighs/atom = 15.567568
Neighbor list builds = 62
Dangerous builds = 0
unfix           myat1
next            cpt
jump            SELF loop
variable        zdes equal  -15+0.60*(${cpt}-1)
variable        zdes equal  -15+0.60*(51-1)
variable        zave equal xcm(H2,z)
fix             mytth2 H2 spring tether ${k1} 2.5 2.5 ${zdes} 0
fix             mytth2 H2 spring tether 5.1 2.5 2.5 ${zdes} 0
fix             mytth2 H2 spring tether 5.1 2.5 2.5 15 0
run             10000
Generated 0 of 1 mixed pair_coeff terms from geometric mixing rule
Per MPI rank memory allocation (min/avg/max) = 13.32 | 13.88 | 14.98 Mbytes
   Step          Temp          E_pair         E_mol          TotEng         Press     
   3020000   306.84732      362.67142      18495.037      19296.743     -310.72958    
   3030000   301.66493      378.97333      18517.714      19328.307      96.478886    
Loop time of 3.19802 on 48 procs for 10000 steps with 481 atoms

Performance: 13.508 ns/day, 1.777 hours/ns, 3126.933 timesteps/s, 1.504 Matom-step/s
99.9% CPU use with 48 MPI tasks x 1 OpenMP threads

MPI task timing breakdown:
Section |  min time  |  avg time  |  max time  |%varavg| %total
---------------------------------------------------------------
Pair    | 0.0035563  | 0.14712    | 0.79269    |  53.3 |  4.60
Bond    | 0.0010849  | 0.18542    | 0.89449    |  57.4 |  5.80
Neigh   | 0.0059968  | 0.006563   | 0.0070141  |   0.4 |  0.21
Comm    | 1.3981     | 2.353      | 2.8706     |  34.8 | 73.58
Output  | 0.0012464  | 0.0023062  | 0.0033878  |   1.4 |  0.07
Modify  | 0.12957    | 0.3901     | 1.6676     |  80.1 | 12.20
Other   |            | 0.1135     |            |       |  3.55

Nlocal:        10.0208 ave          39 max           0 min
Histogram: 19 9 5 5 2 0 1 3 1 3
Nghost:         1932.6 ave        2413 max        1334 min
Histogram: 8 0 0 0 24 0 0 0 0 16
Neighs:              0 ave           0 max           0 min
Histogram: 48 0 0 0 0 0 0 0 0 0

Total # of neighbors = 0
Ave neighs/atom = 0
Ave special neighs/atom = 15.567568
Neighbor list builds = 16
Dangerous builds = 0
fix             myat1 all ave/time 1000 10 10000 v_zave v_zdes file simulation_data/abpot/${cpt}.dat
fix             myat1 all ave/time 1000 10 10000 v_zave v_zdes file simulation_data/abpot/51.dat
run             50000
Generated 0 of 1 mixed pair_coeff terms from geometric mixing rule
Per MPI rank memory allocation (min/avg/max) = 13.32 | 13.88 | 14.98 Mbytes
   Step          Temp          E_pair         E_mol          TotEng         Press     
   3030000   301.66493      378.97333      18517.714      19328.307      96.478886    
   3040000   304.47071      372.2902       18546.797      19354.72      -8.0743872    
   3050000   299.10853      380.46158      18511.903      19320.326      160.58992    
   3060000   303.80517      368.62707      18505.511      19308.819     -98.739558    
   3070000   313.15129      361.91913      18538.389      19348.362     -330.20251    
   3080000   320.251        378.93363      18521.061      19358.206      207.39473    
Loop time of 16.0273 on 48 procs for 50000 steps with 481 atoms

Performance: 13.477 ns/day, 1.781 hours/ns, 3119.673 timesteps/s, 1.501 Matom-step/s
100.0% CPU use with 48 MPI tasks x 1 OpenMP threads

MPI task timing breakdown:
Section |  min time  |  avg time  |  max time  |%varavg| %total
---------------------------------------------------------------
Pair    | 0.017558   | 0.73499    | 3.9579     | 119.8 |  4.59
Bond    | 0.0053596  | 0.92558    | 4.3117     | 127.4 |  5.78
Neigh   | 0.02358    | 0.02572    | 0.027504   |   0.7 |  0.16
Comm    | 7.0265     | 11.832     | 14.548     |  78.0 | 73.82
Output  | 0.0060543  | 0.011319   | 0.016843   |   3.2 |  0.07
Modify  | 0.63806    | 1.9376     | 8.3539     | 180.9 | 12.09
Other   |            | 0.5602     |            |       |  3.50

Nlocal:        10.0208 ave          43 max           0 min
Histogram: 20 9 4 7 0 1 2 2 0 3
Nghost:        1926.48 ave        2401 max        1330 min
Histogram: 8 0 0 0 24 0 0 0 0 16
Neighs:              0 ave           0 max           0 min
Histogram: 48 0 0 0 0 0 0 0 0 0

Total # of neighbors = 0
Ave neighs/atom = 0
Ave special neighs/atom = 15.567568
Neighbor list builds = 65
Dangerous builds = 0
unfix           myat1
next            cpt
jump            SELF loop

Total wall time: 0:16:13
