# --- log file ---

variable pre equal 112 # desired pressure (Atm)
variable tem equal 119 # desired temperature (K)

variable k1 equal 1. # spring constant
variable k2 equal 3.5 # spring constant

units real
atom_style molecular
boundary p p p
neighbor 1.0 bin
neigh_modify delay 3 one 6000
bond_style harmonic
angle_style harmonic
dihedral_style opls
improper_style harmonic
pair_style hybrid lj/cut 14 sg 15 cb 30 # Fluid-fluid interactions have a cutoff of 15 Å, fluid-solid interactions have a cutoff of 30 Å
# *--* C-C parameters *--*
bond_style harmonic
angle_style harmonic
dihedral_style opls
improper_style harmonic
# *--* C-C parameters *--*


# 2. Read the graphite platelet data file and define potentials parameters
read_data       ../geometry/carbonPlatelets/simulation_data/abpot_sys.data  extra/atom/types 1
Reading data file ...
  orthogonal box = (-30 -30 -30) to (30 30 30)
  4 by 4 by 4 MPI processor grid
  reading atoms ...
  480 atoms
  reading velocities ...
  480 velocities
  scanning bonds ...
  2 = max bonds/atom
  scanning angles ...
  3 = max angles/atom
  scanning dihedrals ...
  8 = max dihedrals/atom
  scanning impropers ...
  2 = max impropers/atom
  orthogonal box = (-30 -30 -30) to (30 30 30)
  4 by 4 by 4 MPI processor grid
  reading bonds ...
  676 bonds
  reading angles ...
  1268 angles
  reading dihedrals ...
  2394 dihedrals
  reading impropers ...
  396 impropers
Finding 1-2 1-3 1-4 neighbors ...
  special bond factors lj:    0        0        0       
  special bond factors coul:  0        0        0       
     3 = max # of 1-2 neighbors
     6 = max # of 1-3 neighbors
    18 = max # of 1-4 neighbors
    18 = max # of special neighbors
  special bonds CPU = 0.002 seconds
  read_data CPU = 0.049 seconds
include         PARM.lammps

#////////////////////////////////////////////////////////////////////////////////////////////////////////////////////////////////
#//     Filename: PARM.lammps
#//     File Type: LAMMPS input script
#//     Description: This script defines the parameters for the simulation of hydrogen absorption in graphite platelets.
#//     Author: Edoardo Cabiati
#//     Date: 2024-07-27
#////////////////////////////////////////////////////////////////////////////////////////////////////////////////////////////////

mass 2 2.016 # For now at least, in accordance with the paper by Wang and Johnson,
             # 1998, the hydrogen atoms are regarded as simple spherical atoms

# //////////////////////////////////////    C-C potentials    //////////////////////////////////////
pair_coeff 1 1 lj/cut 0.066 3.4
bond_coeff 1 469 1.4
angle_coeff 1 63 120
dihedral_coeff 1 0 7.25 0 0
improper_coeff 1 5 180
special_bonds lj 0.0 0.0 0.5
Finding 1-2 1-3 1-4 neighbors ...
  special bond factors lj:    0        0        0.5     
  special bond factors coul:  0        0        0       
     3 = max # of 1-2 neighbors
     6 = max # of 1-3 neighbors
    18 = max # of 1-4 neighbors
    18 = max # of special neighbors
  special bonds CPU = 0.001 seconds
# //////////////////////////////////////    C-C potentials    //////////////////////////////////////
# -------------------------------------------------------------------------------------------------
# //////////////////////////////////////    H-H potentials    //////////////////////////////////////
variable alpha equal 1.713          #|
variable sigma equal 1.567          #|
variable gamma equal 0.00993        #|
variable c6 equal 12.14             #|      The parameters are all in atomic units, the conversion to kcal/mol
variable c8 equal 215.2             #|      is performed in the pair_sg.cpp file
variable c9 equal 143.1             #|
variable c10 equal 4813.9           #|
variable rc equal 8.321             #|
pair_coeff 2 2 sg ${alpha} ${sigma} ${gamma} ${c6} ${c8} ${c9} ${c10} ${rc} # H-H potentials
pair_coeff 2 2 sg 1.713 ${sigma} ${gamma} ${c6} ${c8} ${c9} ${c10} ${rc} 
pair_coeff 2 2 sg 1.713 1.567 ${gamma} ${c6} ${c8} ${c9} ${c10} ${rc} 
pair_coeff 2 2 sg 1.713 1.567 0.00993 ${c6} ${c8} ${c9} ${c10} ${rc} 
pair_coeff 2 2 sg 1.713 1.567 0.00993 12.14 ${c8} ${c9} ${c10} ${rc} 
pair_coeff 2 2 sg 1.713 1.567 0.00993 12.14 215.2 ${c9} ${c10} ${rc} 
pair_coeff 2 2 sg 1.713 1.567 0.00993 12.14 215.2 143.1 ${c10} ${rc} 
pair_coeff 2 2 sg 1.713 1.567 0.00993 12.14 215.2 143.1 4813.9 ${rc} 
pair_coeff 2 2 sg 1.713 1.567 0.00993 12.14 215.2 143.1 4813.9 8.321 
#pair_coeff 2 2 sg 1.713 1.567 0.00993 12.14 215.2 143.1 4813.9 8.321 # H-H potentials
# //////////////////////////////////////    H-H potentials    //////////////////////////////////////
# -------------------------------------------------------------------------------------------------
# //////////////////////////////////////    C-H potentials    //////////////////////////////////////
# Parameters taken from the paper by Wang and Johnson, 1998
variable sigma_CC equal 3.43 # Å
variable sigma_HH equal 3.075 # Å
variable sigma_CH_geo equal sqrt(${sigma_CC}*${sigma_HH}) # Å
variable sigma_CH_geo equal sqrt(3.43*${sigma_HH}) 
variable sigma_CH_geo equal sqrt(3.43*3.075) 
variable sigma_CH_arit equal 0.5*(${sigma_CC}+${sigma_HH}) # Å
variable sigma_CH_arit equal 0.5*(3.43+${sigma_HH}) 
variable sigma_CH_arit equal 0.5*(3.43+3.075) 

variable P_par equal 0.57 # Å^3
variable P_perp equal 1.995 # Å^3
variable P_h equal 0.81 # Å^3
variable E_h equal 2.337e5*(1/503.23) # K * 1/503.23 kcal/mol/K = kcal/mol
variable E_c equal 1.39254e5*(1/503.23) # K * 1/503.23 kcal/mol/K = kcal/mol

variable epsilon equal 4*(5/11)*v_E_h*v_E_c*v_P_h*(v_P_par+v_P_perp/2)/(v_sigma_CH_geo^6*(v_E_h+v_E_c)) # kcal/mol
# The formula taken from paper by Wang and Johnson, 1998 to construct epsilon does not seem to be consistent with the
# results obtained from the LAMMPS simulation. We will be using the value of epsilon obtained from the simplified
# version of the CB potential as 12-6 lennard-jones potential, presented in the paper "Theoretical investigation of the
# effect of graphite interlayer spacing on hydrogen absorption" by Rachel S. Aga, C. L. Fu, Maja Krčmar, and James R. Morris.
variable epsilon_sub equal 4*0.085094 # kcal/mol
variable sigma equal 2.97 # Å

pair_coeff 1 2 cb ${epsilon_sub} ${sigma} ${P_par} ${P_perp} # C-H potential
pair_coeff 1 2 cb 0.340376 ${sigma} ${P_par} ${P_perp} 
pair_coeff 1 2 cb 0.340376 2.97 ${P_par} ${P_perp} 
pair_coeff 1 2 cb 0.340376 2.97 0.57 ${P_perp} 
pair_coeff 1 2 cb 0.340376 2.97 0.57 1.995 
#pair_coeff 1 2 lj/cut 0.3025 2.065
# //////////////////////////////////////    C-H potentials    //////////////////////////////////////

# 3. Add a single hydrogen molecule to the system, close to the center of the first platelet
create_atoms    2 single 0 0 -2
Created 1 atoms
  using lattice units in orthogonal box = (-30 -30 -30) to (30 30 30)
  create_atoms CPU = 0.000 seconds

group           C type 1
480 atoms in group C
group           H2 type 2
1 atoms in group H2

# 4. Equilibration
timestep        0.05
fix             mytth1 C spring/self ${k2} # Apply a spring force to the carbon atoms
fix             mytth1 C spring/self 3.5 
velocity        all create ${tem} 48 rot yes mom yes dist gaussian # Initialize velocities
velocity        all create 119 48 rot yes mom yes dist gaussian 
fix             mynpt all npt temp ${tem} ${tem} 100 x ${pre} ${pre} 1000 y ${pre} ${pre} 1000 # Apply NPT ensemble to the system
fix             mynpt all npt temp 119 ${tem} 100 x ${pre} ${pre} 1000 y ${pre} ${pre} 1000 
fix             mynpt all npt temp 119 119 100 x ${pre} ${pre} 1000 y ${pre} ${pre} 1000 
fix             mynpt all npt temp 119 119 100 x 112 ${pre} 1000 y ${pre} ${pre} 1000 
fix             mynpt all npt temp 119 119 100 x 112 112 1000 y ${pre} ${pre} 1000 
fix             mynpt all npt temp 119 119 100 x 112 112 1000 y 112 ${pre} 1000 
fix             mynpt all npt temp 119 119 100 x 112 112 1000 y 112 112 1000 

thermo          10000
dump            dump all atom 1000 simulation_data/absorption_pot.lammpstrj

run             20000

CITE-CITE-CITE-CITE-CITE-CITE-CITE-CITE-CITE-CITE-CITE-CITE-CITE

Your simulation uses code contributions which should be cited:

- Type Label Framework: https://doi.org/10.1021/acs.jpcb.3c08419

@Article{Gissinger24,
 author = {Jacob R. Gissinger, Ilia Nikiforov, Yaser Afshar, Brendon Waters, Moon-ki Choi, Daniel S. Karls, Alexander Stukowski, Wonpil Im, Hendrik Heinz, Axel Kohlmeyer, and Ellad B. Tadmor},
 title = {Type Label Framework for Bonded Force Fields in LAMMPS},
 journal = {J. Phys. Chem. B},
 year =    2024,
 volume =  128,
 number =  13,
 pages =   {3282–-3297}
}

CITE-CITE-CITE-CITE-CITE-CITE-CITE-CITE-CITE-CITE-CITE-CITE-CITE

Generated 0 of 1 mixed pair_coeff terms from geometric mixing rule
Neighbor list info ...
  update: every = 1 steps, delay = 3 steps, check = yes
  max neighbors/atom: 6000, page size: 100000
  master list distance cutoff = 31
  ghost atom cutoff = 31
  binsize = 15.5, bins = 4 4 4
  4 neighbor lists, perpetual/occasional/extra = 4 0 0
  (1) pair lj/cut, perpetual, skip trim from (4)
      attributes: half, newton on, cut 15
      pair build: skip/trim
      stencil: none
      bin: none
  (2) pair sg, perpetual, skip trim from (4)
      attributes: half, newton on, cut 16
      pair build: skip/trim
      stencil: none
      bin: none
  (3) pair cb, perpetual, skip from (4)
      attributes: half, newton on
      pair build: skip
      stencil: none
      bin: none
  (4) neighbor class addition, perpetual
      attributes: half, newton on
      pair build: half/bin/newton
      stencil: half/bin/3d
      bin: standard
Per MPI rank memory allocation (min/avg/max) = 13.29 | 13.4 | 13.93 Mbytes
   Step          Temp          E_pair         E_mol          TotEng         Press          Volume    
         0   119            308.5124       19603.922      20082.698     -487.24171      216000       
     10000   157.12683      383.731        18329.367      18937.913      23.537262      166726.67    
     20000   115.81969      370.55671      18273.192      18809.462     -342.78831      116159.02    
Loop time of 7.61107 on 64 procs for 20000 steps with 481 atoms

Performance: 11.352 ns/day, 2.114 hours/ns, 2627.752 timesteps/s, 1.264 Matom-step/s
99.8% CPU use with 64 MPI tasks x 1 OpenMP threads

MPI task timing breakdown:
Section |  min time  |  avg time  |  max time  |%varavg| %total
---------------------------------------------------------------
Pair    | 0.14367    | 0.44002    | 2.2863     |  69.5 |  5.78
Bond    | 0.0040089  | 0.34914    | 2.0087     | 101.6 |  4.59
Neigh   | 0.015113   | 0.017259   | 0.018906   |   0.7 |  0.23
Comm    | 2.7085     | 4.447      | 5.4178     |  40.3 | 58.43
Output  | 0.0034045  | 0.0098925  | 0.018378   |   4.4 |  0.13
Modify  | 0.74021    | 2.015      | 4.1143     |  71.9 | 26.47
Other   |            | 0.3328     |            |       |  4.37

Nlocal:        7.51562 ave          28 max           0 min
Histogram: 28 19 1 0 0 0 1 5 5 5
Nghost:         1931.8 ave        2520 max        1418 min
Histogram: 16 0 0 0 32 0 0 0 0 16
Neighs:              0 ave           0 max           0 min
Histogram: 64 0 0 0 0 0 0 0 0 0

Total # of neighbors = 0
Ave neighs/atom = 0
Ave special neighs/atom = 15.567568
Neighbor list builds = 43
Dangerous builds = 0
unfix           mynpt
unfix           mytth1

# 5. Umbrella sampling
fix             mynvt all nvt temp ${tem} ${tem} 100
fix             mynvt all nvt temp 119 ${tem} 100
fix             mynvt all nvt temp 119 119 100
fix             mytth1 C spring/self ${k2}
fix             mytth1 C spring/self 3.5

variable        cpt loop 51
label           loop
variable        zdes equal  -15+0.60*(${cpt}-1)
variable        zdes equal  -15+0.60*(1-1)
variable        zave equal xcm(H2,z)
fix             mytth2 H2 spring tether ${k1} 2.5 2.5 ${zdes} 0
fix             mytth2 H2 spring tether 1 2.5 2.5 ${zdes} 0
fix             mytth2 H2 spring tether 1 2.5 2.5 -15 0
run             10000
Generated 0 of 1 mixed pair_coeff terms from geometric mixing rule
Per MPI rank memory allocation (min/avg/max) = 13.32 | 13.62 | 14.95 Mbytes
   Step          Temp          E_pair         E_mol          TotEng         Press     
     20000   115.81969      370.55671      18273.192      18809.462     -342.78831    
     30000   113.0825       324.55326      18418.077      18904.427     -1947.7072    
Loop time of 3.70209 on 64 procs for 10000 steps with 481 atoms

Performance: 11.669 ns/day, 2.057 hours/ns, 2701.176 timesteps/s, 1.299 Matom-step/s
99.9% CPU use with 64 MPI tasks x 1 OpenMP threads

MPI task timing breakdown:
Section |  min time  |  avg time  |  max time  |%varavg| %total
---------------------------------------------------------------
Pair    | 0.0036245  | 0.13184    | 1.0029     |  56.7 |  3.56
Bond    | 0.0010623  | 0.15395    | 0.91013    |  61.4 |  4.16
Neigh   | 0.034864   | 0.03856    | 0.041219   |   0.8 |  1.04
Comm    | 1.5195     | 3.0323     | 3.3664     |  24.0 | 81.91
Output  | 0.0014376  | 0.004058   | 0.0068663  |   2.7 |  0.11
Modify  | 0.11417    | 0.21173    | 0.49666    |  14.0 |  5.72
Other   |            | 0.1297     |            |       |  3.50

Nlocal:        7.51562 ave          34 max           0 min
Histogram: 34 14 0 0 0 3 4 8 0 1
Nghost:        1927.56 ave        2516 max        1415 min
Histogram: 16 0 0 0 32 0 0 0 0 16
Neighs:              0 ave           0 max           0 min
Histogram: 64 0 0 0 0 0 0 0 0 0

Total # of neighbors = 0
Ave neighs/atom = 0
Ave special neighs/atom = 15.567568
Neighbor list builds = 85
Dangerous builds = 0
fix             myat1 all ave/time 100 10 1000 v_zave v_zdes file simulation_data/abpot/${cpt}.dat
fix             myat1 all ave/time 100 10 1000 v_zave v_zdes file simulation_data/abpot/1.dat
run             50000
Generated 0 of 1 mixed pair_coeff terms from geometric mixing rule
Per MPI rank memory allocation (min/avg/max) = 13.32 | 13.62 | 14.95 Mbytes
   Step          Temp          E_pair         E_mol          TotEng         Press     
     30000   113.0825       324.55326      18418.077      18904.427     -1947.7072    
     40000   119.26301      416.41519      18296.002      18883.058      1008.0432    
     50000   107.37085      406.00765      18317.367      18876.999      694.7025     
     60000   124.29838      348.31658      18359.723      18885.885     -915.0432     
     70000   98.821605      365.70766      18380.324      18887.425     -381.19998    
     80000   133.0857       388.29741      18326.312      18905.027      246.53145    
Loop time of 18.8223 on 64 procs for 50000 steps with 481 atoms

Performance: 11.476 ns/day, 2.091 hours/ns, 2656.417 timesteps/s, 1.278 Matom-step/s
100.0% CPU use with 64 MPI tasks x 1 OpenMP threads

MPI task timing breakdown:
Section |  min time  |  avg time  |  max time  |%varavg| %total
---------------------------------------------------------------
Pair    | 0.017956   | 0.65685    | 5.2641     | 127.9 |  3.49
Bond    | 0.0054097  | 0.77393    | 4.544      | 137.9 |  4.11
Neigh   | 0.10552    | 0.11709    | 0.12535    |   1.4 |  0.62
Comm    | 7.5749     | 15.567     | 17.234     |  53.3 | 82.71
Output  | 0.0080931  | 0.018013   | 0.027893   |   4.7 |  0.10
Modify  | 0.58039    | 1.0383     | 2.4517     |  31.1 |  5.52
Other   |            | 0.6512     |            |       |  3.46

Nlocal:        7.51562 ave          28 max           0 min
Histogram: 30 16 2 0 0 0 1 6 4 5
Nghost:        1934.12 ave        2524 max        1418 min
Histogram: 16 0 0 0 32 0 0 0 0 16
Neighs:              0 ave           0 max           0 min
Histogram: 64 0 0 0 0 0 0 0 0 0

Total # of neighbors = 0
Ave neighs/atom = 0
Ave special neighs/atom = 15.567568
Neighbor list builds = 248
Dangerous builds = 0
unfix           myat1
next            cpt
jump            SELF loop
variable        zdes equal  -15+0.60*(${cpt}-1)
variable        zdes equal  -15+0.60*(2-1)
variable        zave equal xcm(H2,z)
fix             mytth2 H2 spring tether ${k1} 2.5 2.5 ${zdes} 0
fix             mytth2 H2 spring tether 1 2.5 2.5 ${zdes} 0
fix             mytth2 H2 spring tether 1 2.5 2.5 -14.4 0
run             10000
Generated 0 of 1 mixed pair_coeff terms from geometric mixing rule
Per MPI rank memory allocation (min/avg/max) = 13.32 | 13.62 | 14.95 Mbytes
   Step          Temp          E_pair         E_mol          TotEng         Press     
     80000   133.0857       388.29741      18326.312      18905.027      246.53145    
     90000   105.77876      382.77681      18356.833      18890.957      42.270569    
Loop time of 3.69707 on 64 procs for 10000 steps with 481 atoms

Performance: 11.685 ns/day, 2.054 hours/ns, 2704.845 timesteps/s, 1.301 Matom-step/s
100.0% CPU use with 64 MPI tasks x 1 OpenMP threads

MPI task timing breakdown:
Section |  min time  |  avg time  |  max time  |%varavg| %total
---------------------------------------------------------------
Pair    | 0.0034933  | 0.13208    | 1.0178     |  57.2 |  3.57
Bond    | 0.001068   | 0.15598    | 0.89227    |  61.7 |  4.22
Neigh   | 0.0099496  | 0.011008   | 0.011706   |   0.4 |  0.30
Comm    | 1.5078     | 3.0665     | 3.391      |  24.3 | 82.95
Output  | 0.0014162  | 0.003054   | 0.0047301  |   1.9 |  0.08
Modify  | 0.1147     | 0.19682    | 0.26228    |   8.3 |  5.32
Other   |            | 0.1316     |            |       |  3.56

Nlocal:        7.51562 ave          29 max           0 min
Histogram: 29 17 2 0 0 0 3 2 9 2
Nghost:        1933.56 ave        2522 max        1414 min
Histogram: 16 0 0 0 32 0 0 0 0 16
Neighs:              0 ave           0 max           0 min
Histogram: 64 0 0 0 0 0 0 0 0 0

Total # of neighbors = 0
Ave neighs/atom = 0
Ave special neighs/atom = 15.567568
Neighbor list builds = 23
Dangerous builds = 0
fix             myat1 all ave/time 100 10 1000 v_zave v_zdes file simulation_data/abpot/${cpt}.dat
fix             myat1 all ave/time 100 10 1000 v_zave v_zdes file simulation_data/abpot/2.dat
run             50000
Generated 0 of 1 mixed pair_coeff terms from geometric mixing rule
Per MPI rank memory allocation (min/avg/max) = 13.32 | 13.62 | 14.95 Mbytes
   Step          Temp          E_pair         E_mol          TotEng         Press     
     90000   105.77876      382.77681      18356.833      18890.957      42.270569    
    100000   114.77073      389.43786      18338.122      18891.772      191.82036    
    110000   117.59898      358.60457      18376.543      18903.407     -718.13211    
    120000   139.23654      368.85095      18354.725      18922.794     -307.85247    
    130000   112.38182      405.84394      18327.749      18894.387      803.3572     
    140000   114.8148       364.7771       18358.005      18887.058     -474.57874    
Loop time of 22.7631 on 64 procs for 50000 steps with 481 atoms

Performance: 9.489 ns/day, 2.529 hours/ns, 2196.535 timesteps/s, 1.057 Matom-step/s
98.5% CPU use with 64 MPI tasks x 1 OpenMP threads

MPI task timing breakdown:
Section |  min time  |  avg time  |  max time  |%varavg| %total
---------------------------------------------------------------
Pair    | 0.032248   | 0.78311    | 4.8536     | 131.8 |  3.44
Bond    | 0.0090128  | 0.88423    | 4.349      | 142.2 |  3.88
Neigh   | 0.055138   | 0.062409   | 0.073189   |   1.3 |  0.27
Comm    | 9.9387     | 17.173     | 18.951     |  56.4 | 75.44
Output  | 0.020883   | 0.029577   | 0.037831   |   3.1 |  0.13
Modify  | 2.2969     | 2.6623     | 3.5428     |  15.5 | 11.70
Other   |            | 1.168      |            |       |  5.13

Nlocal:        7.51562 ave          32 max           0 min
Histogram: 36 12 0 0 2 3 3 0 3 5
Nghost:        1933.11 ave        2524 max        1412 min
Histogram: 16 0 0 0 32 0 0 0 0 16
Neighs:              0 ave           0 max           0 min
Histogram: 64 0 0 0 0 0 0 0 0 0

Total # of neighbors = 0
Ave neighs/atom = 0
Ave special neighs/atom = 15.567568
Neighbor list builds = 59
Dangerous builds = 0
unfix           myat1
next            cpt
jump            SELF loop
variable        zdes equal  -15+0.60*(${cpt}-1)
variable        zdes equal  -15+0.60*(3-1)
variable        zave equal xcm(H2,z)
fix             mytth2 H2 spring tether ${k1} 2.5 2.5 ${zdes} 0
fix             mytth2 H2 spring tether 1 2.5 2.5 ${zdes} 0
fix             mytth2 H2 spring tether 1 2.5 2.5 -13.8 0
run             10000
Generated 0 of 1 mixed pair_coeff terms from geometric mixing rule
Per MPI rank memory allocation (min/avg/max) = 13.32 | 13.62 | 14.95 Mbytes
   Step          Temp          E_pair         E_mol          TotEng         Press     
    140000   114.8148       364.7771       18358.005      18887.058     -474.57874    
    150000   121.05459      365.08689      18364.135      18902.425     -567.6611     
Loop time of 3.80751 on 64 procs for 10000 steps with 481 atoms

Performance: 11.346 ns/day, 2.115 hours/ns, 2626.387 timesteps/s, 1.263 Matom-step/s
100.0% CPU use with 64 MPI tasks x 1 OpenMP threads

MPI task timing breakdown:
Section |  min time  |  avg time  |  max time  |%varavg| %total
---------------------------------------------------------------
Pair    | 0.0048119  | 0.1495     | 0.8206     |  56.7 |  3.93
Bond    | 0.0014908  | 0.17134    | 0.90631    |  62.3 |  4.50
Neigh   | 0.0042966  | 0.0048572  | 0.0052803  |   0.4 |  0.13
Comm    | 1.9106     | 3.1051     | 3.408      |  25.4 | 81.55
Output  | 0.0015729  | 0.003376   | 0.0051191  |   1.9 |  0.09
Modify  | 0.16269    | 0.22002    | 0.33122    |   7.5 |  5.78
Other   |            | 0.1533     |            |       |  4.03

Nlocal:        7.51562 ave          35 max           0 min
Histogram: 35 13 0 2 4 1 1 1 2 5
Nghost:         1934.8 ave        2524 max        1409 min
Histogram: 16 0 0 0 32 0 0 0 0 16
Neighs:              0 ave           0 max           0 min
Histogram: 64 0 0 0 0 0 0 0 0 0

Total # of neighbors = 0
Ave neighs/atom = 0
Ave special neighs/atom = 15.567568
Neighbor list builds = 10
Dangerous builds = 0
fix             myat1 all ave/time 100 10 1000 v_zave v_zdes file simulation_data/abpot/${cpt}.dat
fix             myat1 all ave/time 100 10 1000 v_zave v_zdes file simulation_data/abpot/3.dat
run             50000
Generated 0 of 1 mixed pair_coeff terms from geometric mixing rule
Per MPI rank memory allocation (min/avg/max) = 13.32 | 13.62 | 14.95 Mbytes
   Step          Temp          E_pair         E_mol          TotEng         Press     
    150000   121.05459      365.08689      18364.135      18902.425     -567.6611     
    160000   123.01079      390.7682       18341.278      18908.049      350.66021    
    170000   115.36467      365.89965      18358.527      18889.489     -388.36344    
    180000   115.34382      377.22029      18351.724      18893.976     -12.526651    
    190000   139.57205      389.65297      18330.999      18920.35       370.0888     
    200000   111.78691      366.29094      18362.525      18888.759     -438.61663    
Loop time of 18.2384 on 64 procs for 50000 steps with 481 atoms

Performance: 11.843 ns/day, 2.026 hours/ns, 2741.463 timesteps/s, 1.319 Matom-step/s
100.0% CPU use with 64 MPI tasks x 1 OpenMP threads

MPI task timing breakdown:
Section |  min time  |  avg time  |  max time  |%varavg| %total
---------------------------------------------------------------
Pair    | 0.025106   | 0.71466    | 3.4269     | 121.8 |  3.92
Bond    | 0.0073424  | 0.8359     | 3.9276     | 136.1 |  4.58
Neigh   | 0.025668   | 0.029045   | 0.031663   |   0.9 |  0.16
Comm    | 9.7328     | 14.737     | 16.311     |  55.3 | 80.80
Output  | 0.00831    | 0.016779   | 0.024604   |   4.0 |  0.09
Modify  | 0.89169    | 1.1729     | 1.8515     |  19.1 |  6.43
Other   |            | 0.7318     |            |       |  4.01

Nlocal:        7.51562 ave          33 max           0 min
Histogram: 36 11 1 0 3 0 5 2 3 3
Nghost:        1930.02 ave        2517 max        1413 min
Histogram: 16 0 0 0 32 0 0 0 0 16
Neighs:              0 ave           0 max           0 min
Histogram: 64 0 0 0 0 0 0 0 0 0

Total # of neighbors = 0
Ave neighs/atom = 0
Ave special neighs/atom = 15.567568
Neighbor list builds = 66
Dangerous builds = 0
unfix           myat1
next            cpt
jump            SELF loop
variable        zdes equal  -15+0.60*(${cpt}-1)
variable        zdes equal  -15+0.60*(4-1)
variable        zave equal xcm(H2,z)
fix             mytth2 H2 spring tether ${k1} 2.5 2.5 ${zdes} 0
fix             mytth2 H2 spring tether 1 2.5 2.5 ${zdes} 0
fix             mytth2 H2 spring tether 1 2.5 2.5 -13.2 0
run             10000
Generated 0 of 1 mixed pair_coeff terms from geometric mixing rule
Per MPI rank memory allocation (min/avg/max) = 13.32 | 13.62 | 14.95 Mbytes
   Step          Temp          E_pair         E_mol          TotEng         Press     
    200000   111.78691      366.29094      18362.525      18888.759     -438.61663    
    210000   107.97129      386.02138      18337.262      18877.768      104.75013    
Loop time of 3.8734 on 64 procs for 10000 steps with 481 atoms

Performance: 11.153 ns/day, 2.152 hours/ns, 2581.714 timesteps/s, 1.242 Matom-step/s
100.0% CPU use with 64 MPI tasks x 1 OpenMP threads

MPI task timing breakdown:
Section |  min time  |  avg time  |  max time  |%varavg| %total
---------------------------------------------------------------
Pair    | 0.00379    | 0.15747    | 0.90459    |  58.0 |  4.07
Bond    | 0.0011296  | 0.17743    | 0.9787     |  63.5 |  4.58
Neigh   | 0.0048969  | 0.005459   | 0.0059856  |   0.3 |  0.14
Comm    | 1.8558     | 3.1208     | 3.4749     |  26.1 | 80.57
Output  | 0.0015619  | 0.0034624  | 0.0052597  |   2.0 |  0.09
Modify  | 0.18454    | 0.25896    | 0.49866    |  14.1 |  6.69
Other   |            | 0.1498     |            |       |  3.87

Nlocal:        7.51562 ave          34 max           0 min
Histogram: 33 14 1 0 3 3 2 2 3 3
Nghost:        1930.48 ave        2524 max        1413 min
Histogram: 16 0 0 0 32 0 0 0 0 16
Neighs:              0 ave           0 max           0 min
Histogram: 64 0 0 0 0 0 0 0 0 0

Total # of neighbors = 0
Ave neighs/atom = 0
Ave special neighs/atom = 15.567568
Neighbor list builds = 11
Dangerous builds = 0
fix             myat1 all ave/time 100 10 1000 v_zave v_zdes file simulation_data/abpot/${cpt}.dat
fix             myat1 all ave/time 100 10 1000 v_zave v_zdes file simulation_data/abpot/4.dat
run             50000
Generated 0 of 1 mixed pair_coeff terms from geometric mixing rule
Per MPI rank memory allocation (min/avg/max) = 13.32 | 13.62 | 14.95 Mbytes
   Step          Temp          E_pair         E_mol          TotEng         Press     
    210000   107.97129      386.02138      18337.262      18877.768      104.75013    
    220000   127.71273      378.95586      18334.23       18895.915     -22.074353    
    230000   120.00649      370.0545       18360.767      18902.525     -339.61904    
    240000   128.23369      382.51984      18333.368      18899.363      171.98935    
    250000   113.78347      368.94931      18353.337      18885.086     -295.75516    
    260000   123.68498      373.1393       18338.345      18888.451     -198.37001    
Loop time of 19.5461 on 64 procs for 50000 steps with 481 atoms

Performance: 11.051 ns/day, 2.172 hours/ns, 2558.056 timesteps/s, 1.230 Matom-step/s
100.0% CPU use with 64 MPI tasks x 1 OpenMP threads

MPI task timing breakdown:
Section |  min time  |  avg time  |  max time  |%varavg| %total
---------------------------------------------------------------
Pair    | 0.023856   | 0.80121    | 4.6208     | 132.6 |  4.10
Bond    | 0.0066929  | 0.90184    | 4.5822     | 143.2 |  4.61
Neigh   | 0.027404   | 0.031058   | 0.033784   |   0.8 |  0.16
Comm    | 9.7291     | 15.817     | 17.567     |  59.8 | 80.92
Output  | 0.0093699  | 0.018003   | 0.02615    |   3.9 |  0.09
Modify  | 0.79752    | 1.2183     | 1.8552     |  21.6 |  6.23
Other   |            | 0.7584     |            |       |  3.88

Nlocal:        7.51562 ave          37 max           0 min
Histogram: 36 12 0 1 2 4 3 4 1 1
Nghost:        1933.56 ave        2522 max        1406 min
Histogram: 16 0 0 0 32 0 0 0 0 16
Neighs:              0 ave           0 max           0 min
Histogram: 64 0 0 0 0 0 0 0 0 0

Total # of neighbors = 0
Ave neighs/atom = 0
Ave special neighs/atom = 15.567568
Neighbor list builds = 64
Dangerous builds = 0
unfix           myat1
next            cpt
jump            SELF loop
variable        zdes equal  -15+0.60*(${cpt}-1)
variable        zdes equal  -15+0.60*(5-1)
variable        zave equal xcm(H2,z)
fix             mytth2 H2 spring tether ${k1} 2.5 2.5 ${zdes} 0
fix             mytth2 H2 spring tether 1 2.5 2.5 ${zdes} 0
fix             mytth2 H2 spring tether 1 2.5 2.5 -12.6 0
run             10000
Generated 0 of 1 mixed pair_coeff terms from geometric mixing rule
Per MPI rank memory allocation (min/avg/max) = 13.32 | 13.62 | 14.95 Mbytes
   Step          Temp          E_pair         E_mol          TotEng         Press     
    260000   123.68498      373.1393       18338.345      18888.451     -198.37001    
    270000   116.08971      386.89143      18342.274      18895.266      149.18342    
Loop time of 3.93616 on 64 procs for 10000 steps with 481 atoms

Performance: 10.975 ns/day, 2.187 hours/ns, 2540.549 timesteps/s, 1.222 Matom-step/s
100.0% CPU use with 64 MPI tasks x 1 OpenMP threads

MPI task timing breakdown:
Section |  min time  |  avg time  |  max time  |%varavg| %total
---------------------------------------------------------------
Pair    | 0.003992   | 0.15013    | 0.99605    |  58.5 |  3.81
Bond    | 0.0011783  | 0.17043    | 0.87332    |  62.9 |  4.33
Neigh   | 0.004197   | 0.0047734  | 0.0052329  |   0.3 |  0.12
Comm    | 1.8818     | 3.221      | 3.5791     |  25.3 | 81.83
Output  | 0.0015242  | 0.0032619  | 0.0049796  |   1.9 |  0.08
Modify  | 0.1406     | 0.2419     | 0.64936    |  17.6 |  6.15
Other   |            | 0.1446     |            |       |  3.67

Nlocal:        7.51562 ave          30 max           0 min
Histogram: 30 14 4 0 0 0 4 4 4 4
Nghost:        1932.91 ave        2520 max        1413 min
Histogram: 16 0 0 0 32 0 0 0 0 16
Neighs:              0 ave           0 max           0 min
Histogram: 64 0 0 0 0 0 0 0 0 0

Total # of neighbors = 0
Ave neighs/atom = 0
Ave special neighs/atom = 15.567568
Neighbor list builds = 10
Dangerous builds = 0
fix             myat1 all ave/time 100 10 1000 v_zave v_zdes file simulation_data/abpot/${cpt}.dat
fix             myat1 all ave/time 100 10 1000 v_zave v_zdes file simulation_data/abpot/5.dat
run             50000
Generated 0 of 1 mixed pair_coeff terms from geometric mixing rule
Per MPI rank memory allocation (min/avg/max) = 13.32 | 13.62 | 14.95 Mbytes
   Step          Temp          E_pair         E_mol          TotEng         Press     
    270000   116.08971      386.89143      18342.274      18895.266      149.18342    
    280000   120.95871      371.97127      18350.005      18895.043     -270.5592     
    290000   118.51014      375.42954      18343.62       18888.613     -245.14556    
    300000   123.80922      381.07944      18327.291      18885.516     -20.208957    
    310000   112.74877      383.42437      18341.425      18886.169      12.820654    
    320000   126.13546      386.75206      18330.245      18897.47       144.85977    
Loop time of 19.5313 on 64 procs for 50000 steps with 481 atoms

Performance: 11.059 ns/day, 2.170 hours/ns, 2560.000 timesteps/s, 1.231 Matom-step/s
100.0% CPU use with 64 MPI tasks x 1 OpenMP threads

MPI task timing breakdown:
Section |  min time  |  avg time  |  max time  |%varavg| %total
---------------------------------------------------------------
Pair    | 0.019537   | 0.81006    | 4.7981     | 138.4 |  4.15
Bond    | 0.0056072  | 0.894      | 4.4959     | 144.4 |  4.58
Neigh   | 0.022959   | 0.025892   | 0.028287   |   0.7 |  0.13
Comm    | 8.7494     | 15.862     | 17.579     |  61.5 | 81.21
Output  | 0.0089292  | 0.017476   | 0.025603   |   4.0 |  0.09
Modify  | 0.78402    | 1.1714     | 1.9805     |  20.9 |  6.00
Other   |            | 0.7508     |            |       |  3.84

Nlocal:        7.51562 ave          32 max           0 min
Histogram: 37 11 0 0 0 1 4 9 1 1
Nghost:        1934.14 ave        2524 max        1419 min
Histogram: 16 0 0 0 32 0 0 0 0 16
Neighs:              0 ave           0 max           0 min
Histogram: 64 0 0 0 0 0 0 0 0 0

Total # of neighbors = 0
Ave neighs/atom = 0
Ave special neighs/atom = 15.567568
Neighbor list builds = 52
Dangerous builds = 0
unfix           myat1
next            cpt
jump            SELF loop
variable        zdes equal  -15+0.60*(${cpt}-1)
variable        zdes equal  -15+0.60*(6-1)
variable        zave equal xcm(H2,z)
fix             mytth2 H2 spring tether ${k1} 2.5 2.5 ${zdes} 0
fix             mytth2 H2 spring tether 1 2.5 2.5 ${zdes} 0
fix             mytth2 H2 spring tether 1 2.5 2.5 -12 0
run             10000
Generated 0 of 1 mixed pair_coeff terms from geometric mixing rule
Per MPI rank memory allocation (min/avg/max) = 13.32 | 13.62 | 14.95 Mbytes
   Step          Temp          E_pair         E_mol          TotEng         Press     
    320000   126.13546      386.75206      18330.245      18897.47       144.85977    
    330000   123.67712      372.82991      18354.756      18904.542     -232.45459    
Loop time of 4.06826 on 64 procs for 10000 steps with 481 atoms

Performance: 10.619 ns/day, 2.260 hours/ns, 2458.051 timesteps/s, 1.182 Matom-step/s
100.0% CPU use with 64 MPI tasks x 1 OpenMP threads

MPI task timing breakdown:
Section |  min time  |  avg time  |  max time  |%varavg| %total
---------------------------------------------------------------
Pair    | 0.0039378  | 0.16575    | 1.0913     |  65.2 |  4.07
Bond    | 0.0010804  | 0.18008    | 0.95312    |  65.0 |  4.43
Neigh   | 0.0054208  | 0.0060751  | 0.0065284  |   0.3 |  0.15
Comm    | 1.6842     | 3.3142     | 3.6781     |  27.8 | 81.47
Output  | 0.0015817  | 0.0033742  | 0.0051272  |   1.9 |  0.08
Modify  | 0.15859    | 0.24116    | 0.4143     |  10.3 |  5.93
Other   |            | 0.1576     |            |       |  3.87

Nlocal:        7.51562 ave          33 max           0 min
Histogram: 37 11 0 0 0 3 2 9 1 1
Nghost:        1934.12 ave        2522 max        1419 min
Histogram: 16 0 0 0 32 0 0 0 0 16
Neighs:              0 ave           0 max           0 min
Histogram: 64 0 0 0 0 0 0 0 0 0

Total # of neighbors = 0
Ave neighs/atom = 0
Ave special neighs/atom = 15.567568
Neighbor list builds = 11
Dangerous builds = 0
fix             myat1 all ave/time 100 10 1000 v_zave v_zdes file simulation_data/abpot/${cpt}.dat
fix             myat1 all ave/time 100 10 1000 v_zave v_zdes file simulation_data/abpot/6.dat
run             50000
Generated 0 of 1 mixed pair_coeff terms from geometric mixing rule
Per MPI rank memory allocation (min/avg/max) = 13.32 | 13.62 | 14.95 Mbytes
   Step          Temp          E_pair         E_mol          TotEng         Press     
    330000   123.67712      372.82991      18354.756      18904.542     -232.45459    
    340000   116.23681      375.84814      18337.464      18879.623     -72.216547    
    350000   118.41187      393.538        18319.878      18882.839      333.31816    
    360000   114.78168      372.68509      18344.563      18881.476     -261.8713     
    370000   114.76639      369.48113      18348.217      18881.905     -257.97743    
    380000   120.30775      388.39505      18317.191      18877.721      158.29118    
Loop time of 20.1399 on 64 procs for 50000 steps with 481 atoms

Performance: 10.725 ns/day, 2.238 hours/ns, 2482.633 timesteps/s, 1.194 Matom-step/s
100.0% CPU use with 64 MPI tasks x 1 OpenMP threads

MPI task timing breakdown:
Section |  min time  |  avg time  |  max time  |%varavg| %total
---------------------------------------------------------------
Pair    | 0.02555    | 0.79592    | 4.9799     | 140.8 |  3.95
Bond    | 0.0065547  | 0.8758     | 4.5495     | 144.6 |  4.35
Neigh   | 0.022952   | 0.025834   | 0.028045   |   0.7 |  0.13
Comm    | 9.1512     | 16.471     | 18.236     |  60.3 | 81.78
Output  | 0.0090427  | 0.017488   | 0.025511   |   3.9 |  0.09
Modify  | 0.83837    | 1.177      | 2.2149     |  25.5 |  5.84
Other   |            | 0.7768     |            |       |  3.86

Nlocal:        7.51562 ave          33 max           0 min
Histogram: 36 11 1 0 2 2 4 3 3 2
Nghost:        1933.02 ave        2522 max        1412 min
Histogram: 16 0 0 0 32 0 0 0 0 16
Neighs:              0 ave           0 max           0 min
Histogram: 64 0 0 0 0 0 0 0 0 0

Total # of neighbors = 0
Ave neighs/atom = 0
Ave special neighs/atom = 15.567568
Neighbor list builds = 49
Dangerous builds = 0
unfix           myat1
next            cpt
jump            SELF loop
variable        zdes equal  -15+0.60*(${cpt}-1)
variable        zdes equal  -15+0.60*(7-1)
variable        zave equal xcm(H2,z)
fix             mytth2 H2 spring tether ${k1} 2.5 2.5 ${zdes} 0
fix             mytth2 H2 spring tether 1 2.5 2.5 ${zdes} 0
fix             mytth2 H2 spring tether 1 2.5 2.5 -11.4 0
run             10000
Generated 0 of 1 mixed pair_coeff terms from geometric mixing rule
Per MPI rank memory allocation (min/avg/max) = 13.32 | 13.62 | 14.95 Mbytes
   Step          Temp          E_pair         E_mol          TotEng         Press     
    380000   120.30775      388.39505      18317.191      18877.721      158.29118    
    390000   120.99887      372.38311      18340.376      18885.883     -311.27456    
Loop time of 4.14478 on 64 procs for 10000 steps with 481 atoms

Performance: 10.423 ns/day, 2.303 hours/ns, 2412.671 timesteps/s, 1.160 Matom-step/s
100.0% CPU use with 64 MPI tasks x 1 OpenMP threads

MPI task timing breakdown:
Section |  min time  |  avg time  |  max time  |%varavg| %total
---------------------------------------------------------------
Pair    | 0.0046261  | 0.1628     | 0.95556    |  63.1 |  3.93
Bond    | 0.0012639  | 0.18087    | 0.96636    |  66.2 |  4.36
Neigh   | 0.0041351  | 0.0047129  | 0.0050367  |   0.3 |  0.11
Comm    | 1.956      | 3.4001     | 3.7543     |  27.2 | 82.03
Output  | 0.0016031  | 0.003356   | 0.0050782  |   1.9 |  0.08
Modify  | 0.16049    | 0.23688    | 0.42245    |  10.9 |  5.72
Other   |            | 0.156      |            |       |  3.76

Nlocal:        7.51562 ave          31 max           0 min
Histogram: 35 12 1 0 1 2 1 4 6 2
Nghost:        1934.14 ave        2524 max        1413 min
Histogram: 16 0 0 0 32 0 0 0 0 16
Neighs:              0 ave           0 max           0 min
Histogram: 64 0 0 0 0 0 0 0 0 0

Total # of neighbors = 0
Ave neighs/atom = 0
Ave special neighs/atom = 15.567568
Neighbor list builds = 9
Dangerous builds = 0
fix             myat1 all ave/time 100 10 1000 v_zave v_zdes file simulation_data/abpot/${cpt}.dat
fix             myat1 all ave/time 100 10 1000 v_zave v_zdes file simulation_data/abpot/7.dat
run             50000
Generated 0 of 1 mixed pair_coeff terms from geometric mixing rule
Per MPI rank memory allocation (min/avg/max) = 13.32 | 13.62 | 14.95 Mbytes
   Step          Temp          E_pair         E_mol          TotEng         Press     
    390000   120.99887      372.38311      18340.376      18885.883     -311.27456    
    400000   116.29398      378.86406      18324.799      18870.055      9.9752757    
    410000   118.07473      395.4135       18321.659      18886.012      476.01861    
    420000   120.34386      371.47264      18352.246      18895.905     -313.22579    
    430000   131.39067      372.03507      18327.979      18888.007     -265.95733    
    440000   112.34065      389.01875      18323.423      18873.178      234.17732    
Loop time of 20.4495 on 64 procs for 50000 steps with 481 atoms

Performance: 10.563 ns/day, 2.272 hours/ns, 2445.046 timesteps/s, 1.176 Matom-step/s
100.0% CPU use with 64 MPI tasks x 1 OpenMP threads

MPI task timing breakdown:
Section |  min time  |  avg time  |  max time  |%varavg| %total
---------------------------------------------------------------
Pair    | 0.02743    | 0.81065    | 5.2462     | 143.4 |  3.96
Bond    | 0.006463   | 0.89759    | 4.3439     | 145.9 |  4.39
Neigh   | 0.021077   | 0.023784   | 0.025492   |   0.7 |  0.12
Comm    | 9.5876     | 16.718     | 18.486     |  61.1 | 81.75
Output  | 0.0090372  | 0.017493   | 0.025446   |   3.9 |  0.09
Modify  | 0.81642    | 1.1956     | 2.2161     |  26.0 |  5.85
Other   |            | 0.7868     |            |       |  3.85

Nlocal:        7.51562 ave          33 max           0 min
Histogram: 36 9 3 0 2 3 3 3 2 3
Nghost:        1933.56 ave        2522 max        1410 min
Histogram: 16 0 0 0 32 0 0 0 0 16
Neighs:              0 ave           0 max           0 min
Histogram: 64 0 0 0 0 0 0 0 0 0

Total # of neighbors = 0
Ave neighs/atom = 0
Ave special neighs/atom = 15.567568
Neighbor list builds = 45
Dangerous builds = 0
unfix           myat1
next            cpt
jump            SELF loop
variable        zdes equal  -15+0.60*(${cpt}-1)
variable        zdes equal  -15+0.60*(8-1)
variable        zave equal xcm(H2,z)
fix             mytth2 H2 spring tether ${k1} 2.5 2.5 ${zdes} 0
fix             mytth2 H2 spring tether 1 2.5 2.5 ${zdes} 0
fix             mytth2 H2 spring tether 1 2.5 2.5 -10.8 0
run             10000
Generated 0 of 1 mixed pair_coeff terms from geometric mixing rule
Per MPI rank memory allocation (min/avg/max) = 13.32 | 13.62 | 14.95 Mbytes
   Step          Temp          E_pair         E_mol          TotEng         Press     
    440000   112.34065      389.01875      18323.423      18873.178      234.17732    
    450000   112.56853      377.48725      18334.852      18873.401     -102.57515    
Loop time of 4.08666 on 64 procs for 10000 steps with 481 atoms

Performance: 10.571 ns/day, 2.270 hours/ns, 2446.987 timesteps/s, 1.177 Matom-step/s
100.0% CPU use with 64 MPI tasks x 1 OpenMP threads

MPI task timing breakdown:
Section |  min time  |  avg time  |  max time  |%varavg| %total
---------------------------------------------------------------
Pair    | 0.0040602  | 0.16334    | 1.0307     |  64.0 |  4.00
Bond    | 0.00123    | 0.18142    | 1.0005     |  66.3 |  4.44
Neigh   | 0.0052916  | 0.0059628  | 0.0063311  |   0.3 |  0.15
Comm    | 1.8923     | 3.3265     | 3.7062     |  27.5 | 81.40
Output  | 0.0015483  | 0.0033222  | 0.0050542  |   1.9 |  0.08
Modify  | 0.15258    | 0.24828    | 0.62232    |  20.3 |  6.08
Other   |            | 0.1578     |            |       |  3.86

Nlocal:        7.51562 ave          37 max           0 min
Histogram: 37 11 0 2 3 3 2 2 3 1
Nghost:        1933.56 ave        2521 max        1406 min
Histogram: 16 0 0 0 32 0 0 0 0 16
Neighs:              0 ave           0 max           0 min
Histogram: 64 0 0 0 0 0 0 0 0 0

Total # of neighbors = 0
Ave neighs/atom = 0
Ave special neighs/atom = 15.567568
Neighbor list builds = 11
Dangerous builds = 0
fix             myat1 all ave/time 100 10 1000 v_zave v_zdes file simulation_data/abpot/${cpt}.dat
fix             myat1 all ave/time 100 10 1000 v_zave v_zdes file simulation_data/abpot/8.dat
run             50000
Generated 0 of 1 mixed pair_coeff terms from geometric mixing rule
Per MPI rank memory allocation (min/avg/max) = 13.32 | 13.62 | 14.95 Mbytes
   Step          Temp          E_pair         E_mol          TotEng         Press     
    450000   112.56853      377.48725      18334.852      18873.401     -102.57515    
    460000   122.33275      377.79565      18330.506      18883.334     -55.791274    
    470000   120.41862      374.55885      18341.323      18888.175     -146.81546    
    480000   134.90083      371.71084      18340.544      18905.27      -309.34038    
    490000   115.86308      390.40623      18334.506      18890.688      217.75625    
    500000   126.64891      394.45729      18318.448      18894.113      436.15132    
Loop time of 19.8752 on 64 procs for 50000 steps with 481 atoms

Performance: 10.868 ns/day, 2.208 hours/ns, 2515.694 timesteps/s, 1.210 Matom-step/s
100.0% CPU use with 64 MPI tasks x 1 OpenMP threads

MPI task timing breakdown:
Section |  min time  |  avg time  |  max time  |%varavg| %total
---------------------------------------------------------------
Pair    | 0.027985   | 0.80168    | 5.3864     | 140.6 |  4.03
Bond    | 0.0072234  | 0.89207    | 4.0692     | 144.0 |  4.49
Neigh   | 0.028915   | 0.032639   | 0.034962   |   0.8 |  0.16
Comm    | 9.0377     | 16.138     | 17.941     |  60.8 | 81.20
Output  | 0.0089352  | 0.017334   | 0.025264   |   3.9 |  0.09
Modify  | 0.78387    | 1.2157     | 2.5396     |  30.3 |  6.12
Other   |            | 0.7778     |            |       |  3.91

Nlocal:        7.51562 ave          30 max           0 min
Histogram: 30 13 5 0 0 1 2 4 7 2
Nghost:        1933.58 ave        2524 max        1414 min
Histogram: 16 0 0 0 32 0 0 0 0 16
Neighs:              0 ave           0 max           0 min
Histogram: 64 0 0 0 0 0 0 0 0 0

Total # of neighbors = 0
Ave neighs/atom = 0
Ave special neighs/atom = 15.567568
Neighbor list builds = 64
Dangerous builds = 0
unfix           myat1
next            cpt
jump            SELF loop
variable        zdes equal  -15+0.60*(${cpt}-1)
variable        zdes equal  -15+0.60*(9-1)
variable        zave equal xcm(H2,z)
fix             mytth2 H2 spring tether ${k1} 2.5 2.5 ${zdes} 0
fix             mytth2 H2 spring tether 1 2.5 2.5 ${zdes} 0
fix             mytth2 H2 spring tether 1 2.5 2.5 -10.2 0
run             10000
Generated 0 of 1 mixed pair_coeff terms from geometric mixing rule
Per MPI rank memory allocation (min/avg/max) = 13.32 | 13.62 | 14.95 Mbytes
   Step          Temp          E_pair         E_mol          TotEng         Press     
    500000   126.64891      394.45729      18318.448      18894.113      436.15132    
    510000   122.25922      361.16631      18342.307      18878.401     -679.85325    
Loop time of 3.92913 on 64 procs for 10000 steps with 481 atoms

Performance: 10.995 ns/day, 2.183 hours/ns, 2545.094 timesteps/s, 1.224 Matom-step/s
100.0% CPU use with 64 MPI tasks x 1 OpenMP threads

MPI task timing breakdown:
Section |  min time  |  avg time  |  max time  |%varavg| %total
---------------------------------------------------------------
Pair    | 0.0042068  | 0.15447    | 1.0531     |  62.6 |  3.93
Bond    | 0.0013201  | 0.17075    | 0.77763    |  62.8 |  4.35
Neigh   | 0.004883   | 0.0055014  | 0.0060622  |   0.4 |  0.14
Comm    | 1.7821     | 3.2085     | 3.5547     |  26.4 | 81.66
Output  | 0.0015711  | 0.0032634  | 0.0049075  |   1.8 |  0.08
Modify  | 0.15716    | 0.23343    | 0.35587    |  10.5 |  5.94
Other   |            | 0.1532     |            |       |  3.90

Nlocal:        7.51562 ave          28 max           0 min
Histogram: 28 19 1 0 0 0 2 6 1 7
Nghost:        1934.12 ave        2522 max        1417 min
Histogram: 16 0 0 0 32 0 0 0 0 16
Neighs:              0 ave           0 max           0 min
Histogram: 64 0 0 0 0 0 0 0 0 0

Total # of neighbors = 0
Ave neighs/atom = 0
Ave special neighs/atom = 15.567568
Neighbor list builds = 11
Dangerous builds = 0
fix             myat1 all ave/time 100 10 1000 v_zave v_zdes file simulation_data/abpot/${cpt}.dat
fix             myat1 all ave/time 100 10 1000 v_zave v_zdes file simulation_data/abpot/9.dat
run             50000
Generated 0 of 1 mixed pair_coeff terms from geometric mixing rule
Per MPI rank memory allocation (min/avg/max) = 13.32 | 13.62 | 14.95 Mbytes
   Step          Temp          E_pair         E_mol          TotEng         Press     
    510000   122.25922      361.16631      18342.307      18878.401     -679.85325    
    520000   123.17183      367.39171      18339.576      18883.201     -418.36159    
    530000   110.48549      405.07143      18324.432      18887.585      707.57199    
    540000   117.77365      380.83211      18345.687      18895.028     -61.535758    
    550000   121.12066      363.05256      18352.024      18888.374     -504.00227    
    560000   121.07438      378.47613      18329.982      18881.69      -109.99296    
Loop time of 19.333 on 64 procs for 50000 steps with 481 atoms

Performance: 11.173 ns/day, 2.148 hours/ns, 2586.252 timesteps/s, 1.244 Matom-step/s
100.0% CPU use with 64 MPI tasks x 1 OpenMP threads

MPI task timing breakdown:
Section |  min time  |  avg time  |  max time  |%varavg| %total
---------------------------------------------------------------
Pair    | 0.021501   | 0.7834     | 5.3603     | 137.0 |  4.05
Bond    | 0.0069016  | 0.86707    | 3.966      | 141.0 |  4.48
Neigh   | 0.024445   | 0.027622   | 0.030352   |   0.9 |  0.14
Comm    | 8.4615     | 15.683     | 17.407     |  59.7 | 81.12
Output  | 0.008727   | 0.017139   | 0.025064   |   3.9 |  0.09
Modify  | 0.81495    | 1.1884     | 2.1386     |  25.1 |  6.15
Other   |            | 0.766      |            |       |  3.96

Nlocal:        7.51562 ave          30 max           0 min
Histogram: 29 19 0 0 0 0 4 2 7 3
Nghost:        1934.12 ave        2524 max        1417 min
Histogram: 16 0 0 0 32 0 0 0 0 16
Neighs:              0 ave           0 max           0 min
Histogram: 64 0 0 0 0 0 0 0 0 0

Total # of neighbors = 0
Ave neighs/atom = 0
Ave special neighs/atom = 15.567568
Neighbor list builds = 57
Dangerous builds = 0
unfix           myat1
next            cpt
jump            SELF loop
variable        zdes equal  -15+0.60*(${cpt}-1)
variable        zdes equal  -15+0.60*(10-1)
variable        zave equal xcm(H2,z)
fix             mytth2 H2 spring tether ${k1} 2.5 2.5 ${zdes} 0
fix             mytth2 H2 spring tether 1 2.5 2.5 ${zdes} 0
fix             mytth2 H2 spring tether 1 2.5 2.5 -9.6 0
run             10000
Generated 0 of 1 mixed pair_coeff terms from geometric mixing rule
Per MPI rank memory allocation (min/avg/max) = 13.32 | 13.62 | 14.95 Mbytes
   Step          Temp          E_pair         E_mol          TotEng         Press     
    560000   121.07438      378.47613      18329.982      18881.69      -109.99296    
    570000   118.88251      389.67015      18337.099      18896.865      237.86626    
Loop time of 3.9144 on 64 procs for 10000 steps with 481 atoms

Performance: 11.036 ns/day, 2.175 hours/ns, 2554.670 timesteps/s, 1.229 Matom-step/s
99.9% CPU use with 64 MPI tasks x 1 OpenMP threads

MPI task timing breakdown:
Section |  min time  |  avg time  |  max time  |%varavg| %total
---------------------------------------------------------------
Pair    | 0.0037985  | 0.15765    | 1.0614     |  61.2 |  4.03
Bond    | 0.0012307  | 0.17175    | 0.85838    |  62.0 |  4.39
Neigh   | 0.0033875  | 0.0038887  | 0.0043921  |   0.4 |  0.10
Comm    | 1.7772     | 3.1936     | 3.519      |  26.2 | 81.58
Output  | 0.0015173  | 0.0033184  | 0.005045   |   1.9 |  0.08
Modify  | 0.15532    | 0.23244    | 0.4351     |  11.7 |  5.94
Other   |            | 0.1518     |            |       |  3.88

Nlocal:        7.51562 ave          30 max           0 min
Histogram: 32 13 3 0 0 1 2 4 5 4
Nghost:        1933.56 ave        2522 max        1415 min
Histogram: 16 0 0 0 32 0 0 0 0 16
Neighs:              0 ave           0 max           0 min
Histogram: 64 0 0 0 0 0 0 0 0 0

Total # of neighbors = 0
Ave neighs/atom = 0
Ave special neighs/atom = 15.567568
Neighbor list builds = 8
Dangerous builds = 0
fix             myat1 all ave/time 100 10 1000 v_zave v_zdes file simulation_data/abpot/${cpt}.dat
fix             myat1 all ave/time 100 10 1000 v_zave v_zdes file simulation_data/abpot/10.dat
run             50000
Generated 0 of 1 mixed pair_coeff terms from geometric mixing rule
Per MPI rank memory allocation (min/avg/max) = 13.32 | 13.62 | 14.95 Mbytes
   Step          Temp          E_pair         E_mol          TotEng         Press     
    570000   118.88251      389.67015      18337.099      18896.865      237.86626    
    580000   120.3022       378.71718      18345.01       18895.854     -144.46816    
    590000   115.01129      377.50214      18333.822      18875.881     -110.21875    
    600000   119.41257      371.70987      18349.795      18892.359     -372.37847    
    610000   118.42668      379.12003      18335.657      18884.22       9.8880319    
    620000   121.27447      388.1684       18315.862      18877.548      180.22104    
Loop time of 18.8688 on 64 procs for 50000 steps with 481 atoms

Performance: 11.447 ns/day, 2.097 hours/ns, 2649.881 timesteps/s, 1.275 Matom-step/s
100.0% CPU use with 64 MPI tasks x 1 OpenMP threads

MPI task timing breakdown:
Section |  min time  |  avg time  |  max time  |%varavg| %total
---------------------------------------------------------------
Pair    | 0.021692   | 0.74589    | 5.3404     | 129.2 |  3.95
Bond    | 0.0056826  | 0.83757    | 3.7178     | 135.4 |  4.44
Neigh   | 0.018981   | 0.021735   | 0.023814   |   0.8 |  0.12
Comm    | 8.2798     | 15.281     | 16.911     |  55.7 | 80.99
Output  | 0.0086474  | 0.017061   | 0.024945   |   3.9 |  0.09
Modify  | 0.748      | 1.2085     | 2.2775     |  27.5 |  6.40
Other   |            | 0.7567     |            |       |  4.01

Nlocal:        7.51562 ave          35 max           0 min
Histogram: 36 12 0 0 5 2 2 1 3 3
Nghost:        1934.12 ave        2524 max        1408 min
Histogram: 16 0 0 0 32 0 0 0 0 16
Neighs:              0 ave           0 max           0 min
Histogram: 64 0 0 0 0 0 0 0 0 0

Total # of neighbors = 0
Ave neighs/atom = 0
Ave special neighs/atom = 15.567568
Neighbor list builds = 47
Dangerous builds = 0
unfix           myat1
next            cpt
jump            SELF loop
variable        zdes equal  -15+0.60*(${cpt}-1)
variable        zdes equal  -15+0.60*(11-1)
variable        zave equal xcm(H2,z)
fix             mytth2 H2 spring tether ${k1} 2.5 2.5 ${zdes} 0
fix             mytth2 H2 spring tether 1 2.5 2.5 ${zdes} 0
fix             mytth2 H2 spring tether 1 2.5 2.5 -9 0
run             10000
Generated 0 of 1 mixed pair_coeff terms from geometric mixing rule
Per MPI rank memory allocation (min/avg/max) = 13.32 | 13.62 | 14.95 Mbytes
   Step          Temp          E_pair         E_mol          TotEng         Press     
    620000   121.27447      388.1684       18315.862      18877.548      180.22104    
    630000   116.77818      374.80289      18320.443      18862.33      -141.60274    
Loop time of 3.79788 on 64 procs for 10000 steps with 481 atoms

Performance: 11.375 ns/day, 2.110 hours/ns, 2633.049 timesteps/s, 1.266 Matom-step/s
100.0% CPU use with 64 MPI tasks x 1 OpenMP threads

MPI task timing breakdown:
Section |  min time  |  avg time  |  max time  |%varavg| %total
---------------------------------------------------------------
Pair    | 0.0056831  | 0.15369    | 1.0627     |  58.6 |  4.05
Bond    | 0.0012876  | 0.17358    | 0.85182    |  62.6 |  4.57
Neigh   | 0.0047634  | 0.0054249  | 0.0058567  |   0.4 |  0.14
Comm    | 1.6849     | 3.0624     | 3.3833     |  26.2 | 80.64
Output  | 0.0015706  | 0.0033426  | 0.0050857  |   1.9 |  0.09
Modify  | 0.15998    | 0.24063    | 0.33954    |   8.0 |  6.34
Other   |            | 0.1588     |            |       |  4.18

Nlocal:        7.51562 ave          33 max           0 min
Histogram: 35 13 0 0 3 1 4 3 1 4
Nghost:        1933.56 ave        2522 max        1411 min
Histogram: 16 0 0 0 32 0 0 0 0 16
Neighs:              0 ave           0 max           0 min
Histogram: 64 0 0 0 0 0 0 0 0 0

Total # of neighbors = 0
Ave neighs/atom = 0
Ave special neighs/atom = 15.567568
Neighbor list builds = 11
Dangerous builds = 0
fix             myat1 all ave/time 100 10 1000 v_zave v_zdes file simulation_data/abpot/${cpt}.dat
fix             myat1 all ave/time 100 10 1000 v_zave v_zdes file simulation_data/abpot/11.dat
run             50000
Generated 0 of 1 mixed pair_coeff terms from geometric mixing rule
Per MPI rank memory allocation (min/avg/max) = 13.32 | 13.62 | 14.95 Mbytes
   Step          Temp          E_pair         E_mol          TotEng         Press     
    630000   116.77818      374.80289      18320.443      18862.33      -141.60274    
    640000   123.59301      376.46169      18334.115      18887.412     -174.31162    
    650000   125.96625      380.88806      18331.895      18893.014     -21.324568    
    660000   113.97463      384.93119      18342.026      18890.031      53.580952    
    670000   112.45582      369.99334      18340.822      18871.716     -348.33628    
    680000   119.7156       370.9178       18337.797      18880.003     -272.86327    
Loop time of 18.714 on 64 procs for 50000 steps with 481 atoms

Performance: 11.542 ns/day, 2.079 hours/ns, 2671.793 timesteps/s, 1.285 Matom-step/s
100.0% CPU use with 64 MPI tasks x 1 OpenMP threads

MPI task timing breakdown:
Section |  min time  |  avg time  |  max time  |%varavg| %total
---------------------------------------------------------------
Pair    | 0.02473    | 0.7364     | 5.0887     | 126.6 |  3.94
Bond    | 0.0054317  | 0.8534     | 3.6963     | 138.4 |  4.56
Neigh   | 0.031065   | 0.03546    | 0.038034   |   0.9 |  0.19
Comm    | 8.4892     | 15.089     | 16.755     |  56.4 | 80.63
Output  | 0.0086886  | 0.017006   | 0.024912   |   3.9 |  0.09
Modify  | 0.74035    | 1.223      | 1.8898     |  20.9 |  6.54
Other   |            | 0.7597     |            |       |  4.06

Nlocal:        7.51562 ave          36 max           0 min
Histogram: 36 11 1 1 0 3 7 4 0 1
Nghost:        1931.98 ave        2522 max        1407 min
Histogram: 16 0 0 0 32 0 0 0 0 16
Neighs:              0 ave           0 max           0 min
Histogram: 64 0 0 0 0 0 0 0 0 0

Total # of neighbors = 0
Ave neighs/atom = 0
Ave special neighs/atom = 15.567568
Neighbor list builds = 78
Dangerous builds = 0
unfix           myat1
next            cpt
jump            SELF loop
variable        zdes equal  -15+0.60*(${cpt}-1)
variable        zdes equal  -15+0.60*(12-1)
variable        zave equal xcm(H2,z)
fix             mytth2 H2 spring tether ${k1} 2.5 2.5 ${zdes} 0
fix             mytth2 H2 spring tether 1 2.5 2.5 ${zdes} 0
fix             mytth2 H2 spring tether 1 2.5 2.5 -8.4 0
run             10000
Generated 0 of 1 mixed pair_coeff terms from geometric mixing rule
Per MPI rank memory allocation (min/avg/max) = 13.32 | 13.62 | 14.95 Mbytes
   Step          Temp          E_pair         E_mol          TotEng         Press     
    680000   119.7156       370.9178       18337.797      18880.003     -272.86327    
    690000   124.09625      381.54749      18338.415      18897.518      74.573393    
Loop time of 3.55039 on 64 procs for 10000 steps with 481 atoms

Performance: 12.168 ns/day, 1.972 hours/ns, 2816.594 timesteps/s, 1.355 Matom-step/s
100.0% CPU use with 64 MPI tasks x 1 OpenMP threads

MPI task timing breakdown:
Section |  min time  |  avg time  |  max time  |%varavg| %total
---------------------------------------------------------------
Pair    | 0.0039024  | 0.14146    | 0.93994    |  56.3 |  3.98
Bond    | 0.0010727  | 0.16399    | 0.74266    |  61.5 |  4.62
Neigh   | 0.0054642  | 0.0063204  | 0.0068359  |   0.4 |  0.18
Comm    | 1.6622     | 2.8356     | 3.1742     |  25.1 | 79.87
Output  | 0.0014578  | 0.0032078  | 0.004857   |   1.9 |  0.09
Modify  | 0.12956    | 0.25061    | 0.3667     |  12.1 |  7.06
Other   |            | 0.1492     |            |       |  4.20

Nlocal:        7.51562 ave          40 max           0 min
Histogram: 36 12 1 1 1 4 7 1 0 1
Nghost:        1932.55 ave        2522 max        1403 min
Histogram: 16 0 0 0 32 0 0 0 0 16
Neighs:              0 ave           0 max           0 min
Histogram: 64 0 0 0 0 0 0 0 0 0

Total # of neighbors = 0
Ave neighs/atom = 0
Ave special neighs/atom = 15.567568
Neighbor list builds = 15
Dangerous builds = 0
fix             myat1 all ave/time 100 10 1000 v_zave v_zdes file simulation_data/abpot/${cpt}.dat
fix             myat1 all ave/time 100 10 1000 v_zave v_zdes file simulation_data/abpot/12.dat
run             50000
Generated 0 of 1 mixed pair_coeff terms from geometric mixing rule
Per MPI rank memory allocation (min/avg/max) = 13.32 | 13.62 | 14.95 Mbytes
   Step          Temp          E_pair         E_mol          TotEng         Press     
    690000   124.09625      381.54749      18338.415      18897.518      74.573393    
    700000   119.2856       379.7599       18345.873      18896.306     -220.56536    
    710000   118.62249      378.57164      18335.115      18883.41      -82.062586    
    720000   115.73257      391.50511      18323.598      18880.692      132.27772    
    730000   110.41108      380.12231      18333.256      18871.353     -102.13677    
    740000   112.98025      363.60862      18361.394      18886.654     -591.50315    
Loop time of 19.7349 on 64 procs for 50000 steps with 481 atoms

Performance: 10.945 ns/day, 2.193 hours/ns, 2533.586 timesteps/s, 1.219 Matom-step/s
100.0% CPU use with 64 MPI tasks x 1 OpenMP threads

MPI task timing breakdown:
Section |  min time  |  avg time  |  max time  |%varavg| %total
---------------------------------------------------------------
Pair    | 0.019452   | 0.75809    | 4.8519     | 136.4 |  3.84
Bond    | 0.0056519  | 0.85383    | 4.2187     | 141.4 |  4.33
Neigh   | 0.040256   | 0.044332   | 0.046865   |   0.8 |  0.22
Comm    | 8.9615     | 16.047     | 17.824     |  57.6 | 81.31
Output  | 0.0088769  | 0.017127   | 0.02483    |   3.8 |  0.09
Modify  | 0.76575    | 1.2421     | 1.7662     |  22.7 |  6.29
Other   |            | 0.7723     |            |       |  3.91

Nlocal:        7.51562 ave          29 max           0 min
Histogram: 30 17 1 0 0 1 3 5 1 6
Nghost:        1933.58 ave        2522 max        1418 min
Histogram: 16 0 0 0 32 0 0 0 0 16
Neighs:              0 ave           0 max           0 min
Histogram: 64 0 0 0 0 0 0 0 0 0

Total # of neighbors = 0
Ave neighs/atom = 0
Ave special neighs/atom = 15.567568
Neighbor list builds = 88
Dangerous builds = 0
unfix           myat1
next            cpt
jump            SELF loop
variable        zdes equal  -15+0.60*(${cpt}-1)
variable        zdes equal  -15+0.60*(13-1)
variable        zave equal xcm(H2,z)
fix             mytth2 H2 spring tether ${k1} 2.5 2.5 ${zdes} 0
fix             mytth2 H2 spring tether 1 2.5 2.5 ${zdes} 0
fix             mytth2 H2 spring tether 1 2.5 2.5 -7.8 0
run             10000
Generated 0 of 1 mixed pair_coeff terms from geometric mixing rule
Per MPI rank memory allocation (min/avg/max) = 13.32 | 13.62 | 14.95 Mbytes
   Step          Temp          E_pair         E_mol          TotEng         Press     
    740000   112.98025      363.60862      18361.394      18886.654     -591.50315    
    750000   122.72037      390.66024      18325.346      18891.593      124.05898    
Loop time of 3.7858 on 64 procs for 10000 steps with 481 atoms

Performance: 11.411 ns/day, 2.103 hours/ns, 2641.447 timesteps/s, 1.271 Matom-step/s
100.0% CPU use with 64 MPI tasks x 1 OpenMP threads

MPI task timing breakdown:
Section |  min time  |  avg time  |  max time  |%varavg| %total
---------------------------------------------------------------
Pair    | 0.0047613  | 0.14422    | 1.0556     |  58.5 |  3.81
Bond    | 0.0012271  | 0.16498    | 0.74811    |  61.9 |  4.36
Neigh   | 0.0079318  | 0.0087505  | 0.0092864  |   0.4 |  0.23
Comm    | 1.7023     | 3.0877     | 3.4316     |  24.9 | 81.56
Output  | 0.0015478  | 0.0033168  | 0.0049946  |   1.9 |  0.09
Modify  | 0.12279    | 0.23162    | 0.39803    |  12.9 |  6.12
Other   |            | 0.1452     |            |       |  3.84

Nlocal:        7.51562 ave          33 max           0 min
Histogram: 34 13 1 0 1 1 6 6 1 1
Nghost:        1934.14 ave        2524 max        1419 min
Histogram: 16 0 0 0 32 0 0 0 0 16
Neighs:              0 ave           0 max           0 min
Histogram: 64 0 0 0 0 0 0 0 0 0

Total # of neighbors = 0
Ave neighs/atom = 0
Ave special neighs/atom = 15.567568
Neighbor list builds = 18
Dangerous builds = 0
fix             myat1 all ave/time 100 10 1000 v_zave v_zdes file simulation_data/abpot/${cpt}.dat
fix             myat1 all ave/time 100 10 1000 v_zave v_zdes file simulation_data/abpot/13.dat
run             50000
Generated 0 of 1 mixed pair_coeff terms from geometric mixing rule
Per MPI rank memory allocation (min/avg/max) = 13.32 | 13.62 | 14.95 Mbytes
   Step          Temp          E_pair         E_mol          TotEng         Press     
    750000   122.72037      390.66024      18325.346      18891.593      124.05898    
    760000   118.2807       393.89004      18332.156      18895.281      128.07817    
    770000   116.46305      381.4788       18334.657      18882.769     -153.64445    
    780000   107.5095       377.52405      18348.35       18879.697     -282.61638    
    790000   119.1573       386.79691      18335.714      18892.999      23.421399    
    800000   116.96867      394.63632      18332.336      18894.33       254.90863    
Loop time of 19.1298 on 64 procs for 50000 steps with 481 atoms

Performance: 11.291 ns/day, 2.126 hours/ns, 2613.720 timesteps/s, 1.257 Matom-step/s
100.0% CPU use with 64 MPI tasks x 1 OpenMP threads

MPI task timing breakdown:
Section |  min time  |  avg time  |  max time  |%varavg| %total
---------------------------------------------------------------
Pair    | 0.020613   | 0.76006    | 4.8535     | 130.0 |  3.97
Bond    | 0.0066885  | 0.85277    | 3.9102     | 139.3 |  4.46
Neigh   | 0.043906   | 0.049376   | 0.052518   |   1.0 |  0.26
Comm    | 9.1612     | 15.411     | 17.205     |  56.9 | 80.56
Output  | 0.0085928  | 0.016726   | 0.024255   |   3.8 |  0.09
Modify  | 0.64483    | 1.3087     | 2.7231     |  31.6 |  6.84
Other   |            | 0.7308     |            |       |  3.82

Nlocal:        7.51562 ave          30 max           0 min
Histogram: 29 17 2 0 0 0 6 2 3 5
Nghost:        1933.56 ave        2521 max        1416 min
Histogram: 16 0 0 0 32 0 0 0 0 16
Neighs:              0 ave           0 max           0 min
Histogram: 64 0 0 0 0 0 0 0 0 0

Total # of neighbors = 0
Ave neighs/atom = 0
Ave special neighs/atom = 15.567568
Neighbor list builds = 104
Dangerous builds = 0
unfix           myat1
next            cpt
jump            SELF loop
variable        zdes equal  -15+0.60*(${cpt}-1)
variable        zdes equal  -15+0.60*(14-1)
variable        zave equal xcm(H2,z)
fix             mytth2 H2 spring tether ${k1} 2.5 2.5 ${zdes} 0
fix             mytth2 H2 spring tether 1 2.5 2.5 ${zdes} 0
fix             mytth2 H2 spring tether 1 2.5 2.5 -7.2 0
run             10000
Generated 0 of 1 mixed pair_coeff terms from geometric mixing rule
Per MPI rank memory allocation (min/avg/max) = 13.32 | 13.62 | 14.95 Mbytes
   Step          Temp          E_pair         E_mol          TotEng         Press     
    800000   116.96867      394.63632      18332.336      18894.33       254.90863    
    810000   115.06697      381.4071       18336.221      18882.264     -112.24843    
Loop time of 4.05975 on 64 procs for 10000 steps with 481 atoms

Performance: 10.641 ns/day, 2.255 hours/ns, 2463.204 timesteps/s, 1.185 Matom-step/s
100.0% CPU use with 64 MPI tasks x 1 OpenMP threads

MPI task timing breakdown:
Section |  min time  |  avg time  |  max time  |%varavg| %total
---------------------------------------------------------------
Pair    | 0.0061872  | 0.16102    | 1.0708     |  61.4 |  3.97
Bond    | 0.0013674  | 0.17695    | 0.92874    |  64.5 |  4.36
Neigh   | 0.011619   | 0.013333   | 0.014478   |   0.6 |  0.33
Comm    | 1.7163     | 3.2869     | 3.6732     |  26.8 | 80.96
Output  | 0.0015106  | 0.0031813  | 0.0047784  |   1.8 |  0.08
Modify  | 0.14247    | 0.26434    | 0.52663    |  14.8 |  6.51
Other   |            | 0.154      |            |       |  3.79

Nlocal:        7.51562 ave          30 max           0 min
Histogram: 29 16 3 0 0 1 3 3 5 4
Nghost:        1933.58 ave        2520 max        1419 min
Histogram: 16 0 0 0 32 0 0 0 0 16
Neighs:              0 ave           0 max           0 min
Histogram: 64 0 0 0 0 0 0 0 0 0

Total # of neighbors = 0
Ave neighs/atom = 0
Ave special neighs/atom = 15.567568
Neighbor list builds = 26
Dangerous builds = 0
fix             myat1 all ave/time 100 10 1000 v_zave v_zdes file simulation_data/abpot/${cpt}.dat
fix             myat1 all ave/time 100 10 1000 v_zave v_zdes file simulation_data/abpot/14.dat
run             50000
Generated 0 of 1 mixed pair_coeff terms from geometric mixing rule
Per MPI rank memory allocation (min/avg/max) = 13.32 | 13.62 | 14.95 Mbytes
   Step          Temp          E_pair         E_mol          TotEng         Press     
    810000   115.06697      381.4071       18336.221      18882.264     -112.24843    
    820000   121.92312      378.29525      18339.476      18892.218     -180.81303    
    830000   119.66971      388.63444      18339.635      18899.491      20.026934    
    840000   119.53183      394.89578      18313.205      18879.125      189.75441    
    850000   113.78228      377.98692      18337.505      18878.29      -272.94364    
    860000   120.01496      379.51846      18328.343      18879.578     -164.41824    
Loop time of 18.0836 on 64 procs for 50000 steps with 481 atoms

Performance: 11.945 ns/day, 2.009 hours/ns, 2764.943 timesteps/s, 1.330 Matom-step/s
100.0% CPU use with 64 MPI tasks x 1 OpenMP threads

MPI task timing breakdown:
Section |  min time  |  avg time  |  max time  |%varavg| %total
---------------------------------------------------------------
Pair    | 0.024305   | 0.73169    | 3.9953     | 125.0 |  4.05
Bond    | 0.0071046  | 0.83709    | 3.9106     | 138.1 |  4.63
Neigh   | 0.050825   | 0.058189   | 0.062476   |   1.2 |  0.32
Comm    | 8.7342     | 14.557     | 16.226     |  56.8 | 80.50
Output  | 0.008217   | 0.015721   | 0.022721   |   3.6 |  0.09
Modify  | 0.75029    | 1.1839     | 2.0199     |  23.1 |  6.55
Other   |            | 0.7002     |            |       |  3.87

Nlocal:        7.51562 ave          34 max           0 min
Histogram: 32 15 1 0 2 2 4 4 2 2
Nghost:        1929.25 ave        2522 max        1409 min
Histogram: 16 0 0 0 32 0 0 0 0 16
Neighs:              0 ave           0 max           0 min
Histogram: 64 0 0 0 0 0 0 0 0 0

Total # of neighbors = 0
Ave neighs/atom = 0
Ave special neighs/atom = 15.567568
Neighbor list builds = 131
Dangerous builds = 0
unfix           myat1
next            cpt
jump            SELF loop
variable        zdes equal  -15+0.60*(${cpt}-1)
variable        zdes equal  -15+0.60*(15-1)
variable        zave equal xcm(H2,z)
fix             mytth2 H2 spring tether ${k1} 2.5 2.5 ${zdes} 0
fix             mytth2 H2 spring tether 1 2.5 2.5 ${zdes} 0
fix             mytth2 H2 spring tether 1 2.5 2.5 -6.6 0
run             10000
Generated 0 of 1 mixed pair_coeff terms from geometric mixing rule
Per MPI rank memory allocation (min/avg/max) = 13.32 | 13.62 | 14.95 Mbytes
   Step          Temp          E_pair         E_mol          TotEng         Press     
    860000   120.01496      379.51846      18328.343      18879.578     -164.41824    
    870000   122.21757      395.75897      18318.348      18888.975      246.71962    
Loop time of 4.20376 on 64 procs for 10000 steps with 481 atoms

Performance: 10.277 ns/day, 2.335 hours/ns, 2378.824 timesteps/s, 1.144 Matom-step/s
100.0% CPU use with 64 MPI tasks x 1 OpenMP threads

MPI task timing breakdown:
Section |  min time  |  avg time  |  max time  |%varavg| %total
---------------------------------------------------------------
Pair    | 0.0040942  | 0.16699    | 1.1257     |  62.3 |  3.97
Bond    | 0.0013858  | 0.18618    | 0.96629    |  66.9 |  4.43
Neigh   | 0.01262    | 0.014379   | 0.015484   |   0.5 |  0.34
Comm    | 1.7374     | 3.3889     | 3.8051     |  27.4 | 80.62
Output  | 0.0015341  | 0.0031842  | 0.0047406  |   1.8 |  0.08
Modify  | 0.15657    | 0.29419    | 0.58412    |  17.7 |  7.00
Other   |            | 0.1499     |            |       |  3.57

Nlocal:        7.51562 ave          30 max           0 min
Histogram: 28 19 1 0 0 0 3 6 4 3
Nghost:        1934.12 ave        2524 max        1413 min
Histogram: 16 0 0 0 32 0 0 0 0 16
Neighs:              0 ave           0 max           0 min
Histogram: 64 0 0 0 0 0 0 0 0 0

Total # of neighbors = 0
Ave neighs/atom = 0
Ave special neighs/atom = 15.567568
Neighbor list builds = 27
Dangerous builds = 0
fix             myat1 all ave/time 100 10 1000 v_zave v_zdes file simulation_data/abpot/${cpt}.dat
fix             myat1 all ave/time 100 10 1000 v_zave v_zdes file simulation_data/abpot/15.dat
run             50000
Generated 0 of 1 mixed pair_coeff terms from geometric mixing rule
Per MPI rank memory allocation (min/avg/max) = 13.32 | 13.62 | 14.95 Mbytes
   Step          Temp          E_pair         E_mol          TotEng         Press     
    870000   122.21757      395.75897      18318.348      18888.975      246.71962    
    880000   128.51237      388.58821      18325.012      18897.474     -1.3141692    
    890000   116.5301       378.32961      18340.5        18885.56      -232.8316     
    900000   116.91985      383.5829       18332.065      18882.935     -4.4855032    
    910000   117.70558      387.47269      18330.079      18885.963      74.49755     
    920000   122.98031      379.30035      18336.946      18892.205     -241.72975    
Loop time of 18.557 on 64 procs for 50000 steps with 481 atoms

Performance: 11.640 ns/day, 2.062 hours/ns, 2694.404 timesteps/s, 1.296 Matom-step/s
100.0% CPU use with 64 MPI tasks x 1 OpenMP threads

MPI task timing breakdown:
Section |  min time  |  avg time  |  max time  |%varavg| %total
---------------------------------------------------------------
Pair    | 0.021863   | 0.73448    | 3.7648     | 121.9 |  3.96
Bond    | 0.006434   | 0.85041    | 3.9286     | 138.1 |  4.58
Neigh   | 0.053108   | 0.058587   | 0.063474   |   1.2 |  0.32
Comm    | 9.5375     | 14.92      | 16.663     |  55.4 | 80.40
Output  | 0.0085869  | 0.016894   | 0.02475    |   4.0 |  0.09
Modify  | 0.83603    | 1.2742     | 2.1953     |  23.8 |  6.87
Other   |            | 0.7024     |            |       |  3.79

Nlocal:        7.51562 ave          35 max           0 min
Histogram: 34 14 0 1 3 3 1 2 2 4
Nghost:        1935.25 ave        2524 max        1410 min
Histogram: 16 0 0 0 32 0 0 0 0 16
Neighs:              0 ave           0 max           0 min
Histogram: 64 0 0 0 0 0 0 0 0 0

Total # of neighbors = 0
Ave neighs/atom = 0
Ave special neighs/atom = 15.567568
Neighbor list builds = 133
Dangerous builds = 0
unfix           myat1
next            cpt
jump            SELF loop
variable        zdes equal  -15+0.60*(${cpt}-1)
variable        zdes equal  -15+0.60*(16-1)
variable        zave equal xcm(H2,z)
fix             mytth2 H2 spring tether ${k1} 2.5 2.5 ${zdes} 0
fix             mytth2 H2 spring tether 1 2.5 2.5 ${zdes} 0
fix             mytth2 H2 spring tether 1 2.5 2.5 -6 0
run             10000
Generated 0 of 1 mixed pair_coeff terms from geometric mixing rule
Per MPI rank memory allocation (min/avg/max) = 13.32 | 13.62 | 14.95 Mbytes
   Step          Temp          E_pair         E_mol          TotEng         Press     
    920000   122.98031      379.30035      18336.946      18892.205     -241.72975    
    930000   114.27053      385.88553      18333.513      18882.896     -93.306016    
Loop time of 3.57539 on 64 procs for 10000 steps with 481 atoms

Performance: 12.083 ns/day, 1.986 hours/ns, 2796.896 timesteps/s, 1.345 Matom-step/s
100.0% CPU use with 64 MPI tasks x 1 OpenMP threads

MPI task timing breakdown:
Section |  min time  |  avg time  |  max time  |%varavg| %total
---------------------------------------------------------------
Pair    | 0.0037692  | 0.14214    | 0.7717     |  53.7 |  3.98
Bond    | 0.001138   | 0.16394    | 0.88502    |  61.0 |  4.59
Neigh   | 0.011459   | 0.012739   | 0.014026   |   0.6 |  0.36
Comm    | 1.6634     | 2.8725     | 3.2009     |  24.8 | 80.34
Output  | 0.001498   | 0.0031818  | 0.0047565  |   1.8 |  0.09
Modify  | 0.15712    | 0.23893    | 0.36925    |   8.2 |  6.68
Other   |            | 0.1419     |            |       |  3.97

Nlocal:        7.51562 ave          34 max           0 min
Histogram: 39 8 1 2 1 2 3 3 1 4
Nghost:        1933.56 ave        2524 max        1411 min
Histogram: 16 0 0 0 32 0 0 0 0 16
Neighs:              0 ave           0 max           0 min
Histogram: 64 0 0 0 0 0 0 0 0 0

Total # of neighbors = 0
Ave neighs/atom = 0
Ave special neighs/atom = 15.567568
Neighbor list builds = 30
Dangerous builds = 0
fix             myat1 all ave/time 100 10 1000 v_zave v_zdes file simulation_data/abpot/${cpt}.dat
fix             myat1 all ave/time 100 10 1000 v_zave v_zdes file simulation_data/abpot/16.dat
run             50000
Generated 0 of 1 mixed pair_coeff terms from geometric mixing rule
Per MPI rank memory allocation (min/avg/max) = 13.32 | 13.62 | 14.95 Mbytes
   Step          Temp          E_pair         E_mol          TotEng         Press     
    930000   114.27053      385.88553      18333.513      18882.896     -93.306016    
    940000   121.12681      394.77083      18319.265      18887.343      214.24647    
    950000   122.32482      378.51858      18329.676      18883.216     -222.04578    
    960000   113.50158      374.15398      18348.259      18884.81      -418.25437    
    970000   128.73067      383.06975      18332.695      18899.952     -122.68464    
    980000   114.77526      386.04272      18346.583      18896.845     -8.4007724    
Loop time of 17.7753 on 64 procs for 50000 steps with 481 atoms

Performance: 12.152 ns/day, 1.975 hours/ns, 2812.892 timesteps/s, 1.353 Matom-step/s
100.0% CPU use with 64 MPI tasks x 1 OpenMP threads

MPI task timing breakdown:
Section |  min time  |  avg time  |  max time  |%varavg| %total
---------------------------------------------------------------
Pair    | 0.019429   | 0.69891    | 3.5266     | 121.0 |  3.93
Bond    | 0.0058308  | 0.79803    | 4.3896     | 133.7 |  4.49
Neigh   | 0.056434   | 0.064265   | 0.071409   |   1.5 |  0.36
Comm    | 8.2617     | 14.324     | 15.971     |  54.2 | 80.58
Output  | 0.0084993  | 0.016136   | 0.023208   |   3.6 |  0.09
Modify  | 0.82457    | 1.1749     | 2.0005     |  22.7 |  6.61
Other   |            | 0.6994     |            |       |  3.93

Nlocal:        7.51562 ave          29 max           0 min
Histogram: 29 18 1 0 0 0 2 6 6 2
Nghost:        1934.69 ave        2524 max        1419 min
Histogram: 16 0 0 0 32 0 0 0 0 16
Neighs:              0 ave           0 max           0 min
Histogram: 64 0 0 0 0 0 0 0 0 0

Total # of neighbors = 0
Ave neighs/atom = 0
Ave special neighs/atom = 15.567568
Neighbor list builds = 150
Dangerous builds = 0
unfix           myat1
next            cpt
jump            SELF loop
variable        zdes equal  -15+0.60*(${cpt}-1)
variable        zdes equal  -15+0.60*(17-1)
variable        zave equal xcm(H2,z)
fix             mytth2 H2 spring tether ${k1} 2.5 2.5 ${zdes} 0
fix             mytth2 H2 spring tether 1 2.5 2.5 ${zdes} 0
fix             mytth2 H2 spring tether 1 2.5 2.5 -5.4 0
run             10000
Generated 0 of 1 mixed pair_coeff terms from geometric mixing rule
Per MPI rank memory allocation (min/avg/max) = 13.32 | 13.62 | 14.95 Mbytes
   Step          Temp          E_pair         E_mol          TotEng         Press     
    980000   114.77526      386.04272      18346.583      18896.845     -8.4007724    
    990000   117.62361      378.7141       18333.634      18880.642     -216.02241    
Loop time of 3.42023 on 64 procs for 10000 steps with 481 atoms

Performance: 12.631 ns/day, 1.900 hours/ns, 2923.780 timesteps/s, 1.406 Matom-step/s
100.0% CPU use with 64 MPI tasks x 1 OpenMP threads

MPI task timing breakdown:
Section |  min time  |  avg time  |  max time  |%varavg| %total
---------------------------------------------------------------
Pair    | 0.0039161  | 0.13002    | 0.81076    |  55.1 |  3.80
Bond    | 0.0010826  | 0.15011    | 0.90237    |  59.8 |  4.39
Neigh   | 0.0081083  | 0.0095144  | 0.010557   |   0.6 |  0.28
Comm    | 1.543      | 2.7869     | 3.093      |  24.3 | 81.48
Output  | 0.0014101  | 0.0028582  | 0.0042219  |   1.6 |  0.08
[...]

MPI task timing breakdown:
Section |  min time  |  avg time  |  max time  |%varavg| %total
---------------------------------------------------------------
Pair    | 0.003823   | 0.13377    | 0.6938     |  53.0 |  3.98
Bond    | 0.0012252  | 0.16087    | 0.84481    |  61.4 |  4.79
Neigh   | 0.0018916  | 0.0021661  | 0.0023943  |   0.3 |  0.06
Comm    | 1.5474     | 2.7352     | 3.0456     |  24.8 | 81.43
Output  | 0.0014467  | 0.002973   | 0.0044404  |   1.7 |  0.09
Modify  | 0.14928    | 0.20223    | 0.30809    |   8.1 |  6.02
Other   |            | 0.1216     |            |       |  3.62

Nlocal:        7.51562 ave          34 max           0 min
Histogram: 35 12 1 0 2 3 2 5 2 2
Nghost:           1933 ave        2524 max        1417 min
Histogram: 16 0 0 0 32 0 0 0 0 16
Neighs:              0 ave           0 max           0 min
Histogram: 64 0 0 0 0 0 0 0 0 0

Total # of neighbors = 0
Ave neighs/atom = 0
Ave special neighs/atom = 15.567568
Neighbor list builds = 5
Dangerous builds = 0
fix             myat1 all ave/time 100 10 1000 v_zave v_zdes file simulation_data/abpot/${cpt}.dat
fix             myat1 all ave/time 100 10 1000 v_zave v_zdes file simulation_data/abpot/47.dat
run             50000
Generated 0 of 1 mixed pair_coeff terms from geometric mixing rule
Per MPI rank memory allocation (min/avg/max) = 13.32 | 13.62 | 14.95 Mbytes
   Step          Temp          E_pair         E_mol          TotEng         Press     
   2790000   120.15364      364.85179      18327.857      18864.623     -397.94563    
   2800000   114.83788      372.96324      18319.592      18856.864     -139.8418     
   2810000   119.57353      388.42235      18305          18864.507      229.44461    
   2820000   112.90809      371.6655       18334.019      18867.232     -334.89415    
   2830000   119.4502       370.96603      18345.445      18887.319     -287.63894    
   2840000   122.44751      379.81487      18322.758      18877.769      8.5937552    
Loop time of 18.2286 on 64 procs for 50000 steps with 481 atoms

Performance: 11.850 ns/day, 2.025 hours/ns, 2742.949 timesteps/s, 1.319 Matom-step/s
100.0% CPU use with 64 MPI tasks x 1 OpenMP threads

MPI task timing breakdown:
Section |  min time  |  avg time  |  max time  |%varavg| %total
---------------------------------------------------------------
Pair    | 0.026519   | 0.70891    | 3.5201     | 124.0 |  3.89
Bond    | 0.006766   | 0.83036    | 4.0902     | 138.8 |  4.56
Neigh   | 0.008438   | 0.009956   | 0.010892   |   0.6 |  0.05
Comm    | 9.2114     | 14.854     | 16.478     |  55.9 | 81.49
Output  | 0.0086833  | 0.016475   | 0.023701   |   3.7 |  0.09
Modify  | 0.85877    | 1.13       | 1.522      |  16.4 |  6.20
Other   |            | 0.6791     |            |       |  3.73

Nlocal:        7.51562 ave          35 max           0 min
Histogram: 36 12 0 1 0 2 7 4 1 1
Nghost:        1932.45 ave        2520 max        1416 min
Histogram: 16 0 0 0 32 0 0 0 0 16
Neighs:              0 ave           0 max           0 min
Histogram: 64 0 0 0 0 0 0 0 0 0

Total # of neighbors = 0
Ave neighs/atom = 0
Ave special neighs/atom = 15.567568
Neighbor list builds = 22
Dangerous builds = 0
unfix           myat1
next            cpt
jump            SELF loop
variable        zdes equal  -15+0.60*(${cpt}-1)
variable        zdes equal  -15+0.60*(48-1)
variable        zave equal xcm(H2,z)
fix             mytth2 H2 spring tether ${k1} 2.5 2.5 ${zdes} 0
fix             mytth2 H2 spring tether 1 2.5 2.5 ${zdes} 0
fix             mytth2 H2 spring tether 1 2.5 2.5 13.2 0
run             10000
Generated 0 of 1 mixed pair_coeff terms from geometric mixing rule
Per MPI rank memory allocation (min/avg/max) = 13.32 | 13.62 | 14.96 Mbytes
   Step          Temp          E_pair         E_mol          TotEng         Press     
   2840000   122.44751      379.81487      18322.758      18877.769      8.5937552    
   2850000   117.21876      375.79029      18326.401      18869.907     -100.61557    
Loop time of 3.6948 on 64 procs for 10000 steps with 481 atoms

Performance: 11.692 ns/day, 2.053 hours/ns, 2706.510 timesteps/s, 1.302 Matom-step/s
100.0% CPU use with 64 MPI tasks x 1 OpenMP threads

MPI task timing breakdown:
Section |  min time  |  avg time  |  max time  |%varavg| %total
---------------------------------------------------------------
Pair    | 0.0037773  | 0.14468    | 0.79514    |  55.5 |  3.92
Bond    | 0.0010969  | 0.16999    | 0.95141    |  63.4 |  4.60
Neigh   | 0.0019165  | 0.0022197  | 0.002481   |   0.3 |  0.06
Comm    | 1.6404     | 2.9852     | 3.3266     |  25.5 | 80.79
Output  | 0.001534   | 0.0031619  | 0.0047209  |   1.8 |  0.09
Modify  | 0.1518     | 0.23828    | 0.39156    |  10.2 |  6.45
Other   |            | 0.1513     |            |       |  4.09

Nlocal:        7.51562 ave          31 max           0 min
Histogram: 37 11 0 0 0 1 1 9 3 2
Nghost:        1934.12 ave        2523 max        1417 min
Histogram: 16 0 0 0 32 0 0 0 0 16
Neighs:              0 ave           0 max           0 min
Histogram: 64 0 0 0 0 0 0 0 0 0

Total # of neighbors = 0
Ave neighs/atom = 0
Ave special neighs/atom = 15.567568
Neighbor list builds = 5
Dangerous builds = 0
fix             myat1 all ave/time 100 10 1000 v_zave v_zdes file simulation_data/abpot/${cpt}.dat
fix             myat1 all ave/time 100 10 1000 v_zave v_zdes file simulation_data/abpot/48.dat
run             50000
Generated 0 of 1 mixed pair_coeff terms from geometric mixing rule
Per MPI rank memory allocation (min/avg/max) = 13.32 | 13.62 | 14.96 Mbytes
   Step          Temp          E_pair         E_mol          TotEng         Press     
   2850000   117.21876      375.79029      18326.401      18869.907     -100.61557    
   2860000   115.35357      371.98643      18326.737      18863.77      -231.12443    
   2870000   120.39733      380.36368      18322.64       18875.267      93.819987    
   2880000   122.17185      382.14399      18322.399      18879.345      55.087867    
   2890000   116.4797       370.48847      18331.779      18868.925     -294.73591    
   2900000   119.27667      369.74867      18330.665      18871.073     -338.71553    
Loop time of 17.6479 on 64 procs for 50000 steps with 481 atoms

Performance: 12.239 ns/day, 1.961 hours/ns, 2833.205 timesteps/s, 1.363 Matom-step/s
100.0% CPU use with 64 MPI tasks x 1 OpenMP threads

MPI task timing breakdown:
Section |  min time  |  avg time  |  max time  |%varavg| %total
---------------------------------------------------------------
Pair    | 0.020366   | 0.72149    | 4.173      | 127.6 |  4.09
Bond    | 0.0061811  | 0.84001    | 3.8665     | 139.1 |  4.76
Neigh   | 0.0089678  | 0.010518   | 0.011335   |   0.6 |  0.06
Comm    | 8.1704     | 14.314     | 15.954     |  58.0 | 81.11
Output  | 0.0085879  | 0.016367   | 0.023713   |   3.7 |  0.09
Modify  | 0.75639    | 1.076      | 1.8279     |  21.0 |  6.10
Other   |            | 0.6691     |            |       |  3.79

Nlocal:        7.51562 ave          33 max           0 min
Histogram: 38 9 1 0 2 2 4 3 3 2
Nghost:        1934.12 ave        2524 max        1411 min
Histogram: 16 0 0 0 32 0 0 0 0 16
Neighs:              0 ave           0 max           0 min
Histogram: 64 0 0 0 0 0 0 0 0 0

Total # of neighbors = 0
Ave neighs/atom = 0
Ave special neighs/atom = 15.567568
Neighbor list builds = 24
Dangerous builds = 0
unfix           myat1
next            cpt
jump            SELF loop
variable        zdes equal  -15+0.60*(${cpt}-1)
variable        zdes equal  -15+0.60*(49-1)
variable        zave equal xcm(H2,z)
fix             mytth2 H2 spring tether ${k1} 2.5 2.5 ${zdes} 0
fix             mytth2 H2 spring tether 1 2.5 2.5 ${zdes} 0
fix             mytth2 H2 spring tether 1 2.5 2.5 13.8 0
run             10000
Generated 0 of 1 mixed pair_coeff terms from geometric mixing rule
Per MPI rank memory allocation (min/avg/max) = 13.32 | 13.62 | 14.96 Mbytes
   Step          Temp          E_pair         E_mol          TotEng         Press     
   2900000   119.27667      369.74867      18330.665      18871.073     -338.71553    
   2910000   121.8053       374.78432      18336.558      18885.62      -132.17796    
Loop time of 4.12863 on 64 procs for 10000 steps with 481 atoms

Performance: 10.464 ns/day, 2.294 hours/ns, 2422.113 timesteps/s, 1.165 Matom-step/s
100.0% CPU use with 64 MPI tasks x 1 OpenMP threads

MPI task timing breakdown:
Section |  min time  |  avg time  |  max time  |%varavg| %total
---------------------------------------------------------------
Pair    | 0.0039241  | 0.15795    | 1.0534     |  61.0 |  3.83
Bond    | 0.0010983  | 0.1767     | 0.80135    |  63.9 |  4.28
Neigh   | 0.0021937  | 0.0025139  | 0.0027286  |   0.3 |  0.06
Comm    | 1.9232     | 3.3605     | 3.709      |  25.9 | 81.40
Output  | 0.0016733  | 0.0035392  | 0.0053216  |   1.9 |  0.09
Modify  | 0.16       | 0.25603    | 0.34636    |   8.6 |  6.20
Other   |            | 0.1714     |            |       |  4.15

Nlocal:        7.51562 ave          32 max           0 min
Histogram: 36 10 2 0 0 4 3 4 2 3
Nghost:        1934.12 ave        2524 max        1415 min
Histogram: 16 0 0 0 32 0 0 0 0 16
Neighs:              0 ave           0 max           0 min
Histogram: 64 0 0 0 0 0 0 0 0 0

Total # of neighbors = 0
Ave neighs/atom = 0
Ave special neighs/atom = 15.567568
Neighbor list builds = 5
Dangerous builds = 0
fix             myat1 all ave/time 100 10 1000 v_zave v_zdes file simulation_data/abpot/${cpt}.dat
fix             myat1 all ave/time 100 10 1000 v_zave v_zdes file simulation_data/abpot/49.dat
run             50000
Generated 0 of 1 mixed pair_coeff terms from geometric mixing rule
Per MPI rank memory allocation (min/avg/max) = 13.32 | 13.62 | 14.96 Mbytes
   Step          Temp          E_pair         E_mol          TotEng         Press     
   2910000   121.8053       374.78432      18336.558      18885.62      -132.17796    
   2920000   119.00902      379.54674      18331.505      18881.328     -70.656949    
   2930000   113.85136      382.90449      18313.994      18859.796      148.0995     
   2940000   115.74321      376.16477      18326.785      18868.554     -103.06083    
   2950000   117.59224      376.04345      18330.226      18874.519     -110.66913    
   2960000   128.05667      384.20483      18316.129      18883.556      159.65691    
Loop time of 18.1038 on 64 procs for 50000 steps with 481 atoms

Performance: 11.931 ns/day, 2.012 hours/ns, 2761.844 timesteps/s, 1.328 Matom-step/s
100.0% CPU use with 64 MPI tasks x 1 OpenMP threads

MPI task timing breakdown:
Section |  min time  |  avg time  |  max time  |%varavg| %total
---------------------------------------------------------------
Pair    | 0.033484   | 0.68639    | 4.2123     | 123.0 |  3.79
Bond    | 0.0055898  | 0.80752    | 3.8242     | 136.0 |  4.46
Neigh   | 0.011149   | 0.013117   | 0.01423    |   0.7 |  0.07
Comm    | 8.8801     | 14.623     | 16.225     |  53.9 | 80.77
Output  | 0.0084326  | 0.016261   | 0.023533   |   3.7 |  0.09
Modify  | 0.78864    | 1.2331     | 2.439      |  28.9 |  6.81
Other   |            | 0.7248     |            |       |  4.00

Nlocal:        7.51562 ave          31 max           0 min
Histogram: 33 15 0 0 0 1 6 2 4 3
Nghost:        1934.69 ave        2524 max        1417 min
Histogram: 16 0 0 0 32 0 0 0 0 16
Neighs:              0 ave           0 max           0 min
Histogram: 64 0 0 0 0 0 0 0 0 0

Total # of neighbors = 0
Ave neighs/atom = 0
Ave special neighs/atom = 15.567568
Neighbor list builds = 30
Dangerous builds = 0
unfix           myat1
next            cpt
jump            SELF loop
variable        zdes equal  -15+0.60*(${cpt}-1)
variable        zdes equal  -15+0.60*(50-1)
variable        zave equal xcm(H2,z)
fix             mytth2 H2 spring tether ${k1} 2.5 2.5 ${zdes} 0
fix             mytth2 H2 spring tether 1 2.5 2.5 ${zdes} 0
fix             mytth2 H2 spring tether 1 2.5 2.5 14.4 0
run             10000
Generated 0 of 1 mixed pair_coeff terms from geometric mixing rule
Per MPI rank memory allocation (min/avg/max) = 13.32 | 13.62 | 14.96 Mbytes
   Step          Temp          E_pair         E_mol          TotEng         Press     
   2960000   128.05667      384.20483      18316.129      18883.556      159.65691    
   2970000   116.75454      382.04669      18311.909      18861.007      128.06918    
Loop time of 4.04641 on 64 procs for 10000 steps with 481 atoms

Performance: 10.676 ns/day, 2.248 hours/ns, 2471.325 timesteps/s, 1.189 Matom-step/s
100.0% CPU use with 64 MPI tasks x 1 OpenMP threads

MPI task timing breakdown:
Section |  min time  |  avg time  |  max time  |%varavg| %total
---------------------------------------------------------------
Pair    | 0.0040784  | 0.15045    | 0.92389    |  59.9 |  3.72
Bond    | 0.0010997  | 0.17339    | 0.89262    |  64.2 |  4.29
Neigh   | 0.0026702  | 0.0030473  | 0.003298   |   0.3 |  0.08
Comm    | 1.9969     | 3.2937     | 3.6581     |  25.2 | 81.40
Output  | 0.0016055  | 0.0033741  | 0.0050712  |   1.9 |  0.08
Modify  | 0.15375    | 0.27697    | 0.66762    |  22.6 |  6.84
Other   |            | 0.1455     |            |       |  3.60

Nlocal:        7.51562 ave          36 max           0 min
Histogram: 35 13 0 1 1 5 2 4 2 1
Nghost:        1934.12 ave        2524 max        1416 min
Histogram: 16 0 0 0 32 0 0 0 0 16
Neighs:              0 ave           0 max           0 min
Histogram: 64 0 0 0 0 0 0 0 0 0

Total # of neighbors = 0
Ave neighs/atom = 0
Ave special neighs/atom = 15.567568
Neighbor list builds = 6
Dangerous builds = 0
fix             myat1 all ave/time 100 10 1000 v_zave v_zdes file simulation_data/abpot/${cpt}.dat
fix             myat1 all ave/time 100 10 1000 v_zave v_zdes file simulation_data/abpot/50.dat
run             50000
Generated 0 of 1 mixed pair_coeff terms from geometric mixing rule
Per MPI rank memory allocation (min/avg/max) = 13.32 | 13.62 | 14.96 Mbytes
   Step          Temp          E_pair         E_mol          TotEng         Press     
   2970000   116.75454      382.04669      18311.909      18861.007      128.06918    
   2980000   116.00661      375.6783       18317.299      18858.958     -177.34295    
   2990000   126.38868      370.92537      18318.946      18870.707     -290.32811    
   3000000   122.64718      380.29109      18322.887      18878.661      41.181678    
   3010000   115.86351      383.85124      18318.079      18867.707      117.99388    
   3020000   118.75596      371.51581      18317.672      18859.103     -179.75273    
Loop time of 18.761 on 64 procs for 50000 steps with 481 atoms

Performance: 11.513 ns/day, 2.085 hours/ns, 2665.099 timesteps/s, 1.282 Matom-step/s
100.0% CPU use with 64 MPI tasks x 1 OpenMP threads

MPI task timing breakdown:
Section |  min time  |  avg time  |  max time  |%varavg| %total
---------------------------------------------------------------
Pair    | 0.021584   | 0.72171    | 4.3986     | 130.8 |  3.85
Bond    | 0.0064527  | 0.83251    | 4.524      | 140.3 |  4.44
Neigh   | 0.016507   | 0.019067   | 0.02086    |   0.8 |  0.10
Comm    | 8.5473     | 15.27      | 17.001     |  56.7 | 81.39
Output  | 0.0086261  | 0.01769    | 0.026364   |   4.4 |  0.09
Modify  | 0.73789    | 1.2173     | 3.3319     |  41.0 |  6.49
Other   |            | 0.6824     |            |       |  3.64

Nlocal:        7.51562 ave          35 max           0 min
Histogram: 38 9 1 1 0 3 4 7 0 1
Nghost:        1933.02 ave        2523 max        1408 min
Histogram: 16 0 0 0 32 0 0 0 0 16
Neighs:              0 ave           0 max           0 min
Histogram: 64 0 0 0 0 0 0 0 0 0

Total # of neighbors = 0
Ave neighs/atom = 0
Ave special neighs/atom = 15.567568
Neighbor list builds = 41
Dangerous builds = 0
unfix           myat1
next            cpt
jump            SELF loop
variable        zdes equal  -15+0.60*(${cpt}-1)
variable        zdes equal  -15+0.60*(51-1)
variable        zave equal xcm(H2,z)
fix             mytth2 H2 spring tether ${k1} 2.5 2.5 ${zdes} 0
fix             mytth2 H2 spring tether 1 2.5 2.5 ${zdes} 0
fix             mytth2 H2 spring tether 1 2.5 2.5 15 0
run             10000
Generated 0 of 1 mixed pair_coeff terms from geometric mixing rule
Per MPI rank memory allocation (min/avg/max) = 13.32 | 13.62 | 14.96 Mbytes
   Step          Temp          E_pair         E_mol          TotEng         Press     
   3020000   118.75596      371.51581      18317.672      18859.103     -179.75273    
   3030000   116.88433      369.672        18330.707      18867.615     -221.692      
Loop time of 3.66727 on 64 procs for 10000 steps with 481 atoms

Performance: 11.780 ns/day, 2.037 hours/ns, 2726.821 timesteps/s, 1.312 Matom-step/s
100.0% CPU use with 64 MPI tasks x 1 OpenMP threads

MPI task timing breakdown:
Section |  min time  |  avg time  |  max time  |%varavg| %total
---------------------------------------------------------------
Pair    | 0.0040269  | 0.14572    | 0.92169    |  59.6 |  3.97
Bond    | 0.0010853  | 0.16612    | 0.88588    |  62.8 |  4.53
Neigh   | 0.0024441  | 0.0028209  | 0.0030892  |   0.3 |  0.08
Comm    | 1.611      | 2.9738     | 3.3205     |  26.1 | 81.09
Output  | 0.0014535  | 0.0032158  | 0.0049487  |   1.9 |  0.09
Modify  | 0.14981    | 0.23648    | 0.56678    |  19.5 |  6.45
Other   |            | 0.1391     |            |       |  3.79

Nlocal:        7.51562 ave          29 max           0 min
Histogram: 30 16 2 0 0 0 4 3 5 4
Nghost:        1934.12 ave        2523 max        1415 min
Histogram: 16 0 0 0 32 0 0 0 0 16
Neighs:              0 ave           0 max           0 min
Histogram: 64 0 0 0 0 0 0 0 0 0

Total # of neighbors = 0
Ave neighs/atom = 0
Ave special neighs/atom = 15.567568
Neighbor list builds = 6
Dangerous builds = 0
fix             myat1 all ave/time 100 10 1000 v_zave v_zdes file simulation_data/abpot/${cpt}.dat
fix             myat1 all ave/time 100 10 1000 v_zave v_zdes file simulation_data/abpot/51.dat
run             50000
Generated 0 of 1 mixed pair_coeff terms from geometric mixing rule
Per MPI rank memory allocation (min/avg/max) = 13.32 | 13.62 | 14.96 Mbytes
   Step          Temp          E_pair         E_mol          TotEng         Press     
   3030000   116.88433      369.672        18330.707      18867.615     -221.692      
   3040000   122.70011      383.44879      18317.286      18876.293      41.098661    
   3050000   118.62024      379.72149      18324.996      18874.438     -17.242966    
   3060000   123.377        378.65016      18323.268      18878.444      43.171184    
   3070000   123.89024      376.51276      18315.402      18869.176      4.3351519    
   3080000   114.11527      375.57406      18334.941      18873.79      -162.59759    
Loop time of 19.2279 on 64 procs for 50000 steps with 481 atoms

Performance: 11.234 ns/day, 2.136 hours/ns, 2600.384 timesteps/s, 1.251 Matom-step/s
100.0% CPU use with 64 MPI tasks x 1 OpenMP threads

MPI task timing breakdown:
Section |  min time  |  avg time  |  max time  |%varavg| %total
---------------------------------------------------------------
Pair    | 0.020815   | 0.73763    | 4.8931     | 132.5 |  3.84
Bond    | 0.0069228  | 0.82598    | 4.4401     | 138.8 |  4.30
Neigh   | 0.0097456  | 0.011039   | 0.012117   |   0.6 |  0.06
Comm    | 8.4006     | 15.77      | 17.378     |  56.8 | 82.02
Output  | 0.0089378  | 0.016943   | 0.024355   |   3.7 |  0.09
Modify  | 0.71839    | 1.1467     | 2.2742     |  28.4 |  5.96
Other   |            | 0.7192     |            |       |  3.74

Nlocal:        7.51562 ave          34 max           0 min
Histogram: 36 12 0 0 2 5 1 4 0 4
Nghost:        1933.02 ave        2524 max        1410 min
Histogram: 16 0 0 0 32 0 0 0 0 16
Neighs:              0 ave           0 max           0 min
Histogram: 64 0 0 0 0 0 0 0 0 0

Total # of neighbors = 0
Ave neighs/atom = 0
Ave special neighs/atom = 15.567568
Neighbor list builds = 22
Dangerous builds = 0
unfix           myat1
next            cpt
jump            SELF loop

Total wall time: 0:19:26
