# --- log file ---

variable pre equal 112 # desired pressure (Atm)
variable tem equal 300 # desired temperature (K)

variable k1 equal 1.5 # spring constant
variable k2 equal 2.5 # spring constant

units real
atom_style molecular
boundary p p p
neighbor 1.0 bin
neigh_modify delay 3 one 6000
bond_style harmonic
angle_style harmonic
dihedral_style opls
improper_style harmonic
pair_style hybrid lj/cut 14 sg 15 cb 30 # Fluid-fluid interactions have a cutoff of 15 Å, fluid-solid interactions have a cutoff of 30 Å
# *--* C-C parameters *--*
bond_style harmonic
angle_style harmonic
dihedral_style opls
improper_style harmonic
# *--* C-C parameters *--*


# 2. Read the graphite platelet data file and define potentials parameters
read_data       ../geometry/carbonPlatelets/simulation_data/abpot_sys.data  extra/atom/types 1
Reading data file ...
  orthogonal box = (-30 -30 -30) to (30 30 30)
  3 by 4 by 4 MPI processor grid
  reading atoms ...
  480 atoms
  reading velocities ...
  480 velocities
  scanning bonds ...
  2 = max bonds/atom
  scanning angles ...
  3 = max angles/atom
  scanning dihedrals ...
  8 = max dihedrals/atom
  scanning impropers ...
  2 = max impropers/atom
  orthogonal box = (-30 -30 -30) to (30 30 30)
  3 by 4 by 4 MPI processor grid
  reading bonds ...
  676 bonds
  reading angles ...
  1268 angles
  reading dihedrals ...
  2394 dihedrals
  reading impropers ...
  396 impropers
Finding 1-2 1-3 1-4 neighbors ...
  special bond factors lj:    0        0        0       
  special bond factors coul:  0        0        0       
     3 = max # of 1-2 neighbors
     6 = max # of 1-3 neighbors
    18 = max # of 1-4 neighbors
    18 = max # of special neighbors
  special bonds CPU = 0.002 seconds
  read_data CPU = 0.046 seconds
include         PARM.lammps

#////////////////////////////////////////////////////////////////////////////////////////////////////////////////////////////////
#//     Filename: PARM.lammps
#//     File Type: LAMMPS input script
#//     Description: This script defines the parameters for the simulation of hydrogen absorption in graphite platelets.
#//     Author: Edoardo Cabiati
#//     Date: 2024-07-27
#////////////////////////////////////////////////////////////////////////////////////////////////////////////////////////////////

mass 2 2.016 # For now at least, in accordance with the paper by Wang and Johnson,
             # 1998, the hydrogen atoms are regarded as simple spherical atoms

# //////////////////////////////////////    C-C potentials    //////////////////////////////////////
pair_coeff 1 1 lj/cut 0.066 3.4
bond_coeff 1 469 1.4
angle_coeff 1 63 120
dihedral_coeff 1 0 7.25 0 0
improper_coeff 1 5 180
special_bonds lj 0.0 0.0 0.5
Finding 1-2 1-3 1-4 neighbors ...
  special bond factors lj:    0        0        0.5     
  special bond factors coul:  0        0        0       
     3 = max # of 1-2 neighbors
     6 = max # of 1-3 neighbors
    18 = max # of 1-4 neighbors
    18 = max # of special neighbors
  special bonds CPU = 0.001 seconds
# //////////////////////////////////////    C-C potentials    //////////////////////////////////////
# -------------------------------------------------------------------------------------------------
# //////////////////////////////////////    H-H potentials    //////////////////////////////////////
variable alpha equal 1.713          #|
variable sigma equal 1.567          #|
variable gamma equal 0.00993        #|
variable c6 equal 12.14             #|      The parameters are all in atomic units, the conversion to kcal/mol
variable c8 equal 215.2             #|      is performed in the pair_sg.cpp file
variable c9 equal 143.1             #|
variable c10 equal 4813.9           #|
variable rc equal 8.321             #|
pair_coeff 2 2 sg ${alpha} ${sigma} ${gamma} ${c6} ${c8} ${c9} ${c10} ${rc} # H-H potentials
pair_coeff 2 2 sg 1.713 ${sigma} ${gamma} ${c6} ${c8} ${c9} ${c10} ${rc} 
pair_coeff 2 2 sg 1.713 1.567 ${gamma} ${c6} ${c8} ${c9} ${c10} ${rc} 
pair_coeff 2 2 sg 1.713 1.567 0.00993 ${c6} ${c8} ${c9} ${c10} ${rc} 
pair_coeff 2 2 sg 1.713 1.567 0.00993 12.14 ${c8} ${c9} ${c10} ${rc} 
pair_coeff 2 2 sg 1.713 1.567 0.00993 12.14 215.2 ${c9} ${c10} ${rc} 
pair_coeff 2 2 sg 1.713 1.567 0.00993 12.14 215.2 143.1 ${c10} ${rc} 
pair_coeff 2 2 sg 1.713 1.567 0.00993 12.14 215.2 143.1 4813.9 ${rc} 
pair_coeff 2 2 sg 1.713 1.567 0.00993 12.14 215.2 143.1 4813.9 8.321 
#pair_coeff 2 2 sg 1.713 1.567 0.00993 12.14 215.2 143.1 4813.9 8.321 # H-H potentials
# //////////////////////////////////////    H-H potentials    //////////////////////////////////////
# -------------------------------------------------------------------------------------------------
# //////////////////////////////////////    C-H potentials    //////////////////////////////////////
variable sigma_CC equal 3.43 # Å
variable sigma_HH equal 3.075 # Å
variable sigma_CH_geo equal sqrt(${sigma_CC}*${sigma_HH}) # Å
variable sigma_CH_geo equal sqrt(3.43*${sigma_HH}) 
variable sigma_CH_geo equal sqrt(3.43*3.075) 
variable sigma_CH_arit equal 0.5*(${sigma_CC}+${sigma_HH}) # Å
variable sigma_CH_arit equal 0.5*(3.43+${sigma_HH}) 
variable sigma_CH_arit equal 0.5*(3.43+3.075) 

variable P_par equal 0.57 # Å^3
variable P_perp equal 1.995 # Å^3
variable P_h equal 0.81 # Å^3
variable E_h equal 2.337e5*(1/503.23) # K * 1/503.23 kcal/mol/K = kcal/mol
variable E_c equal 1.39254e5*(1/503.23) # K * 1/503.23 kcal/mol/K = kcal/mol

variable epsilon equal 4*v_E_h*v_E_c*v_P_h*(v_P_par+v_P_perp/2)/(v_sigma_CH_geo^6*(v_E_h+v_E_c)) # kcal/mol

pair_coeff 1 2 cb ${epsilon} ${sigma_CH_geo} ${P_par} ${P_perp} # C-H potential
pair_coeff 1 2 cb 0.750549668586509 ${sigma_CH_geo} ${P_par} ${P_perp} 
pair_coeff 1 2 cb 0.750549668586509 3.24765299870537 ${P_par} ${P_perp} 
pair_coeff 1 2 cb 0.750549668586509 3.24765299870537 0.57 ${P_perp} 
pair_coeff 1 2 cb 0.750549668586509 3.24765299870537 0.57 1.995 
#pair_coeff 1 2 lj/cut 0.3025 2.065
# //////////////////////////////////////    C-H potentials    //////////////////////////////////////

# 3. Add a single hydrogen molecule to the system, close to the center of the first platelet
create_atoms    2 single 0 0 -2
Created 1 atoms
  using lattice units in orthogonal box = (-30 -30 -30) to (30 30 30)
  create_atoms CPU = 0.000 seconds

group           C type 1
480 atoms in group C
group           H2 type 2
1 atoms in group H2

# 4. Equilibration
timestep        0.05
fix             mytth1 C spring/self ${k2} # Apply a spring force to the carbon atoms
fix             mytth1 C spring/self 2.5 
velocity        all create ${tem} 48 rot yes mom yes dist gaussian # Initialize velocities
velocity        all create 300 48 rot yes mom yes dist gaussian 
fix             mynpt all npt temp ${tem} ${tem} 100 x ${pre} ${pre} 1000 y ${pre} ${pre} 1000 # Apply NPT ensemble to the system
fix             mynpt all npt temp 300 ${tem} 100 x ${pre} ${pre} 1000 y ${pre} ${pre} 1000 
fix             mynpt all npt temp 300 300 100 x ${pre} ${pre} 1000 y ${pre} ${pre} 1000 
fix             mynpt all npt temp 300 300 100 x 112 ${pre} 1000 y ${pre} ${pre} 1000 
fix             mynpt all npt temp 300 300 100 x 112 112 1000 y ${pre} ${pre} 1000 
fix             mynpt all npt temp 300 300 100 x 112 112 1000 y 112 ${pre} 1000 
fix             mynpt all npt temp 300 300 100 x 112 112 1000 y 112 112 1000 

thermo          10000
dump            dump all atom 1000 simulation_data/absorption_pot.lammpstrj

run             20000

CITE-CITE-CITE-CITE-CITE-CITE-CITE-CITE-CITE-CITE-CITE-CITE-CITE

Your simulation uses code contributions which should be cited:

- Type Label Framework: https://doi.org/10.1021/acs.jpcb.3c08419

@Article{Gissinger24,
 author = {Jacob R. Gissinger, Ilia Nikiforov, Yaser Afshar, Brendon Waters, Moon-ki Choi, Daniel S. Karls, Alexander Stukowski, Wonpil Im, Hendrik Heinz, Axel Kohlmeyer, and Ellad B. Tadmor},
 title = {Type Label Framework for Bonded Force Fields in LAMMPS},
 journal = {J. Phys. Chem. B},
 year =    2024,
 volume =  128,
 number =  13,
 pages =   {3282–-3297}
}

CITE-CITE-CITE-CITE-CITE-CITE-CITE-CITE-CITE-CITE-CITE-CITE-CITE

Generated 0 of 1 mixed pair_coeff terms from geometric mixing rule
Neighbor list info ...
  update: every = 1 steps, delay = 3 steps, check = yes
  max neighbors/atom: 6000, page size: 100000
  master list distance cutoff = 31
  ghost atom cutoff = 31
  binsize = 15.5, bins = 4 4 4
  4 neighbor lists, perpetual/occasional/extra = 4 0 0
  (1) pair lj/cut, perpetual, skip trim from (4)
      attributes: half, newton on, cut 15
      pair build: skip/trim
      stencil: none
      bin: none
  (2) pair sg, perpetual, skip trim from (4)
      attributes: half, newton on, cut 16
      pair build: skip/trim
      stencil: none
      bin: none
  (3) pair cb, perpetual, skip from (4)
      attributes: half, newton on
      pair build: skip
      stencil: none
      bin: none
  (4) neighbor class addition, perpetual
      attributes: half, newton on
      pair build: half/bin/newton
      stencil: half/bin/3d
      bin: standard
Per MPI rank memory allocation (min/avg/max) = 13.28 | 13.37 | 13.93 Mbytes
   Step          Temp          E_pair         E_mol          TotEng         Press          Volume    
         0   300            308.43814      19603.922      20341.597     -432.48369      216000       
     10000   316.19925      372.43749      18560.777      19385.629     -429.95184      178677.27    
     20000   321.12375      376.41763      18551.171      19387.049     -319.26564      135000.31    
Loop time of 7.96458 on 48 procs for 20000 steps with 481 atoms

Performance: 10.848 ns/day, 2.212 hours/ns, 2511.118 timesteps/s, 1.208 Matom-step/s
99.8% CPU use with 48 MPI tasks x 1 OpenMP threads

MPI task timing breakdown:
Section |  min time  |  avg time  |  max time  |%varavg| %total
---------------------------------------------------------------
Pair    | 0.12149    | 0.45877    | 2.402      |  79.0 |  5.76
Bond    | 0.0039342  | 0.42292    | 2.3876     | 115.3 |  5.31
Neigh   | 0.019661   | 0.02205    | 0.024569   |   0.9 |  0.28
Comm    | 2.3907     | 4.5648     | 6.625      |  70.3 | 57.31
Output  | 0.0038548  | 0.0083545  | 0.013577   |   3.4 |  0.10
Modify  | 0.67097    | 2.2126     | 4.8792     | 108.5 | 27.78
Other   |            | 0.275      |            |       |  3.45

Nlocal:        10.0208 ave          48 max           0 min
Histogram: 22 12 6 0 0 0 2 2 2 2
Nghost:        1818.35 ave        2346 max        1176 min
Histogram: 8 0 0 0 24 0 0 0 0 16
Neighs:              0 ave           0 max           0 min
Histogram: 48 0 0 0 0 0 0 0 0 0

Total # of neighbors = 0
Ave neighs/atom = 0
Ave special neighs/atom = 15.567568
Neighbor list builds = 53
Dangerous builds = 0
unfix           mynpt
unfix           mytth1

# 5. Umbrella sampling
fix             mynvt all nvt temp ${tem} ${tem} 100
fix             mynvt all nvt temp 300 ${tem} 100
fix             mynvt all nvt temp 300 300 100
fix             mytth1 C spring/self ${k2}
fix             mytth1 C spring/self 2.5

variable        cpt loop 51
label           loop
variable        zdes equal  -15+0.60*(${cpt}-1)
variable        zdes equal  -15+0.60*(1-1)
variable        zave equal xcm(H2,z)
fix             mytth2 H2 spring tether ${k1} 2.5 2.5 ${zdes} 0
fix             mytth2 H2 spring tether 1.5 2.5 2.5 ${zdes} 0
fix             mytth2 H2 spring tether 1.5 2.5 2.5 -15 0
run             10000
Generated 0 of 1 mixed pair_coeff terms from geometric mixing rule
Per MPI rank memory allocation (min/avg/max) = 13.32 | 13.7 | 14.98 Mbytes
   Step          Temp          E_pair         E_mol          TotEng         Press     
     20000   321.12375      376.41763      18551.171      19387.049     -319.26564    
     30000   301.8838       336.76932      18609.943      19378.644     -1194.6381    
Loop time of 3.24665 on 48 procs for 10000 steps with 481 atoms

Performance: 13.306 ns/day, 1.804 hours/ns, 3080.100 timesteps/s, 1.482 Matom-step/s
100.0% CPU use with 48 MPI tasks x 1 OpenMP threads

MPI task timing breakdown:
Section |  min time  |  avg time  |  max time  |%varavg| %total
---------------------------------------------------------------
Pair    | 0.0032838  | 0.14241    | 0.83616    |  58.6 |  4.39
Bond    | 0.001019   | 0.18202    | 1.048      |  66.2 |  5.61
Neigh   | 0.029536   | 0.033499   | 0.037037   |   1.1 |  1.03
Comm    | 1.1818     | 2.3728     | 2.9428     |  40.1 | 73.08
Output  | 0.0012568  | 0.0030251  | 0.0049778  |   2.2 |  0.09
Modify  | 0.11456    | 0.40648    | 1.7715     |  85.4 | 12.52
Other   |            | 0.1064     |            |       |  3.28

Nlocal:        10.0208 ave          48 max           0 min
Histogram: 21 11 7 1 0 2 2 1 0 3
Nghost:        1818.88 ave        2347 max        1176 min
Histogram: 8 0 0 0 24 0 0 0 0 16
Neighs:              0 ave           0 max           0 min
Histogram: 48 0 0 0 0 0 0 0 0 0

Total # of neighbors = 0
Ave neighs/atom = 0
Ave special neighs/atom = 15.567568
Neighbor list builds = 91
Dangerous builds = 0
fix             myat1 all ave/time 1000 10 10000 v_zave v_zdes file simulation_data/abpot/${cpt}.dat
fix             myat1 all ave/time 1000 10 10000 v_zave v_zdes file simulation_data/abpot/1.dat
run             50000
Generated 0 of 1 mixed pair_coeff terms from geometric mixing rule
Per MPI rank memory allocation (min/avg/max) = 13.32 | 13.72 | 14.98 Mbytes
   Step          Temp          E_pair         E_mol          TotEng         Press     
     30000   301.8838       336.76932      18609.943      19378.644     -1194.6381    
     40000   311.47639      380.7813       18552.801      19379.239      48.780345    
     50000   282.64847      401.80985      18504.494      19310.714      579.21586    
     60000   278.65828      388.45145      18548.53       19335.682      82.56324     
     70000   291.60205      388.33767      18557.493      19363.051      294.79655    
     80000   324.01101      380.72514      18562.848      19407.165      89.126297    
Loop time of 15.8959 on 48 procs for 50000 steps with 481 atoms

Performance: 13.588 ns/day, 1.766 hours/ns, 3145.466 timesteps/s, 1.513 Matom-step/s
100.0% CPU use with 48 MPI tasks x 1 OpenMP threads

MPI task timing breakdown:
Section |  min time  |  avg time  |  max time  |%varavg| %total
---------------------------------------------------------------
Pair    | 0.016439   | 0.7153     | 3.9889     | 133.3 |  4.50
Bond    | 0.0051218  | 0.915      | 5.2438     | 149.9 |  5.76
Neigh   | 0.069345   | 0.07827    | 0.086532   |   1.7 |  0.49
Comm    | 6.0165     | 11.619     | 14.221     |  89.2 | 73.10
Output  | 0.0059734  | 0.012836   | 0.020256   |   4.0 |  0.08
Modify  | 0.55311    | 2.0197     | 8.7314     | 185.9 | 12.71
Other   |            | 0.5357     |            |       |  3.37

Nlocal:        10.0208 ave          42 max           0 min
Histogram: 22 10 6 2 0 0 0 0 4 4
Nghost:        1818.35 ave        2347 max        1181 min
Histogram: 8 0 0 0 24 0 0 0 0 16
Neighs:              0 ave           0 max           0 min
Histogram: 48 0 0 0 0 0 0 0 0 0

Total # of neighbors = 0
Ave neighs/atom = 0
Ave special neighs/atom = 15.567568
Neighbor list builds = 213
Dangerous builds = 0
unfix           myat1
next            cpt
jump            SELF loop
variable        zdes equal  -15+0.60*(${cpt}-1)
variable        zdes equal  -15+0.60*(2-1)
variable        zave equal xcm(H2,z)
fix             mytth2 H2 spring tether ${k1} 2.5 2.5 ${zdes} 0
fix             mytth2 H2 spring tether 1.5 2.5 2.5 ${zdes} 0
fix             mytth2 H2 spring tether 1.5 2.5 2.5 -14.4 0
run             10000
Generated 0 of 1 mixed pair_coeff terms from geometric mixing rule
Per MPI rank memory allocation (min/avg/max) = 13.32 | 13.74 | 14.98 Mbytes
   Step          Temp          E_pair         E_mol          TotEng         Press     
     80000   324.01101      380.72514      18562.848      19407.165      89.126297    
     90000   319.61259      363.3035       18568.924      19389.525     -342.53194    
Loop time of 3.06831 on 48 procs for 10000 steps with 481 atoms

Performance: 14.079 ns/day, 1.705 hours/ns, 3259.122 timesteps/s, 1.568 Matom-step/s
100.0% CPU use with 48 MPI tasks x 1 OpenMP threads

MPI task timing breakdown:
Section |  min time  |  avg time  |  max time  |%varavg| %total
---------------------------------------------------------------
Pair    | 0.0032899  | 0.14271    | 0.86242    |  59.4 |  4.65
Bond    | 0.0010195  | 0.18249    | 0.92237    |  66.0 |  5.95
Neigh   | 0.0050504  | 0.005714   | 0.006358   |   0.5 |  0.19
Comm    | 1.1813     | 2.2408     | 2.7711     |  39.1 | 73.03
Output  | 0.0011772  | 0.0023253  | 0.0036249  |   1.6 |  0.08
Modify  | 0.10841    | 0.38692    | 1.6538     |  79.8 | 12.61
Other   |            | 0.1073     |            |       |  3.50

Nlocal:        10.0208 ave          47 max           0 min
Histogram: 23 8 8 1 0 1 0 3 2 2
Nghost:        1818.35 ave        2347 max        1177 min
Histogram: 8 0 0 0 24 0 0 0 0 16
Neighs:              0 ave           0 max           0 min
Histogram: 48 0 0 0 0 0 0 0 0 0

Total # of neighbors = 0
Ave neighs/atom = 0
Ave special neighs/atom = 15.567568
Neighbor list builds = 16
Dangerous builds = 0
fix             myat1 all ave/time 1000 10 10000 v_zave v_zdes file simulation_data/abpot/${cpt}.dat
fix             myat1 all ave/time 1000 10 10000 v_zave v_zdes file simulation_data/abpot/2.dat
run             50000
Generated 0 of 1 mixed pair_coeff terms from geometric mixing rule
Per MPI rank memory allocation (min/avg/max) = 13.32 | 13.74 | 14.98 Mbytes
   Step          Temp          E_pair         E_mol          TotEng         Press     
     90000   319.61259      363.3035       18568.924      19389.525     -342.53194    
    100000   305.5609       371.26341      18566.743      19375.199     -250.00168    
    110000   287.22692      390.89543      18547.6        19349.457      408.81868    
    120000   283.93829      380.8678       18517.827      19304.95       103.25914    
    130000   312.23293      370.6864       18546.653      19364.079     -140.91229    
    140000   311.10987      379.17934      18546.336      19370.648     -38.865652    
Loop time of 15.9178 on 48 procs for 50000 steps with 481 atoms

Performance: 13.570 ns/day, 1.769 hours/ns, 3141.141 timesteps/s, 1.511 Matom-step/s
100.0% CPU use with 48 MPI tasks x 1 OpenMP threads

MPI task timing breakdown:
Section |  min time  |  avg time  |  max time  |%varavg| %total
---------------------------------------------------------------
Pair    | 0.016252   | 0.71184    | 4.3131     | 133.8 |  4.47
Bond    | 0.005136   | 0.91133    | 4.5912     | 147.7 |  5.73
Neigh   | 0.035362   | 0.03994    | 0.044258   |   1.2 |  0.25
Comm    | 6.1131     | 11.676     | 14.394     |  89.2 | 73.35
Output  | 0.0058797  | 0.011407   | 0.017385   |   3.4 |  0.07
Modify  | 0.53946    | 2.0327     | 8.8159     | 188.2 | 12.77
Other   |            | 0.5345     |            |       |  3.36

Nlocal:        10.0208 ave          49 max           0 min
Histogram: 21 15 3 1 0 1 2 1 2 2
Nghost:        1818.35 ave        2348 max        1174 min
Histogram: 8 0 0 0 24 0 0 0 0 16
Neighs:              0 ave           0 max           0 min
Histogram: 48 0 0 0 0 0 0 0 0 0

Total # of neighbors = 0
Ave neighs/atom = 0
Ave special neighs/atom = 15.567568
Neighbor list builds = 110
Dangerous builds = 0
unfix           myat1
next            cpt
jump            SELF loop
variable        zdes equal  -15+0.60*(${cpt}-1)
variable        zdes equal  -15+0.60*(3-1)
variable        zave equal xcm(H2,z)
fix             mytth2 H2 spring tether ${k1} 2.5 2.5 ${zdes} 0
fix             mytth2 H2 spring tether 1.5 2.5 2.5 ${zdes} 0
fix             mytth2 H2 spring tether 1.5 2.5 2.5 -13.8 0
run             10000
Generated 0 of 1 mixed pair_coeff terms from geometric mixing rule
Per MPI rank memory allocation (min/avg/max) = 13.32 | 13.74 | 14.98 Mbytes
   Step          Temp          E_pair         E_mol          TotEng         Press     
    140000   311.10987      379.17934      18546.336      19370.648     -38.865652    
    150000   296.30505      391.51592      18537.591      19353.057      329.87363    
Loop time of 3.1508 on 48 procs for 10000 steps with 481 atoms

Performance: 13.711 ns/day, 1.750 hours/ns, 3173.801 timesteps/s, 1.527 Matom-step/s
100.0% CPU use with 48 MPI tasks x 1 OpenMP threads

MPI task timing breakdown:
Section |  min time  |  avg time  |  max time  |%varavg| %total
---------------------------------------------------------------
Pair    | 0.003294   | 0.14291    | 0.88453    |  60.2 |  4.54
Bond    | 0.001023   | 0.18267    | 0.93032    |  66.2 |  5.80
Neigh   | 0.0097054  | 0.010822   | 0.011901   |   0.6 |  0.34
Comm    | 1.1608     | 2.3075     | 2.8587     |  39.7 | 73.23
Output  | 0.0011887  | 0.0022471  | 0.003434   |   1.4 |  0.07
Modify  | 0.10961    | 0.39742    | 1.7215     |  82.8 | 12.61
Other   |            | 0.1073     |            |       |  3.40

Nlocal:        10.0208 ave          49 max           0 min
Histogram: 23 11 4 2 0 0 2 3 2 1
Nghost:        1818.35 ave        2347 max        1174 min
Histogram: 8 0 0 0 24 0 0 0 0 16
Neighs:              0 ave           0 max           0 min
Histogram: 48 0 0 0 0 0 0 0 0 0

Total # of neighbors = 0
Ave neighs/atom = 0
Ave special neighs/atom = 15.567568
Neighbor list builds = 30
Dangerous builds = 0
fix             myat1 all ave/time 1000 10 10000 v_zave v_zdes file simulation_data/abpot/${cpt}.dat
fix             myat1 all ave/time 1000 10 10000 v_zave v_zdes file simulation_data/abpot/3.dat
run             50000
Generated 0 of 1 mixed pair_coeff terms from geometric mixing rule
Per MPI rank memory allocation (min/avg/max) = 13.32 | 13.74 | 14.98 Mbytes
   Step          Temp          E_pair         E_mol          TotEng         Press     
    150000   296.30505      391.51592      18537.591      19353.057      329.87363    
    160000   286.05187      380.45525      18540.371      19330.106     -36.966492    
    170000   296.61775      368.04314      18535.328      19327.768     -259.58638    
    180000   301.2329       375.6664       18534.425      19341.092     -91.665976    
    190000   301.54468      379.81928      18543.457      19354.723      39.300984    
    200000   302.28274      370.64613      18509.705      19312.854     -256.3944     
Loop time of 15.6442 on 48 procs for 50000 steps with 481 atoms

Performance: 13.807 ns/day, 1.738 hours/ns, 3196.080 timesteps/s, 1.537 Matom-step/s
100.0% CPU use with 48 MPI tasks x 1 OpenMP threads

MPI task timing breakdown:
Section |  min time  |  avg time  |  max time  |%varavg| %total
---------------------------------------------------------------
Pair    | 0.016361   | 0.71263    | 4.4984     | 134.4 |  4.56
Bond    | 0.0051778  | 0.90952    | 4.5746     | 147.0 |  5.81
Neigh   | 0.023314   | 0.02627    | 0.029097   |   1.0 |  0.17
Comm    | 5.9048     | 11.438     | 14.194     |  88.0 | 73.11
Output  | 0.0057629  | 0.010842   | 0.016274   |   3.1 |  0.07
Modify  | 0.53651    | 2.0133     | 8.555      | 182.4 | 12.87
Other   |            | 0.5341     |            |       |  3.41

Nlocal:        10.0208 ave          48 max           0 min
Histogram: 21 15 4 0 0 1 0 3 2 2
Nghost:        1818.35 ave        2347 max        1178 min
Histogram: 8 0 0 0 24 0 0 0 0 16
Neighs:              0 ave           0 max           0 min
Histogram: 48 0 0 0 0 0 0 0 0 0

Total # of neighbors = 0
Ave neighs/atom = 0
Ave special neighs/atom = 15.567568
Neighbor list builds = 72
Dangerous builds = 0
unfix           myat1
next            cpt
jump            SELF loop
variable        zdes equal  -15+0.60*(${cpt}-1)
variable        zdes equal  -15+0.60*(4-1)
variable        zave equal xcm(H2,z)
fix             mytth2 H2 spring tether ${k1} 2.5 2.5 ${zdes} 0
fix             mytth2 H2 spring tether 1.5 2.5 2.5 ${zdes} 0
fix             mytth2 H2 spring tether 1.5 2.5 2.5 -13.2 0
run             10000
Generated 0 of 1 mixed pair_coeff terms from geometric mixing rule
Per MPI rank memory allocation (min/avg/max) = 13.32 | 13.74 | 14.98 Mbytes
   Step          Temp          E_pair         E_mol          TotEng         Press     
    200000   302.28274      370.64613      18509.705      19312.854     -256.3944     
    210000   290.47533      369.84684      18529.763      19315.219     -27.434809    
Loop time of 3.1165 on 48 procs for 10000 steps with 481 atoms

Performance: 13.862 ns/day, 1.731 hours/ns, 3208.730 timesteps/s, 1.543 Matom-step/s
100.0% CPU use with 48 MPI tasks x 1 OpenMP threads

MPI task timing breakdown:
Section |  min time  |  avg time  |  max time  |%varavg| %total
---------------------------------------------------------------
Pair    | 0.0032566  | 0.14314    | 0.90035    |  60.2 |  4.59
Bond    | 0.0010192  | 0.1826     | 0.92877    |  66.3 |  5.86
Neigh   | 0.0035526  | 0.0040255  | 0.0044771  |   0.4 |  0.13
Comm    | 1.2027     | 2.2767     | 2.7985     |  39.2 | 73.05
Output  | 0.0012021  | 0.0022217  | 0.0032708  |   1.4 |  0.07
Modify  | 0.10765    | 0.40031    | 1.7005     |  80.8 | 12.84
Other   |            | 0.1075     |            |       |  3.45

Nlocal:        10.0208 ave          54 max           0 min
Histogram: 22 15 3 0 1 1 2 2 1 1
Nghost:        1818.35 ave        2346 max        1169 min
Histogram: 8 0 0 0 24 0 0 0 0 16
Neighs:              0 ave           0 max           0 min
Histogram: 48 0 0 0 0 0 0 0 0 0

Total # of neighbors = 0
Ave neighs/atom = 0
Ave special neighs/atom = 15.567568
Neighbor list builds = 11
Dangerous builds = 0
fix             myat1 all ave/time 1000 10 10000 v_zave v_zdes file simulation_data/abpot/${cpt}.dat
fix             myat1 all ave/time 1000 10 10000 v_zave v_zdes file simulation_data/abpot/4.dat
run             50000
Generated 0 of 1 mixed pair_coeff terms from geometric mixing rule
Per MPI rank memory allocation (min/avg/max) = 13.32 | 13.74 | 14.98 Mbytes
   Step          Temp          E_pair         E_mol          TotEng         Press     
    210000   290.47533      369.84684      18529.763      19315.219     -27.434809    
    220000   295.59823      373.66679      18558.163      19354.768     -62.505956    
    230000   304.97836      375.20435      18535.92       19347.484      33.951814    
    240000   285.04326      372.09996      18537.278      19317.215     -147.09613    
    250000   296.17651      382.81045      18501.092      19307.669      258.63983    
    260000   292.35798      373.68242      18537.133      19329.118     -39.132441    
Loop time of 15.602 on 48 procs for 50000 steps with 481 atoms

Performance: 13.844 ns/day, 1.734 hours/ns, 3204.712 timesteps/s, 1.541 Matom-step/s
100.0% CPU use with 48 MPI tasks x 1 OpenMP threads

MPI task timing breakdown:
Section |  min time  |  avg time  |  max time  |%varavg| %total
---------------------------------------------------------------
Pair    | 0.016323   | 0.71325    | 4.5208     | 134.7 |  4.57
Bond    | 0.0051244  | 0.90935    | 4.6003     | 147.7 |  5.83
Neigh   | 0.025152   | 0.028356   | 0.031402   |   1.0 |  0.18
Comm    | 5.9142     | 11.449     | 14.155     |  88.0 | 73.38
Output  | 0.0058466  | 0.010853   | 0.016163   |   3.1 |  0.07
Modify  | 0.53826    | 1.9583     | 8.5113     | 182.7 | 12.55
Other   |            | 0.5327     |            |       |  3.41

Nlocal:        10.0208 ave          51 max           0 min
Histogram: 25 9 6 0 1 0 2 1 2 2
Nghost:        1818.35 ave        2347 max        1176 min
Histogram: 8 0 0 0 24 0 0 0 0 16
Neighs:              0 ave           0 max           0 min
Histogram: 48 0 0 0 0 0 0 0 0 0

Total # of neighbors = 0
Ave neighs/atom = 0
Ave special neighs/atom = 15.567568
Neighbor list builds = 78
Dangerous builds = 0
unfix           myat1
next            cpt
jump            SELF loop
variable        zdes equal  -15+0.60*(${cpt}-1)
variable        zdes equal  -15+0.60*(5-1)
variable        zave equal xcm(H2,z)
fix             mytth2 H2 spring tether ${k1} 2.5 2.5 ${zdes} 0
fix             mytth2 H2 spring tether 1.5 2.5 2.5 ${zdes} 0
fix             mytth2 H2 spring tether 1.5 2.5 2.5 -12.6 0
run             10000
Generated 0 of 1 mixed pair_coeff terms from geometric mixing rule
Per MPI rank memory allocation (min/avg/max) = 13.32 | 13.75 | 14.98 Mbytes
   Step          Temp          E_pair         E_mol          TotEng         Press     
    260000   292.35798      373.68242      18537.133      19329.118     -39.132441    
    270000   307.60171      377.27752      18526.993      19344.384     -40.406217    
Loop time of 3.11025 on 48 procs for 10000 steps with 481 atoms

Performance: 13.890 ns/day, 1.728 hours/ns, 3215.181 timesteps/s, 1.547 Matom-step/s
100.0% CPU use with 48 MPI tasks x 1 OpenMP threads

MPI task timing breakdown:
Section |  min time  |  avg time  |  max time  |%varavg| %total
---------------------------------------------------------------
Pair    | 0.0032233  | 0.14208    | 0.88878    |  60.2 |  4.57
Bond    | 0.0010168  | 0.18137    | 0.91697    |  65.8 |  5.83
Neigh   | 0.0047105  | 0.0053547  | 0.0059439  |   0.5 |  0.17
Comm    | 1.1566     | 2.2813     | 2.8222     |  39.3 | 73.35
Output  | 0.0011504  | 0.0021488  | 0.003174   |   1.4 |  0.07
Modify  | 0.10494    | 0.39111    | 1.6956     |  81.4 | 12.57
Other   |            | 0.1068     |            |       |  3.44

Nlocal:        10.0208 ave          50 max           0 min
Histogram: 22 12 6 0 0 2 2 0 1 3
Nghost:        1818.35 ave        2347 max        1173 min
Histogram: 8 0 0 0 24 0 0 0 0 16
Neighs:              0 ave           0 max           0 min
Histogram: 48 0 0 0 0 0 0 0 0 0

Total # of neighbors = 0
Ave neighs/atom = 0
Ave special neighs/atom = 15.567568
Neighbor list builds = 15
Dangerous builds = 0
fix             myat1 all ave/time 1000 10 10000 v_zave v_zdes file simulation_data/abpot/${cpt}.dat
fix             myat1 all ave/time 1000 10 10000 v_zave v_zdes file simulation_data/abpot/5.dat
run             50000
Generated 0 of 1 mixed pair_coeff terms from geometric mixing rule
Per MPI rank memory allocation (min/avg/max) = 13.32 | 13.75 | 14.98 Mbytes
   Step          Temp          E_pair         E_mol          TotEng         Press     
    270000   307.60171      377.27752      18526.993      19344.384     -40.406217    
    280000   305.89977      385.67106      18535.657      19359.006      277.71085    
    290000   304.68177      372.49557      18527.193      19335.624     -104.97132    
    300000   292.97619      369.90391      18543.022      19332.113     -139.93588    
    310000   284.37746      386.42241      18517.541      19310.847      259.83585    
    320000   293.24787      377.17468      18531.418      19328.168     -52.687559    
Loop time of 15.7233 on 48 procs for 50000 steps with 481 atoms

Performance: 13.738 ns/day, 1.747 hours/ns, 3179.998 timesteps/s, 1.530 Matom-step/s
100.0% CPU use with 48 MPI tasks x 1 OpenMP threads

MPI task timing breakdown:
Section |  min time  |  avg time  |  max time  |%varavg| %total
---------------------------------------------------------------
Pair    | 0.016311   | 0.71568    | 4.732      | 136.1 |  4.55
Bond    | 0.0051182  | 0.91235    | 4.6046     | 148.7 |  5.80
Neigh   | 0.028668   | 0.032478   | 0.035895   |   1.1 |  0.21
Comm    | 5.6157     | 11.526     | 14.215     |  89.1 | 73.31
Output  | 0.0058778  | 0.01096    | 0.016333   |   3.1 |  0.07
Modify  | 0.5445     | 1.9906     | 8.6098     | 184.9 | 12.66
Other   |            | 0.535      |            |       |  3.40

Nlocal:        10.0208 ave          45 max           0 min
Histogram: 21 12 7 0 0 0 0 3 1 4
Nghost:        1818.35 ave        2347 max        1178 min
Histogram: 8 0 0 0 24 0 0 0 0 16
Neighs:              0 ave           0 max           0 min
Histogram: 48 0 0 0 0 0 0 0 0 0

Total # of neighbors = 0
Ave neighs/atom = 0
Ave special neighs/atom = 15.567568
Neighbor list builds = 88
Dangerous builds = 0
unfix           myat1
next            cpt
jump            SELF loop
variable        zdes equal  -15+0.60*(${cpt}-1)
variable        zdes equal  -15+0.60*(6-1)
variable        zave equal xcm(H2,z)
fix             mytth2 H2 spring tether ${k1} 2.5 2.5 ${zdes} 0
fix             mytth2 H2 spring tether 1.5 2.5 2.5 ${zdes} 0
fix             mytth2 H2 spring tether 1.5 2.5 2.5 -12 0
run             10000
Generated 0 of 1 mixed pair_coeff terms from geometric mixing rule
Per MPI rank memory allocation (min/avg/max) = 13.32 | 13.75 | 14.98 Mbytes
   Step          Temp          E_pair         E_mol          TotEng         Press     
    320000   293.24787      377.17468      18531.418      19328.168     -52.687559    
    330000   326.35778      375.06146      18516.466      19358.477     -66.787125    
Loop time of 3.1169 on 48 procs for 10000 steps with 481 atoms

Performance: 13.860 ns/day, 1.732 hours/ns, 3208.312 timesteps/s, 1.543 Matom-step/s
100.0% CPU use with 48 MPI tasks x 1 OpenMP threads

MPI task timing breakdown:
Section |  min time  |  avg time  |  max time  |%varavg| %total
---------------------------------------------------------------
Pair    | 0.0033309  | 0.14454    | 0.96187    |  61.4 |  4.64
Bond    | 0.0010425  | 0.18401    | 1.0602     |  67.5 |  5.90
Neigh   | 0.0063877  | 0.0073577  | 0.0081194  |   0.5 |  0.24
Comm    | 1.1113     | 2.2765     | 2.8312     |  40.0 | 73.04
Output  | 0.0012618  | 0.002264   | 0.0033034  |   1.3 |  0.07
Modify  | 0.11056    | 0.39445    | 1.6907     |  81.7 | 12.66
Other   |            | 0.1078     |            |       |  3.46

Nlocal:        10.0208 ave          50 max           0 min
Histogram: 22 11 7 0 0 0 4 0 2 2
Nghost:        1818.35 ave        2346 max        1173 min
Histogram: 8 0 0 0 24 0 0 0 0 16
Neighs:              0 ave           0 max           0 min
Histogram: 48 0 0 0 0 0 0 0 0 0

Total # of neighbors = 0
Ave neighs/atom = 0
Ave special neighs/atom = 15.567568
Neighbor list builds = 20
Dangerous builds = 0
fix             myat1 all ave/time 1000 10 10000 v_zave v_zdes file simulation_data/abpot/${cpt}.dat
fix             myat1 all ave/time 1000 10 10000 v_zave v_zdes file simulation_data/abpot/6.dat
run             50000
Generated 0 of 1 mixed pair_coeff terms from geometric mixing rule
Per MPI rank memory allocation (min/avg/max) = 13.32 | 13.75 | 14.98 Mbytes
   Step          Temp          E_pair         E_mol          TotEng         Press     
    330000   326.35778      375.06146      18516.466      19358.477     -66.787125    
    340000   307.97431      370.28145      18538.575      19349.503     -195.72228    
    350000   315.09049      372.9384       18511.169      19334.936     -12.790834    
    360000   301.56791      377.40108      18489.18       19298.061     -6.3243525    
    370000   297.72491      370.86526      18543.676      19340.523     -270.16445    
    380000   308.99006      374.07048      18505.849      19322.019     -79.275136    
Loop time of 15.7219 on 48 procs for 50000 steps with 481 atoms

Performance: 13.739 ns/day, 1.747 hours/ns, 3180.285 timesteps/s, 1.530 Matom-step/s
100.0% CPU use with 48 MPI tasks x 1 OpenMP threads

MPI task timing breakdown:
Section |  min time  |  avg time  |  max time  |%varavg| %total
---------------------------------------------------------------
Pair    | 0.016626   | 0.72098    | 4.8055     | 136.2 |  4.59
Bond    | 0.0051956  | 0.91973    | 4.6573     | 149.4 |  5.85
Neigh   | 0.026333   | 0.029998   | 0.033137   |   1.1 |  0.19
Comm    | 5.6889     | 11.515     | 14.289     |  89.4 | 73.24
Output  | 0.0059576  | 0.011015   | 0.016529   |   3.1 |  0.07
Modify  | 0.54858    | 1.9852     | 8.5651     | 185.2 | 12.63
Other   |            | 0.5403     |            |       |  3.44

Nlocal:        10.0208 ave          46 max           0 min
Histogram: 23 9 8 0 0 0 2 1 3 2
Nghost:        1818.35 ave        2347 max        1177 min
Histogram: 8 0 0 0 24 0 0 0 0 16
Neighs:              0 ave           0 max           0 min
Histogram: 48 0 0 0 0 0 0 0 0 0

Total # of neighbors = 0
Ave neighs/atom = 0
Ave special neighs/atom = 15.567568
Neighbor list builds = 80
Dangerous builds = 0
unfix           myat1
next            cpt
jump            SELF loop
variable        zdes equal  -15+0.60*(${cpt}-1)
variable        zdes equal  -15+0.60*(7-1)
variable        zave equal xcm(H2,z)
fix             mytth2 H2 spring tether ${k1} 2.5 2.5 ${zdes} 0
fix             mytth2 H2 spring tether 1.5 2.5 2.5 ${zdes} 0
fix             mytth2 H2 spring tether 1.5 2.5 2.5 -11.4 0
run             10000
Generated 0 of 1 mixed pair_coeff terms from geometric mixing rule
Per MPI rank memory allocation (min/avg/max) = 13.32 | 13.75 | 14.98 Mbytes
   Step          Temp          E_pair         E_mol          TotEng         Press     
    380000   308.99006      374.07048      18505.849      19322.019     -79.275136    
    390000   290.29585      372.52551      18525.33       19313.207     -34.114202    
Loop time of 3.12862 on 48 procs for 10000 steps with 481 atoms

Performance: 13.808 ns/day, 1.738 hours/ns, 3196.300 timesteps/s, 1.537 Matom-step/s
100.0% CPU use with 48 MPI tasks x 1 OpenMP threads

MPI task timing breakdown:
Section |  min time  |  avg time  |  max time  |%varavg| %total
---------------------------------------------------------------
Pair    | 0.0033253  | 0.144      | 0.96969    |  61.1 |  4.60
Bond    | 0.0010349  | 0.18375    | 0.92574    |  66.8 |  5.87
Neigh   | 0.005264   | 0.005929   | 0.0065391  |   0.5 |  0.19
Comm    | 1.0917     | 2.2902     | 2.8403     |  40.0 | 73.20
Output  | 0.0011579  | 0.0021582  | 0.0032143  |   1.4 |  0.07
Modify  | 0.10867    | 0.39436    | 1.6895     |  82.4 | 12.61
Other   |            | 0.1082     |            |       |  3.46

Nlocal:        10.0208 ave          47 max           0 min
Histogram: 20 16 4 0 0 0 2 2 1 3
Nghost:        1818.35 ave        2348 max        1176 min
Histogram: 8 0 0 0 24 0 0 0 0 16
Neighs:              0 ave           0 max           0 min
Histogram: 48 0 0 0 0 0 0 0 0 0

Total # of neighbors = 0
Ave neighs/atom = 0
Ave special neighs/atom = 15.567568
Neighbor list builds = 16
Dangerous builds = 0
fix             myat1 all ave/time 1000 10 10000 v_zave v_zdes file simulation_data/abpot/${cpt}.dat
fix             myat1 all ave/time 1000 10 10000 v_zave v_zdes file simulation_data/abpot/7.dat
run             50000
Generated 0 of 1 mixed pair_coeff terms from geometric mixing rule
Per MPI rank memory allocation (min/avg/max) = 13.32 | 13.75 | 14.98 Mbytes
   Step          Temp          E_pair         E_mol          TotEng         Press     
    390000   290.29585      372.52551      18525.33       19313.207     -34.114202    
    400000   291.17762      373.40078      18509.679      19299.694     -27.719601    
    410000   287.90059      379.72459      18500.302      19291.952      37.280023    
    420000   304.74729      374.15582      18515.662      19325.847     -19.486298    
    430000   313.01636      371.07361      18529.98       19348.913     -190.54749    
    440000   294.29061      373.13943      18521.378      19315.586     -89.853095    
Loop time of 16.0782 on 48 procs for 50000 steps with 481 atoms

Performance: 13.434 ns/day, 1.786 hours/ns, 3109.802 timesteps/s, 1.496 Matom-step/s
100.0% CPU use with 48 MPI tasks x 1 OpenMP threads

MPI task timing breakdown:
Section |  min time  |  avg time  |  max time  |%varavg| %total
---------------------------------------------------------------
Pair    | 0.016537   | 0.71854    | 4.8735     | 136.7 |  4.47
Bond    | 0.0051775  | 0.91644    | 4.656      | 149.2 |  5.70
Neigh   | 0.028916   | 0.032657   | 0.036067   |   1.1 |  0.20
Comm    | 5.8625     | 11.831     | 14.576     |  91.0 | 73.59
Output  | 0.005978   | 0.011023   | 0.016177   |   3.1 |  0.07
Modify  | 0.54645    | 2.0292     | 8.9075     | 192.5 | 12.62
Other   |            | 0.5388     |            |       |  3.35

Nlocal:        10.0208 ave          48 max           0 min
Histogram: 22 13 5 0 0 0 2 2 2 2
Nghost:        1818.35 ave        2347 max        1175 min
Histogram: 8 0 0 0 24 0 0 0 0 16
Neighs:              0 ave           0 max           0 min
Histogram: 48 0 0 0 0 0 0 0 0 0

Total # of neighbors = 0
Ave neighs/atom = 0
Ave special neighs/atom = 15.567568
Neighbor list builds = 86
Dangerous builds = 0
unfix           myat1
next            cpt
jump            SELF loop
variable        zdes equal  -15+0.60*(${cpt}-1)
variable        zdes equal  -15+0.60*(8-1)
variable        zave equal xcm(H2,z)
fix             mytth2 H2 spring tether ${k1} 2.5 2.5 ${zdes} 0
fix             mytth2 H2 spring tether 1.5 2.5 2.5 ${zdes} 0
fix             mytth2 H2 spring tether 1.5 2.5 2.5 -10.8 0
run             10000
Generated 0 of 1 mixed pair_coeff terms from geometric mixing rule
Per MPI rank memory allocation (min/avg/max) = 13.32 | 13.75 | 14.98 Mbytes
   Step          Temp          E_pair         E_mol          TotEng         Press     
    440000   294.29061      373.13943      18521.378      19315.586     -89.853095    
    450000   306.69271      372.04682      18523.13       19333.989     -100.91133    
Loop time of 3.17147 on 48 procs for 10000 steps with 481 atoms

Performance: 13.621 ns/day, 1.762 hours/ns, 3153.107 timesteps/s, 1.517 Matom-step/s
100.0% CPU use with 48 MPI tasks x 1 OpenMP threads

MPI task timing breakdown:
Section |  min time  |  avg time  |  max time  |%varavg| %total
---------------------------------------------------------------
Pair    | 0.0032814  | 0.14244    | 0.94211    |  61.0 |  4.49
Bond    | 0.0010373  | 0.18178    | 0.93178    |  66.1 |  5.73
Neigh   | 0.0048074  | 0.0054655  | 0.0060426  |   0.5 |  0.17
Comm    | 1.2018     | 2.331      | 2.8539     |  40.1 | 73.50
Output  | 0.0011229  | 0.002119   | 0.0031562  |   1.4 |  0.07
Modify  | 0.1065     | 0.40202    | 1.7535     |  84.3 | 12.68
Other   |            | 0.1067     |            |       |  3.36

Nlocal:        10.0208 ave          50 max           0 min
Histogram: 22 13 5 0 0 2 1 1 2 2
Nghost:        1818.35 ave        2346 max        1173 min
Histogram: 8 0 0 0 24 0 0 0 0 16
Neighs:              0 ave           0 max           0 min
Histogram: 48 0 0 0 0 0 0 0 0 0

Total # of neighbors = 0
Ave neighs/atom = 0
Ave special neighs/atom = 15.567568
Neighbor list builds = 15
Dangerous builds = 0
fix             myat1 all ave/time 1000 10 10000 v_zave v_zdes file simulation_data/abpot/${cpt}.dat
fix             myat1 all ave/time 1000 10 10000 v_zave v_zdes file simulation_data/abpot/8.dat
run             50000
Generated 0 of 1 mixed pair_coeff terms from geometric mixing rule
Per MPI rank memory allocation (min/avg/max) = 13.32 | 13.75 | 14.98 Mbytes
   Step          Temp          E_pair         E_mol          TotEng         Press     
    450000   306.69271      372.04682      18523.13       19333.989     -100.91133    
    460000   316.8995       376.52096      18533.031      19362.968      110.46844    
    470000   309.57386      381.25093      18519.386      19343.572      136.34526    
    480000   291.10798      379.41036      18516.516      19312.441      75.958588    
    490000   303.48613      375.38178      18521.322      19330.929      106.32733    
    500000   299.4983       382.40851      18542.476      19353.404      95.857042    
Loop time of 15.8369 on 48 procs for 50000 steps with 481 atoms

Performance: 13.639 ns/day, 1.760 hours/ns, 3157.183 timesteps/s, 1.519 Matom-step/s
100.0% CPU use with 48 MPI tasks x 1 OpenMP threads

MPI task timing breakdown:
Section |  min time  |  avg time  |  max time  |%varavg| %total
---------------------------------------------------------------
Pair    | 0.016106   | 0.71226    | 4.676      | 135.2 |  4.50
Bond    | 0.005089   | 0.90906    | 4.6503     | 148.2 |  5.74
Neigh   | 0.033923   | 0.038261   | 0.042279   |   1.2 |  0.24
Comm    | 5.8041     | 11.632     | 14.362     |  89.2 | 73.45
Output  | 0.0059733  | 0.010977   | 0.016083   |   3.1 |  0.07
Modify  | 0.54733    | 1.9989     | 8.6904     | 187.7 | 12.62
Other   |            | 0.5353     |            |       |  3.38

Nlocal:        10.0208 ave          50 max           0 min
Histogram: 23 11 6 0 0 0 1 4 2 1
Nghost:        1818.35 ave        2347 max        1173 min
Histogram: 8 0 0 0 24 0 0 0 0 16
Neighs:              0 ave           0 max           0 min
Histogram: 48 0 0 0 0 0 0 0 0 0

Total # of neighbors = 0
Ave neighs/atom = 0
Ave special neighs/atom = 15.567568
Neighbor list builds = 101
Dangerous builds = 0
unfix           myat1
next            cpt
jump            SELF loop
variable        zdes equal  -15+0.60*(${cpt}-1)
variable        zdes equal  -15+0.60*(9-1)
variable        zave equal xcm(H2,z)
fix             mytth2 H2 spring tether ${k1} 2.5 2.5 ${zdes} 0
fix             mytth2 H2 spring tether 1.5 2.5 2.5 ${zdes} 0
fix             mytth2 H2 spring tether 1.5 2.5 2.5 -10.2 0
run             10000
Generated 0 of 1 mixed pair_coeff terms from geometric mixing rule
Per MPI rank memory allocation (min/avg/max) = 13.32 | 13.75 | 14.98 Mbytes
   Step          Temp          E_pair         E_mol          TotEng         Press     
    500000   299.4983       382.40851      18542.476      19353.404      95.857042    
    510000   306.14287      376.8632       18540.477      19355.366      113.70868    
Loop time of 3.18771 on 48 procs for 10000 steps with 481 atoms

Performance: 13.552 ns/day, 1.771 hours/ns, 3137.046 timesteps/s, 1.509 Matom-step/s
100.0% CPU use with 48 MPI tasks x 1 OpenMP threads

MPI task timing breakdown:
Section |  min time  |  avg time  |  max time  |%varavg| %total
---------------------------------------------------------------
Pair    | 0.0032498  | 0.14324    | 0.96051    |  60.9 |  4.49
Bond    | 0.0010312  | 0.18245    | 0.97512    |  66.9 |  5.72
Neigh   | 0.0091078  | 0.010275   | 0.011327   |   0.6 |  0.32
Comm    | 1.1199     | 2.3435     | 2.9005     |  40.3 | 73.52
Output  | 0.0012055  | 0.002259   | 0.0033814  |   1.4 |  0.07
Modify  | 0.1101     | 0.39872    | 1.7514     |  85.1 | 12.51
Other   |            | 0.1072     |            |       |  3.36

Nlocal:        10.0208 ave          49 max           0 min
Histogram: 22 12 6 0 0 1 2 1 1 3
Nghost:        1818.35 ave        2346 max        1176 min
Histogram: 8 0 0 0 24 0 0 0 0 16
Neighs:              0 ave           0 max           0 min
Histogram: 48 0 0 0 0 0 0 0 0 0

Total # of neighbors = 0
Ave neighs/atom = 0
Ave special neighs/atom = 15.567568
Neighbor list builds = 27
Dangerous builds = 0
fix             myat1 all ave/time 1000 10 10000 v_zave v_zdes file simulation_data/abpot/${cpt}.dat
fix             myat1 all ave/time 1000 10 10000 v_zave v_zdes file simulation_data/abpot/9.dat
run             50000
Generated 0 of 1 mixed pair_coeff terms from geometric mixing rule
Per MPI rank memory allocation (min/avg/max) = 13.32 | 13.75 | 14.98 Mbytes
   Step          Temp          E_pair         E_mol          TotEng         Press     
    510000   306.14287      376.8632       18540.477      19355.366      113.70868    
    520000   314.02357      370.57787      18522.38       19342.259     -75.446309    
    530000   283.77213      370.49658      18531.252      19307.767     -193.73531    
    540000   281.98079      379.57725      18528.916      19311.948      30.122719    
    550000   301.12003      380.91919      18523.263      19335.021      114.48227    
    560000   311.83633      370.10458      18549.388      19365.665     -148.86984    
Loop time of 15.9629 on 48 procs for 50000 steps with 481 atoms

Performance: 13.531 ns/day, 1.774 hours/ns, 3132.265 timesteps/s, 1.507 Matom-step/s
100.0% CPU use with 48 MPI tasks x 1 OpenMP threads

MPI task timing breakdown:
Section |  min time  |  avg time  |  max time  |%varavg| %total
---------------------------------------------------------------
Pair    | 0.016364   | 0.71838    | 4.819      | 136.5 |  4.50
Bond    | 0.005164   | 0.9159     | 4.7626     | 149.5 |  5.74
Neigh   | 0.040852   | 0.046001   | 0.050728   |   1.3 |  0.29
Comm    | 5.7871     | 11.688     | 14.458     |  89.6 | 73.22
Output  | 0.0061108  | 0.011197   | 0.01641    |   3.1 |  0.07
Modify  | 0.54887    | 2.0471     | 8.7823     | 186.9 | 12.82
Other   |            | 0.5368     |            |       |  3.36

Nlocal:        10.0208 ave          44 max           0 min
Histogram: 21 12 5 2 0 0 0 2 3 3
Nghost:        1818.35 ave        2347 max        1179 min
Histogram: 8 0 0 0 24 0 0 0 0 16
Neighs:              0 ave           0 max           0 min
Histogram: 48 0 0 0 0 0 0 0 0 0

Total # of neighbors = 0
Ave neighs/atom = 0
Ave special neighs/atom = 15.567568
Neighbor list builds = 122
Dangerous builds = 0
unfix           myat1
next            cpt
jump            SELF loop
variable        zdes equal  -15+0.60*(${cpt}-1)
variable        zdes equal  -15+0.60*(10-1)
variable        zave equal xcm(H2,z)
fix             mytth2 H2 spring tether ${k1} 2.5 2.5 ${zdes} 0
fix             mytth2 H2 spring tether 1.5 2.5 2.5 ${zdes} 0
fix             mytth2 H2 spring tether 1.5 2.5 2.5 -9.6 0
run             10000
Generated 0 of 1 mixed pair_coeff terms from geometric mixing rule
Per MPI rank memory allocation (min/avg/max) = 13.32 | 13.75 | 14.98 Mbytes
   Step          Temp          E_pair         E_mol          TotEng         Press     
    560000   311.83633      370.10458      18549.388      19365.665     -148.86984    
    570000   306.81656      375.54171      18521.665      19336.196     -60.573455    
Loop time of 3.15768 on 48 procs for 10000 steps with 481 atoms

Performance: 13.681 ns/day, 1.754 hours/ns, 3166.882 timesteps/s, 1.523 Matom-step/s
100.0% CPU use with 48 MPI tasks x 1 OpenMP threads

MPI task timing breakdown:
Section |  min time  |  avg time  |  max time  |%varavg| %total
---------------------------------------------------------------
Pair    | 0.0033067  | 0.14451    | 0.95676    |  61.0 |  4.58
Bond    | 0.0010481  | 0.18395    | 0.9172     |  66.5 |  5.83
Neigh   | 0.006545   | 0.0073714  | 0.0081406  |   0.5 |  0.23
Comm    | 1.1623     | 2.3145     | 2.8512     |  39.7 | 73.30
Output  | 0.0011749  | 0.0021938  | 0.0032403  |   1.4 |  0.07
Modify  | 0.11062    | 0.39714    | 1.7227     |  82.7 | 12.58
Other   |            | 0.1081     |            |       |  3.42

Nlocal:        10.0208 ave          50 max           0 min
Histogram: 23 9 8 0 0 0 3 0 3 2
Nghost:        1818.35 ave        2348 max        1173 min
Histogram: 8 0 0 0 24 0 0 0 0 16
Neighs:              0 ave           0 max           0 min
Histogram: 48 0 0 0 0 0 0 0 0 0

Total # of neighbors = 0
Ave neighs/atom = 0
Ave special neighs/atom = 15.567568
Neighbor list builds = 20
Dangerous builds = 0
fix             myat1 all ave/time 1000 10 10000 v_zave v_zdes file simulation_data/abpot/${cpt}.dat
fix             myat1 all ave/time 1000 10 10000 v_zave v_zdes file simulation_data/abpot/10.dat
run             50000
Generated 0 of 1 mixed pair_coeff terms from geometric mixing rule
Per MPI rank memory allocation (min/avg/max) = 13.32 | 13.75 | 14.98 Mbytes
   Step          Temp          E_pair         E_mol          TotEng         Press     
    570000   306.81656      375.54171      18521.665      19336.196     -60.573455    
    580000   300.04725      374.1804       18508.82       19312.305      44.171744    
    590000   290.88212      371.64588      18533.433      19321.27      -6.3903133    
    600000   288.75157      376.612        18550.871      19340.625     -70.178129    
    610000   294.10162      373.59112      18499.625      19294.013     -77.545831    
    620000   285.76394      373.02571      18512.727      19294.621     -36.145486    
Loop time of 15.6556 on 48 procs for 50000 steps with 481 atoms

Performance: 13.797 ns/day, 1.740 hours/ns, 3193.750 timesteps/s, 1.536 Matom-step/s
100.0% CPU use with 48 MPI tasks x 1 OpenMP threads

MPI task timing breakdown:
Section |  min time  |  avg time  |  max time  |%varavg| %total
---------------------------------------------------------------
Pair    | 0.016705   | 0.72326    | 4.7748     | 136.7 |  4.62
Bond    | 0.0052718  | 0.91967    | 4.6877     | 149.6 |  5.87
Neigh   | 0.023912   | 0.026882   | 0.029432   |   0.9 |  0.17
Comm    | 5.6072     | 11.434     | 14.088     |  88.5 | 73.04
Output  | 0.0059294  | 0.010977   | 0.016107   |   3.1 |  0.07
Modify  | 0.54224    | 1.9999     | 8.4832     | 180.6 | 12.77
Other   |            | 0.5408     |            |       |  3.45

Nlocal:        10.0208 ave          55 max           0 min
Histogram: 24 12 4 1 0 1 1 2 2 1
Nghost:        1818.35 ave        2348 max        1177 min
Histogram: 8 0 0 0 24 0 0 0 0 16
Neighs:              0 ave           0 max           0 min
Histogram: 48 0 0 0 0 0 0 0 0 0

Total # of neighbors = 0
Ave neighs/atom = 0
Ave special neighs/atom = 15.567568
Neighbor list builds = 71
Dangerous builds = 0
unfix           myat1
next            cpt
jump            SELF loop
variable        zdes equal  -15+0.60*(${cpt}-1)
variable        zdes equal  -15+0.60*(11-1)
variable        zave equal xcm(H2,z)
fix             mytth2 H2 spring tether ${k1} 2.5 2.5 ${zdes} 0
fix             mytth2 H2 spring tether 1.5 2.5 2.5 ${zdes} 0
fix             mytth2 H2 spring tether 1.5 2.5 2.5 -9 0
run             10000
Generated 0 of 1 mixed pair_coeff terms from geometric mixing rule
Per MPI rank memory allocation (min/avg/max) = 13.32 | 13.75 | 14.98 Mbytes
   Step          Temp          E_pair         E_mol          TotEng         Press     
    620000   285.76394      373.02571      18512.727      19294.621     -36.145486    
    630000   293.71799      368.3153       18559.943      19348.506     -168.28463    
Loop time of 3.12783 on 48 procs for 10000 steps with 481 atoms

Performance: 13.811 ns/day, 1.738 hours/ns, 3197.103 timesteps/s, 1.538 Matom-step/s
100.0% CPU use with 48 MPI tasks x 1 OpenMP threads

MPI task timing breakdown:
Section |  min time  |  avg time  |  max time  |%varavg| %total
---------------------------------------------------------------
Pair    | 0.00322    | 0.14285    | 0.98355    |  61.4 |  4.57
Bond    | 0.0010401  | 0.18184    | 0.9975     |  66.7 |  5.81
Neigh   | 0.0033676  | 0.0038073  | 0.0042213  |   0.4 |  0.12
Comm    | 1.0291     | 2.2948     | 2.8429     |  39.8 | 73.37
Output  | 0.001195   | 0.0021759  | 0.0032005  |   1.4 |  0.07
Modify  | 0.11055    | 0.39479    | 1.7014     |  82.0 | 12.62
Other   |            | 0.1076     |            |       |  3.44

Nlocal:        10.0208 ave          51 max           0 min
Histogram: 24 10 6 0 0 1 3 0 3 1
Nghost:        1818.35 ave        2347 max        1172 min
Histogram: 8 0 0 0 24 0 0 0 0 16
Neighs:              0 ave           0 max           0 min
Histogram: 48 0 0 0 0 0 0 0 0 0

Total # of neighbors = 0
Ave neighs/atom = 0
Ave special neighs/atom = 15.567568
Neighbor list builds = 10
Dangerous builds = 0
fix             myat1 all ave/time 1000 10 10000 v_zave v_zdes file simulation_data/abpot/${cpt}.dat
fix             myat1 all ave/time 1000 10 10000 v_zave v_zdes file simulation_data/abpot/11.dat
run             50000
Generated 0 of 1 mixed pair_coeff terms from geometric mixing rule
Per MPI rank memory allocation (min/avg/max) = 13.32 | 13.75 | 14.98 Mbytes
   Step          Temp          E_pair         E_mol          TotEng         Press     
    630000   293.71799      368.3153       18559.943      19348.506     -168.28463    
    640000   299.37011      373.40339      18508.543      19310.282     -26.805399    
    650000   295.17292      366.36337      18515.378      19304.071     -251.7433     
    660000   295.90578      374.09583      18500.595      19298.069     -17.333264    
    670000   293.9204       375.16365      18511.979      19307.68       25.933941    
    680000   312.63361      381.90329      18505.7        19334.916      185.50548    
Loop time of 15.5002 on 48 procs for 50000 steps with 481 atoms

Performance: 13.935 ns/day, 1.722 hours/ns, 3225.764 timesteps/s, 1.552 Matom-step/s
100.0% CPU use with 48 MPI tasks x 1 OpenMP threads

MPI task timing breakdown:
Section |  min time  |  avg time  |  max time  |%varavg| %total
---------------------------------------------------------------
Pair    | 0.016191   | 0.71433    | 4.8102     | 135.2 |  4.61
Bond    | 0.0051647  | 0.90889    | 4.6455     | 148.0 |  5.86
Neigh   | 0.018534   | 0.02087    | 0.023096   |   0.9 |  0.13
Comm    | 5.482      | 11.339     | 14.058     |  87.8 | 73.16
Output  | 0.005875   | 0.01078    | 0.015821   |   3.0 |  0.07
Modify  | 0.54378    | 1.9698     | 8.3526     | 180.4 | 12.71
Other   |            | 0.5363     |            |       |  3.46

Nlocal:        10.0208 ave          46 max           0 min
Histogram: 21 14 5 0 0 0 1 2 2 3
Nghost:        1818.35 ave        2347 max        1177 min
Histogram: 8 0 0 0 24 0 0 0 0 16
Neighs:              0 ave           0 max           0 min
Histogram: 48 0 0 0 0 0 0 0 0 0

Total # of neighbors = 0
Ave neighs/atom = 0
Ave special neighs/atom = 15.567568
Neighbor list builds = 57
Dangerous builds = 0
unfix           myat1
next            cpt
jump            SELF loop
variable        zdes equal  -15+0.60*(${cpt}-1)
variable        zdes equal  -15+0.60*(12-1)
variable        zave equal xcm(H2,z)
fix             mytth2 H2 spring tether ${k1} 2.5 2.5 ${zdes} 0
fix             mytth2 H2 spring tether 1.5 2.5 2.5 ${zdes} 0
fix             mytth2 H2 spring tether 1.5 2.5 2.5 -8.4 0
run             10000
Generated 0 of 1 mixed pair_coeff terms from geometric mixing rule
Per MPI rank memory allocation (min/avg/max) = 13.32 | 13.75 | 14.98 Mbytes
   Step          Temp          E_pair         E_mol          TotEng         Press     
    680000   312.63361      381.90329      18505.7        19334.916      185.50548    
    690000   305.6394       372.45119      18533.82       19343.577     -129.54067    
Loop time of 3.1965 on 48 procs for 10000 steps with 481 atoms

Performance: 13.515 ns/day, 1.776 hours/ns, 3128.417 timesteps/s, 1.505 Matom-step/s
100.0% CPU use with 48 MPI tasks x 1 OpenMP threads

MPI task timing breakdown:
Section |  min time  |  avg time  |  max time  |%varavg| %total
---------------------------------------------------------------
Pair    | 0.0032729  | 0.14306    | 0.96611    |  60.2 |  4.48
Bond    | 0.0010304  | 0.18181    | 0.96681    |  66.1 |  5.69
Neigh   | 0.0025298  | 0.0028883  | 0.0031978  |   0.3 |  0.09
Comm    | 1.2072     | 2.3372     | 2.9047     |  39.8 | 73.12
Output  | 0.0012234  | 0.0021976  | 0.0032274  |   1.3 |  0.07
Modify  | 0.10781    | 0.4213     | 1.7617     |  83.6 | 13.18
Other   |            | 0.108      |            |       |  3.38

Nlocal:        10.0208 ave          52 max           0 min
Histogram: 25 10 5 0 1 0 2 2 1 2
Nghost:        1818.35 ave        2348 max        1176 min
Histogram: 8 0 0 0 24 0 0 0 0 16
Neighs:              0 ave           0 max           0 min
Histogram: 48 0 0 0 0 0 0 0 0 0

Total # of neighbors = 0
Ave neighs/atom = 0
Ave special neighs/atom = 15.567568
Neighbor list builds = 8
Dangerous builds = 0
fix             myat1 all ave/time 1000 10 10000 v_zave v_zdes file simulation_data/abpot/${cpt}.dat
fix             myat1 all ave/time 1000 10 10000 v_zave v_zdes file simulation_data/abpot/12.dat
run             50000
Generated 0 of 1 mixed pair_coeff terms from geometric mixing rule
Per MPI rank memory allocation (min/avg/max) = 13.32 | 13.75 | 14.98 Mbytes
   Step          Temp          E_pair         E_mol          TotEng         Press     
    690000   305.6394       372.45119      18533.82       19343.577     -129.54067    
    700000   300.76495      370.76787      18555.229      19356.328     -171.10187    
    710000   316.5485       369.64048      18559.811      19382.366     -162.25379    
    720000   305.48595      382.86398      18523.543      19343.493      204.67203    
    730000   312.13993      377.99026      18495.341      19319.937      19.329823    
    740000   300.44167      380.37493      18509.752      19319.995      53.443159    
Loop time of 15.5513 on 48 procs for 50000 steps with 481 atoms

Performance: 13.889 ns/day, 1.728 hours/ns, 3215.160 timesteps/s, 1.546 Matom-step/s
100.0% CPU use with 48 MPI tasks x 1 OpenMP threads

MPI task timing breakdown:
Section |  min time  |  avg time  |  max time  |%varavg| %total
---------------------------------------------------------------
Pair    | 0.016193   | 0.71418    | 4.8009     | 134.7 |  4.59
Bond    | 0.0051735  | 0.90955    | 4.695      | 148.0 |  5.85
Neigh   | 0.021819   | 0.024768   | 0.027359   |   1.0 |  0.16
Comm    | 5.5304     | 11.343     | 14.109     |  87.5 | 72.94
Output  | 0.0059626  | 0.010909   | 0.016004   |   3.0 |  0.07
Modify  | 0.55565    | 2.0113     | 8.387      | 179.8 | 12.93
Other   |            | 0.5381     |            |       |  3.46

Nlocal:        10.0208 ave          49 max           0 min
Histogram: 22 14 4 0 0 1 1 2 2 2
Nghost:        1818.35 ave        2348 max        1177 min
Histogram: 8 0 0 0 24 0 0 0 0 16
Neighs:              0 ave           0 max           0 min
Histogram: 48 0 0 0 0 0 0 0 0 0

Total # of neighbors = 0
Ave neighs/atom = 0
Ave special neighs/atom = 15.567568
Neighbor list builds = 68
Dangerous builds = 0
unfix           myat1
next            cpt
jump            SELF loop
variable        zdes equal  -15+0.60*(${cpt}-1)
variable        zdes equal  -15+0.60*(13-1)
variable        zave equal xcm(H2,z)
fix             mytth2 H2 spring tether ${k1} 2.5 2.5 ${zdes} 0
fix             mytth2 H2 spring tether 1.5 2.5 2.5 ${zdes} 0
fix             mytth2 H2 spring tether 1.5 2.5 2.5 -7.8 0
run             10000
Generated 0 of 1 mixed pair_coeff terms from geometric mixing rule
Per MPI rank memory allocation (min/avg/max) = 13.32 | 13.75 | 14.98 Mbytes
   Step          Temp          E_pair         E_mol          TotEng         Press     
    740000   300.44167      380.37493      18509.752      19319.995      53.443159    
    750000   285.01192      365.08185      18555.119      19327.993     -149.06893    
Loop time of 3.15723 on 48 procs for 10000 steps with 481 atoms

Performance: 13.683 ns/day, 1.754 hours/ns, 3167.335 timesteps/s, 1.523 Matom-step/s
100.0% CPU use with 48 MPI tasks x 1 OpenMP threads

MPI task timing breakdown:
Section |  min time  |  avg time  |  max time  |%varavg| %total
---------------------------------------------------------------
Pair    | 0.0032088  | 0.14285    | 0.98727    |  60.7 |  4.52
Bond    | 0.0010193  | 0.1819     | 0.93771    |  66.4 |  5.76
Neigh   | 0.0041352  | 0.0046434  | 0.005097   |   0.4 |  0.15
Comm    | 1.0781     | 2.3122     | 2.8643     |  39.7 | 73.24
Output  | 0.0011592  | 0.002129   | 0.0031543  |   1.4 |  0.07
Modify  | 0.1083     | 0.40596    | 1.7166     |  82.5 | 12.86
Other   |            | 0.1075     |            |       |  3.41

Nlocal:        10.0208 ave          47 max           0 min
Histogram: 22 13 5 0 0 0 1 3 2 2
Nghost:        1818.35 ave        2348 max        1176 min
Histogram: 8 0 0 0 24 0 0 0 0 16
Neighs:              0 ave           0 max           0 min
Histogram: 48 0 0 0 0 0 0 0 0 0

Total # of neighbors = 0
Ave neighs/atom = 0
Ave special neighs/atom = 15.567568
Neighbor list builds = 12
Dangerous builds = 0
fix             myat1 all ave/time 1000 10 10000 v_zave v_zdes file simulation_data/abpot/${cpt}.dat
fix             myat1 all ave/time 1000 10 10000 v_zave v_zdes file simulation_data/abpot/13.dat
run             50000
Generated 0 of 1 mixed pair_coeff terms from geometric mixing rule
Per MPI rank memory allocation (min/avg/max) = 13.32 | 13.75 | 14.98 Mbytes
   Step          Temp          E_pair         E_mol          TotEng         Press     
    750000   285.01192      365.08185      18555.119      19327.993     -149.06893    
    760000   302.71513      372.00646      18534.293      19339.421     -122.7819     
    770000   306.26643      368.6463       18515.279      19322.128     -146.5505     
    780000   286.70448      373.54926      18510.771      19294.534     -23.865942    
    790000   291.96991      378.68093      18523.592      19320.02      -7.5460174    
    800000   301.00699      366.67856      18545.386      19342.742     -150.81246    
Loop time of 15.6468 on 48 procs for 50000 steps with 481 atoms

Performance: 13.805 ns/day, 1.739 hours/ns, 3195.538 timesteps/s, 1.537 Matom-step/s
100.0% CPU use with 48 MPI tasks x 1 OpenMP threads

MPI task timing breakdown:
Section |  min time  |  avg time  |  max time  |%varavg| %total
---------------------------------------------------------------
Pair    | 0.016217   | 0.71458    | 4.8581     | 136.0 |  4.57
Bond    | 0.0051447  | 0.9084     | 4.6241     | 147.8 |  5.81
Neigh   | 0.021575   | 0.024403   | 0.027046   |   1.0 |  0.16
Comm    | 5.4809     | 11.491     | 14.229     |  88.8 | 73.44
Output  | 0.005963   | 0.010903   | 0.01598    |   3.0 |  0.07
Modify  | 0.54285    | 1.9627     | 8.4861     | 185.2 | 12.54
Other   |            | 0.5353     |            |       |  3.42

Nlocal:        10.0208 ave          58 max           0 min
Histogram: 21 18 1 0 3 0 1 2 1 1
Nghost:        1818.35 ave        2348 max        1165 min
Histogram: 8 0 0 0 24 0 0 0 0 16
Neighs:              0 ave           0 max           0 min
Histogram: 48 0 0 0 0 0 0 0 0 0

Total # of neighbors = 0
Ave neighs/atom = 0
Ave special neighs/atom = 15.567568
Neighbor list builds = 68
Dangerous builds = 0
unfix           myat1
next            cpt
jump            SELF loop
variable        zdes equal  -15+0.60*(${cpt}-1)
variable        zdes equal  -15+0.60*(14-1)
variable        zave equal xcm(H2,z)
fix             mytth2 H2 spring tether ${k1} 2.5 2.5 ${zdes} 0
fix             mytth2 H2 spring tether 1.5 2.5 2.5 ${zdes} 0
fix             mytth2 H2 spring tether 1.5 2.5 2.5 -7.2 0
run             10000
Generated 0 of 1 mixed pair_coeff terms from geometric mixing rule
Per MPI rank memory allocation (min/avg/max) = 13.32 | 13.75 | 14.98 Mbytes
   Step          Temp          E_pair         E_mol          TotEng         Press     
    800000   301.00699      366.67856      18545.386      19342.742     -150.81246    
    810000   300.34005      365.53138      18522.089      19317.344     -295.02924    
Loop time of 3.09265 on 48 procs for 10000 steps with 481 atoms

Performance: 13.969 ns/day, 1.718 hours/ns, 3233.477 timesteps/s, 1.555 Matom-step/s
100.0% CPU use with 48 MPI tasks x 1 OpenMP threads

MPI task timing breakdown:
Section |  min time  |  avg time  |  max time  |%varavg| %total
---------------------------------------------------------------
Pair    | 0.0032851  | 0.14292    | 0.95278    |  60.3 |  4.62
Bond    | 0.001041   | 0.18163    | 0.90735    |  65.7 |  5.87
Neigh   | 0.0037742  | 0.0042847  | 0.0047841  |   0.4 |  0.14
Comm    | 1.116      | 2.2715     | 2.8045     |  39.1 | 73.45
Output  | 0.0011323  | 0.0021435  | 0.0031793  |   1.4 |  0.07
Modify  | 0.10775    | 0.38304    | 1.6632     |  81.0 | 12.39
Other   |            | 0.1071     |            |       |  3.46

Nlocal:        10.0208 ave          47 max           0 min
Histogram: 24 9 6 1 0 0 1 2 3 2
Nghost:        1818.35 ave        2347 max        1176 min
Histogram: 8 0 0 0 24 0 0 0 0 16
Neighs:              0 ave           0 max           0 min
Histogram: 48 0 0 0 0 0 0 0 0 0

Total # of neighbors = 0
Ave neighs/atom = 0
Ave special neighs/atom = 15.567568
Neighbor list builds = 12
Dangerous builds = 0
fix             myat1 all ave/time 1000 10 10000 v_zave v_zdes file simulation_data/abpot/${cpt}.dat
fix             myat1 all ave/time 1000 10 10000 v_zave v_zdes file simulation_data/abpot/14.dat
run             50000
Generated 0 of 1 mixed pair_coeff terms from geometric mixing rule
Per MPI rank memory allocation (min/avg/max) = 13.32 | 13.75 | 14.98 Mbytes
   Step          Temp          E_pair         E_mol          TotEng         Press     
    810000   300.34005      365.53138      18522.089      19317.344     -295.02924    
    820000   292.84528      384.80301      18525.618      19329.421      136.78706    
    830000   314.89804      386.25658      18528.763      19365.572      330.13815    
    840000   310.08722      372.5055       18551.936      19368.111     -93.757103    
    850000   297.47524      369.62345      18543.473      19338.72      -211.18279    
    860000   309.05773      372.12029      18516.009      19330.326     -52.359082    
Loop time of 15.7168 on 48 procs for 50000 steps with 481 atoms

Performance: 13.743 ns/day, 1.746 hours/ns, 3181.314 timesteps/s, 1.530 Matom-step/s
100.0% CPU use with 48 MPI tasks x 1 OpenMP threads

MPI task timing breakdown:
Section |  min time  |  avg time  |  max time  |%varavg| %total
---------------------------------------------------------------
Pair    | 0.016253   | 0.71636    | 5.0079     | 137.1 |  4.56
Bond    | 0.0051235  | 0.91027    | 4.402      | 148.1 |  5.79
Neigh   | 0.018533   | 0.021004   | 0.023328   |   0.9 |  0.13
Comm    | 5.1267     | 11.579     | 14.252     |  89.8 | 73.67
Output  | 0.0058526  | 0.010911   | 0.016083   |   3.1 |  0.07
Modify  | 0.54313    | 1.9435     | 8.556      | 188.4 | 12.37
Other   |            | 0.5361     |            |       |  3.41

Nlocal:        10.0208 ave          48 max           0 min
Histogram: 22 13 5 0 0 0 3 1 1 3
Nghost:        1818.35 ave        2348 max        1175 min
Histogram: 8 0 0 0 24 0 0 0 0 16
Neighs:              0 ave           0 max           0 min
Histogram: 48 0 0 0 0 0 0 0 0 0

Total # of neighbors = 0
Ave neighs/atom = 0
Ave special neighs/atom = 15.567568
Neighbor list builds = 59
Dangerous builds = 0
unfix           myat1
next            cpt
jump            SELF loop
variable        zdes equal  -15+0.60*(${cpt}-1)
variable        zdes equal  -15+0.60*(15-1)
variable        zave equal xcm(H2,z)
fix             mytth2 H2 spring tether ${k1} 2.5 2.5 ${zdes} 0
fix             mytth2 H2 spring tether 1.5 2.5 2.5 ${zdes} 0
fix             mytth2 H2 spring tether 1.5 2.5 2.5 -6.6 0
run             10000
Generated 0 of 1 mixed pair_coeff terms from geometric mixing rule
Per MPI rank memory allocation (min/avg/max) = 13.32 | 13.75 | 14.98 Mbytes
   Step          Temp          E_pair         E_mol          TotEng         Press     
    860000   309.05773      372.12029      18516.009      19330.326     -52.359082    
    870000   287.20974      379.99208      18518.993      19309.922      93.949066    
Loop time of 3.17919 on 48 procs for 10000 steps with 481 atoms

Performance: 13.588 ns/day, 1.766 hours/ns, 3145.451 timesteps/s, 1.513 Matom-step/s
100.0% CPU use with 48 MPI tasks x 1 OpenMP threads

MPI task timing breakdown:
Section |  min time  |  avg time  |  max time  |%varavg| %total
---------------------------------------------------------------
Pair    | 0.0032104  | 0.14395    | 1.0487     |  62.3 |  4.53
Bond    | 0.0010423  | 0.18277    | 0.92708    |  66.9 |  5.75
Neigh   | 0.004519   | 0.00511    | 0.0056754  |   0.4 |  0.16
Comm    | 0.96061    | 2.331      | 2.8957     |  40.2 | 73.32
Output  | 0.0012121  | 0.0022237  | 0.0032721  |   1.4 |  0.07
Modify  | 0.10951    | 0.40647    | 1.7343     |  83.6 | 12.79
Other   |            | 0.1077     |            |       |  3.39

Nlocal:        10.0208 ave          53 max           0 min
Histogram: 23 13 4 0 1 1 2 0 3 1
Nghost:        1818.35 ave        2347 max        1170 min
Histogram: 8 0 0 0 24 0 0 0 0 16
Neighs:              0 ave           0 max           0 min
Histogram: 48 0 0 0 0 0 0 0 0 0

Total # of neighbors = 0
Ave neighs/atom = 0
Ave special neighs/atom = 15.567568
Neighbor list builds = 14
Dangerous builds = 0
fix             myat1 all ave/time 1000 10 10000 v_zave v_zdes file simulation_data/abpot/${cpt}.dat
fix             myat1 all ave/time 1000 10 10000 v_zave v_zdes file simulation_data/abpot/15.dat
run             50000
Generated 0 of 1 mixed pair_coeff terms from geometric mixing rule
Per MPI rank memory allocation (min/avg/max) = 13.32 | 13.76 | 14.98 Mbytes
   Step          Temp          E_pair         E_mol          TotEng         Press     
    870000   287.20974      379.99208      18518.993      19309.922      93.949066    
    880000   284.36332      381.57199      18539.546      19327.982      71.874837    
    890000   297.54749      383.27733      18532.719      19341.724      33.319865    
    900000   326.68566      377.6017       18536.702      19381.722     -0.69275985   
    910000   318.52895      365.09305      18541.499      19362.34      -308.46889    
    920000   285.47802      373.43159      18539.137      19321.028     -139.85588    
Loop time of 16.2831 on 48 procs for 50000 steps with 481 atoms

Performance: 13.265 ns/day, 1.809 hours/ns, 3070.678 timesteps/s, 1.477 Matom-step/s
100.0% CPU use with 48 MPI tasks x 1 OpenMP threads

MPI task timing breakdown:
Section |  min time  |  avg time  |  max time  |%varavg| %total
---------------------------------------------------------------
Pair    | 0.016441   | 0.72134    | 5.2339     | 139.6 |  4.43
Bond    | 0.0052006  | 0.91564    | 4.5574     | 149.5 |  5.62
Neigh   | 0.02899    | 0.032646   | 0.035976   |   1.1 |  0.20
Comm    | 5.2885     | 12.002     | 14.841     |  92.1 | 73.71
Output  | 0.0061042  | 0.011105   | 0.016179   |   3.0 |  0.07
Modify  | 0.54569    | 2.0629     | 9.092      | 195.7 | 12.67
Other   |            | 0.5374     |            |       |  3.30

Nlocal:        10.0208 ave          52 max           0 min
Histogram: 24 12 4 0 1 2 1 0 1 3
Nghost:        1818.35 ave        2347 max        1171 min
Histogram: 8 0 0 0 24 0 0 0 0 16
Neighs:              0 ave           0 max           0 min
Histogram: 48 0 0 0 0 0 0 0 0 0

Total # of neighbors = 0
Ave neighs/atom = 0
Ave special neighs/atom = 15.567568
Neighbor list builds = 87
Dangerous builds = 0
unfix           myat1
next            cpt
jump            SELF loop
variable        zdes equal  -15+0.60*(${cpt}-1)
variable        zdes equal  -15+0.60*(16-1)
variable        zave equal xcm(H2,z)
fix             mytth2 H2 spring tether ${k1} 2.5 2.5 ${zdes} 0
fix             mytth2 H2 spring tether 1.5 2.5 2.5 ${zdes} 0
fix             mytth2 H2 spring tether 1.5 2.5 2.5 -6 0
run             10000
Generated 0 of 1 mixed pair_coeff terms from geometric mixing rule
Per MPI rank memory allocation (min/avg/max) = 13.32 | 13.76 | 14.98 Mbytes
   Step          Temp          E_pair         E_mol          TotEng         Press     
    920000   285.47802      373.43159      18539.137      19321.028     -139.85588    
    930000   290.37665      372.91838      18566.428      19354.814     -57.383783    
Loop time of 3.22014 on 48 procs for 10000 steps with 481 atoms

Performance: 13.416 ns/day, 1.789 hours/ns, 3105.454 timesteps/s, 1.494 Matom-step/s
100.0% CPU use with 48 MPI tasks x 1 OpenMP threads

MPI task timing breakdown:
Section |  min time  |  avg time  |  max time  |%varavg| %total
---------------------------------------------------------------
Pair    | 0.0033037  | 0.14459    | 1.036      |  61.8 |  4.49
Bond    | 0.0010474  | 0.18361    | 0.9158     |  67.0 |  5.70
Neigh   | 0.0035704  | 0.0040327  | 0.0044578  |   0.4 |  0.13
Comm    | 1.0247     | 2.3731     | 2.9365     |  41.1 | 73.69
Output  | 0.0012012  | 0.0022124  | 0.0032757  |   1.4 |  0.07
Modify  | 0.10858    | 0.4041     | 1.7876     |  86.8 | 12.55
Other   |            | 0.1085     |            |       |  3.37

Nlocal:        10.0208 ave          53 max           0 min
Histogram: 26 8 5 1 1 2 0 2 1 2
Nghost:        1818.35 ave        2347 max        1170 min
Histogram: 8 0 0 0 24 0 0 0 0 16
Neighs:              0 ave           0 max           0 min
Histogram: 48 0 0 0 0 0 0 0 0 0

Total # of neighbors = 0
Ave neighs/atom = 0
Ave special neighs/atom = 15.567568
Neighbor list builds = 11
Dangerous builds = 0
fix             myat1 all ave/time 1000 10 10000 v_zave v_zdes file simulation_data/abpot/${cpt}.dat
fix             myat1 all ave/time 1000 10 10000 v_zave v_zdes file simulation_data/abpot/16.dat
run             50000
Generated 0 of 1 mixed pair_coeff terms from geometric mixing rule
Per MPI rank memory allocation (min/avg/max) = 13.32 | 13.76 | 14.98 Mbytes
   Step          Temp          E_pair         E_mol          TotEng         Press     
    930000   290.37665      372.91838      18566.428      19354.814     -57.383783    
    940000   307.16016      376.69721      18526.469      19342.647     -6.552184     
    950000   308.31166      370.63506      18516.591      19328.355     -117.4664     
    960000   295.27238      375.35115      18504.527      19302.351     -88.497002    
    970000   297.40797      372.08381      18502.086      19299.698     -253.61406    
    980000   317.11034      372.80442      18537.498      19364.02      -164.64899    
Loop time of 16.0581 on 48 procs for 50000 steps with 481 atoms

Performance: 13.451 ns/day, 1.784 hours/ns, 3113.691 timesteps/s, 1.498 Matom-step/s
100.0% CPU use with 48 MPI tasks x 1 OpenMP threads

MPI task timing breakdown:
Section |  min time  |  avg time  |  max time  |%varavg| %total
---------------------------------------------------------------
Pair    | 0.016274   | 0.71934    | 5.25       | 138.7 |  4.48
Bond    | 0.0051734  | 0.91262    | 4.6686     | 149.2 |  5.68
Neigh   | 0.032913   | 0.03715    | 0.04114    |   1.2 |  0.23
Comm    | 4.9075     | 11.818     | 14.647     |  90.7 | 73.60
Output  | 0.0061787  | 0.011449   | 0.016832   |   3.2 |  0.07
Modify  | 0.5502     | 2.0226     | 8.8597     | 191.0 | 12.60
Other   |            | 0.5369     |            |       |  3.34

Nlocal:        10.0208 ave          55 max           0 min
Histogram: 26 9 5 0 1 0 3 3 0 1
Nghost:        1818.35 ave        2347 max        1168 min
Histogram: 8 0 0 0 24 0 0 0 0 16
Neighs:              0 ave           0 max           0 min
Histogram: 48 0 0 0 0 0 0 0 0 0

Total # of neighbors = 0
Ave neighs/atom = 0
Ave special neighs/atom = 15.567568
Neighbor list builds = 102
Dangerous builds = 0
unfix           myat1
next            cpt
jump            SELF loop
variable        zdes equal  -15+0.60*(${cpt}-1)
variable        zdes equal  -15+0.60*(17-1)
variable        zave equal xcm(H2,z)
fix             mytth2 H2 spring tether ${k1} 2.5 2.5 ${zdes} 0
fix             mytth2 H2 spring tether 1.5 2.5 2.5 ${zdes} 0
fix             mytth2 H2 spring tether 1.5 2.5 2.5 -5.4 0
run             10000
Generated 0 of 1 mixed pair_coeff terms from geometric mixing rule
Per MPI rank memory allocation (min/avg/max) = 13.32 | 13.76 | 14.98 Mbytes
   Step          Temp          E_pair         E_mol          TotEng         Press     
    980000   317.11034      372.80442      18537.498      19364.02      -164.64899    
    990000   291.29673      393.91759      18529.955      19340.657      20.702546    
Loop time of 3.27802 on 48 procs for 10000 steps with 481 atoms

Performance: 13.179 ns/day, 1.821 hours/ns, 3050.626 timesteps/s, 1.467 Matom-step/s
100.0% CPU use with 48 MPI tasks x 1 OpenMP threads

MPI task timing breakdown:
Section |  min time  |  avg time  |  max time  |%varavg| %total
---------------------------------------------------------------
Pair    | 0.0032608  | 0.1449     | 1.0066     |  61.0 |  4.42
Bond    | 0.0010297  | 0.1823     | 0.91082    |  66.4 |  5.56
Neigh   | 0.016808   | 0.01881    | 0.020721   |   0.8 |  0.57
Comm    | 1.1389     | 2.3963     | 2.9793     |  40.6 | 73.10
Output  | 0.0012311  | 0.0022189  | 0.003263   |   1.3 |  0.07
Modify  | 0.10929    | 0.42647    | 1.8256     |  86.4 | 13.01
Other   |            | 0.107      |            |       |  3.26

Nlocal:        10.0208 ave          51 max           0 min
Histogram: 26 10 4 0 1 0 1 3 1 2
Nghost:        1818.35 ave        2347 max        1176 min
Histogram: 8 0 0 0 24 0 0 0 0 16
Neighs:              0 ave           0 max           0 min
Histogram: 48 0 0 0 0 0 0 0 0 0

Total # of neighbors = 0
Ave neighs/atom = 0
Ave special neighs/atom = 15.567568
[...]
Section |  min time  |  avg time  |  max time  |%varavg| %total
---------------------------------------------------------------
Pair    | 0.0033051  | 0.14247    | 0.92585    |  60.2 |  4.45
Bond    | 0.0010288  | 0.18246    | 0.9231     |  66.3 |  5.70
Neigh   | 0.0033004  | 0.003716   | 0.0041013  |   0.4 |  0.12
Comm    | 1.1982     | 2.3709     | 2.9186     |  40.4 | 74.08
Output  | 0.0011955  | 0.0021886  | 0.0032258  |   1.4 |  0.07
Modify  | 0.10876    | 0.3916     | 1.7676     |  87.3 | 12.24
Other   |            | 0.1071     |            |       |  3.35

Nlocal:        10.0208 ave          50 max           0 min
Histogram: 23 11 6 0 0 1 1 3 2 1
Nghost:        1818.35 ave        2348 max        1179 min
Histogram: 8 0 0 0 24 0 0 0 0 16
Neighs:              0 ave           0 max           0 min
Histogram: 48 0 0 0 0 0 0 0 0 0

Total # of neighbors = 0
Ave neighs/atom = 0
Ave special neighs/atom = 15.567568
Neighbor list builds = 10
Dangerous builds = 0
fix             myat1 all ave/time 1000 10 10000 v_zave v_zdes file simulation_data/abpot/${cpt}.dat
fix             myat1 all ave/time 1000 10 10000 v_zave v_zdes file simulation_data/abpot/47.dat
run             50000
Generated 0 of 1 mixed pair_coeff terms from geometric mixing rule
Per MPI rank memory allocation (min/avg/max) = 13.32 | 13.79 | 14.98 Mbytes
   Step          Temp          E_pair         E_mol          TotEng         Press     
   2790000   308.14834      380.05759      18524.355      19345.308      107.92962    
   2800000   321.32314      376.4483       18552.738      19388.932     -20.461545    
   2810000   289.24292      363.45236      18558.423      19335.721     -272.03167    
   2820000   291.18779      374.28541      18529.302      19320.216      39.030166    
   2830000   296.57129      380.20301      18529.389      19333.923      118.78954    
   2840000   299.805        379.79531      18518.531      19327.284      238.04123    
Loop time of 15.7973 on 48 procs for 50000 steps with 481 atoms

Performance: 13.673 ns/day, 1.755 hours/ns, 3165.090 timesteps/s, 1.522 Matom-step/s
100.0% CPU use with 48 MPI tasks x 1 OpenMP threads

MPI task timing breakdown:
Section |  min time  |  avg time  |  max time  |%varavg| %total
---------------------------------------------------------------
Pair    | 0.016325   | 0.71289    | 4.5249     | 133.6 |  4.51
Bond    | 0.0051331  | 0.91267    | 4.4445     | 147.7 |  5.78
Neigh   | 0.019748   | 0.0223     | 0.024612   |   0.9 |  0.14
Comm    | 5.9809     | 11.662     | 14.376     |  89.1 | 73.82
Output  | 0.0060201  | 0.011014   | 0.01612    |   3.0 |  0.07
Modify  | 0.55864    | 1.9426     | 8.6638     | 189.8 | 12.30
Other   |            | 0.534      |            |       |  3.38

Nlocal:        10.0208 ave          47 max           0 min
Histogram: 21 13 6 0 0 0 1 3 2 2
Nghost:        1818.35 ave        2347 max        1176 min
Histogram: 8 0 0 0 24 0 0 0 0 16
Neighs:              0 ave           0 max           0 min
Histogram: 48 0 0 0 0 0 0 0 0 0

Total # of neighbors = 0
Ave neighs/atom = 0
Ave special neighs/atom = 15.567568
Neighbor list builds = 60
Dangerous builds = 0
unfix           myat1
next            cpt
jump            SELF loop
variable        zdes equal  -15+0.60*(${cpt}-1)
variable        zdes equal  -15+0.60*(48-1)
variable        zave equal xcm(H2,z)
fix             mytth2 H2 spring tether ${k1} 2.5 2.5 ${zdes} 0
fix             mytth2 H2 spring tether 1.5 2.5 2.5 ${zdes} 0
fix             mytth2 H2 spring tether 1.5 2.5 2.5 13.2 0
run             10000
Generated 0 of 1 mixed pair_coeff terms from geometric mixing rule
Per MPI rank memory allocation (min/avg/max) = 13.32 | 13.79 | 14.98 Mbytes
   Step          Temp          E_pair         E_mol          TotEng         Press     
   2840000   299.805        379.79531      18518.531      19327.284      238.04123    
   2850000   279.7968       371.0057       18509.944      19281.28      -183.42858    
Loop time of 3.06149 on 48 procs for 10000 steps with 481 atoms

Performance: 14.111 ns/day, 1.701 hours/ns, 3266.384 timesteps/s, 1.571 Matom-step/s
100.0% CPU use with 48 MPI tasks x 1 OpenMP threads

MPI task timing breakdown:
Section |  min time  |  avg time  |  max time  |%varavg| %total
---------------------------------------------------------------
Pair    | 0.0032265  | 0.14271    | 0.82438    |  58.8 |  4.66
Bond    | 0.0010384  | 0.1824     | 0.97016    |  66.3 |  5.96
Neigh   | 0.0054035  | 0.0061126  | 0.0067546  |   0.5 |  0.20
Comm    | 1.1717     | 2.2518     | 2.7848     |  38.9 | 73.55
Output  | 0.0011583  | 0.002147   | 0.0031797  |   1.4 |  0.07
Modify  | 0.11379    | 0.36942    | 1.6361     |  81.2 | 12.07
Other   |            | 0.107      |            |       |  3.49

Nlocal:        10.0208 ave          49 max           0 min
Histogram: 25 7 6 2 0 1 1 3 1 2
Nghost:        1818.35 ave        2346 max        1174 min
Histogram: 8 0 0 0 24 0 0 0 0 16
Neighs:              0 ave           0 max           0 min
Histogram: 48 0 0 0 0 0 0 0 0 0

Total # of neighbors = 0
Ave neighs/atom = 0
Ave special neighs/atom = 15.567568
Neighbor list builds = 17
Dangerous builds = 0
fix             myat1 all ave/time 1000 10 10000 v_zave v_zdes file simulation_data/abpot/${cpt}.dat
fix             myat1 all ave/time 1000 10 10000 v_zave v_zdes file simulation_data/abpot/48.dat
run             50000
Generated 0 of 1 mixed pair_coeff terms from geometric mixing rule
Per MPI rank memory allocation (min/avg/max) = 13.32 | 13.79 | 14.98 Mbytes
   Step          Temp          E_pair         E_mol          TotEng         Press     
   2850000   279.7968       371.0057       18509.944      19281.28      -183.42858    
   2860000   286.63156      366.84546      18524.232      19301.187     -111.68274    
   2870000   298.2913       370.50001      18536.076      19333.368     -0.21896835   
   2880000   314.51177      369.34674      18542.304      19361.651      14.319139    
   2890000   295.52686      373.71537      18537.937      19334.489      10.296303    
   2900000   297.91098      368.47395      18522.93       19317.651     -163.2269     
Loop time of 15.7886 on 48 procs for 50000 steps with 481 atoms

Performance: 13.681 ns/day, 1.754 hours/ns, 3166.841 timesteps/s, 1.523 Matom-step/s
100.0% CPU use with 48 MPI tasks x 1 OpenMP threads

MPI task timing breakdown:
Section |  min time  |  avg time  |  max time  |%varavg| %total
---------------------------------------------------------------
Pair    | 0.016386   | 0.71234    | 4.619      | 133.5 |  4.51
Bond    | 0.0051067  | 0.91098    | 4.3206     | 147.1 |  5.77
Neigh   | 0.030648   | 0.034593   | 0.038223   |   1.1 |  0.22
Comm    | 5.7066     | 11.631     | 14.369     |  89.1 | 73.66
Output  | 0.0058439  | 0.010859   | 0.016      |   3.1 |  0.07
Modify  | 0.56114    | 1.955      | 8.6485     | 189.2 | 12.38
Other   |            | 0.5341     |            |       |  3.38

Nlocal:        10.0208 ave          47 max           0 min
Histogram: 26 7 7 0 0 0 1 2 3 2
Nghost:        1818.35 ave        2348 max        1176 min
Histogram: 8 0 0 0 24 0 0 0 0 16
Neighs:              0 ave           0 max           0 min
Histogram: 48 0 0 0 0 0 0 0 0 0

Total # of neighbors = 0
Ave neighs/atom = 0
Ave special neighs/atom = 15.567568
Neighbor list builds = 96
Dangerous builds = 0
unfix           myat1
next            cpt
jump            SELF loop
variable        zdes equal  -15+0.60*(${cpt}-1)
variable        zdes equal  -15+0.60*(49-1)
variable        zave equal xcm(H2,z)
fix             mytth2 H2 spring tether ${k1} 2.5 2.5 ${zdes} 0
fix             mytth2 H2 spring tether 1.5 2.5 2.5 ${zdes} 0
fix             mytth2 H2 spring tether 1.5 2.5 2.5 13.8 0
run             10000
Generated 0 of 1 mixed pair_coeff terms from geometric mixing rule
Per MPI rank memory allocation (min/avg/max) = 13.32 | 13.79 | 14.98 Mbytes
   Step          Temp          E_pair         E_mol          TotEng         Press     
   2900000   297.91098      368.47395      18522.93       19317.651     -163.2269     
   2910000   288.99299      369.65124      18492.238      19275.377     -46.639852    
Loop time of 3.14721 on 48 procs for 10000 steps with 481 atoms

Performance: 13.726 ns/day, 1.748 hours/ns, 3177.418 timesteps/s, 1.528 Matom-step/s
100.0% CPU use with 48 MPI tasks x 1 OpenMP threads

MPI task timing breakdown:
Section |  min time  |  avg time  |  max time  |%varavg| %total
---------------------------------------------------------------
Pair    | 0.0032725  | 0.14233    | 0.88128    |  59.9 |  4.52
Bond    | 0.0010321  | 0.1823     | 0.93856    |  66.2 |  5.79
Neigh   | 0.0061798  | 0.0069363  | 0.0076641  |   0.5 |  0.22
Comm    | 1.163      | 2.3163     | 2.868      |  39.6 | 73.60
Output  | 0.0011833  | 0.0021834  | 0.0032245  |   1.4 |  0.07
Modify  | 0.10713    | 0.39072    | 1.7192     |  83.3 | 12.41
Other   |            | 0.1064     |            |       |  3.38

Nlocal:        10.0208 ave          50 max           0 min
Histogram: 23 9 8 0 0 2 0 3 1 2
Nghost:        1818.35 ave        2348 max        1175 min
Histogram: 8 0 0 0 24 0 0 0 0 16
Neighs:              0 ave           0 max           0 min
Histogram: 48 0 0 0 0 0 0 0 0 0

Total # of neighbors = 0
Ave neighs/atom = 0
Ave special neighs/atom = 15.567568
Neighbor list builds = 19
Dangerous builds = 0
fix             myat1 all ave/time 1000 10 10000 v_zave v_zdes file simulation_data/abpot/${cpt}.dat
fix             myat1 all ave/time 1000 10 10000 v_zave v_zdes file simulation_data/abpot/49.dat
run             50000
Generated 0 of 1 mixed pair_coeff terms from geometric mixing rule
Per MPI rank memory allocation (min/avg/max) = 13.32 | 13.79 | 14.98 Mbytes
   Step          Temp          E_pair         E_mol          TotEng         Press     
   2910000   288.99299      369.65124      18492.238      19275.377     -46.639852    
   2920000   287.58604      373.7995       18555.694      19340.968     -5.2634304    
   2930000   312.64878      384.94802      18516.197      19348.48       241.4097     
   2940000   285.63437      374.12556      18501.41       19284.218      118.29995    
   2950000   293.68106      367.795        18514.793      19302.784     -126.50322    
   2960000   285.84571      370.99917      18549.834      19329.818     -38.570292    
Loop time of 16.09 on 48 procs for 50000 steps with 481 atoms

Performance: 13.424 ns/day, 1.788 hours/ns, 3107.520 timesteps/s, 1.495 Matom-step/s
100.0% CPU use with 48 MPI tasks x 1 OpenMP threads

MPI task timing breakdown:
Section |  min time  |  avg time  |  max time  |%varavg| %total
---------------------------------------------------------------
Pair    | 0.016433   | 0.71268    | 4.439      | 134.0 |  4.43
Bond    | 0.0051881  | 0.9124     | 4.7001     | 147.9 |  5.67
Neigh   | 0.024958   | 0.028068   | 0.030985   |   1.0 |  0.17
Comm    | 6.1126     | 11.865     | 14.692     |  90.3 | 73.74
Output  | 0.0059041  | 0.010876   | 0.015954   |   3.0 |  0.07
Modify  | 0.5398     | 2.0276     | 8.9531     | 193.1 | 12.60
Other   |            | 0.5334     |            |       |  3.31

Nlocal:        10.0208 ave          45 max           0 min
Histogram: 24 8 6 2 0 0 2 0 2 4
Nghost:        1818.35 ave        2347 max        1178 min
Histogram: 8 0 0 0 24 0 0 0 0 16
Neighs:              0 ave           0 max           0 min
Histogram: 48 0 0 0 0 0 0 0 0 0

Total # of neighbors = 0
Ave neighs/atom = 0
Ave special neighs/atom = 15.567568
Neighbor list builds = 75
Dangerous builds = 0
unfix           myat1
next            cpt
jump            SELF loop
variable        zdes equal  -15+0.60*(${cpt}-1)
variable        zdes equal  -15+0.60*(50-1)
variable        zave equal xcm(H2,z)
fix             mytth2 H2 spring tether ${k1} 2.5 2.5 ${zdes} 0
fix             mytth2 H2 spring tether 1.5 2.5 2.5 ${zdes} 0
fix             mytth2 H2 spring tether 1.5 2.5 2.5 14.4 0
run             10000
Generated 0 of 1 mixed pair_coeff terms from geometric mixing rule
Per MPI rank memory allocation (min/avg/max) = 13.32 | 13.79 | 14.98 Mbytes
   Step          Temp          E_pair         E_mol          TotEng         Press     
   2960000   285.84571      370.99917      18549.834      19329.818     -38.570292    
   2970000   294.04269      370.07306      18555.915      19346.701     -100.42575    
Loop time of 3.08722 on 48 procs for 10000 steps with 481 atoms

Performance: 13.993 ns/day, 1.715 hours/ns, 3239.165 timesteps/s, 1.558 Matom-step/s
100.0% CPU use with 48 MPI tasks x 1 OpenMP threads

MPI task timing breakdown:
Section |  min time  |  avg time  |  max time  |%varavg| %total
---------------------------------------------------------------
Pair    | 0.0033275  | 0.1429     | 0.93962    |  60.1 |  4.63
Bond    | 0.0010453  | 0.18295    | 0.87485    |  66.2 |  5.93
Neigh   | 0.0044297  | 0.0050246  | 0.0055566  |   0.5 |  0.16
Comm    | 1.0633     | 2.2705     | 2.8129     |  39.5 | 73.54
Output  | 0.001238   | 0.0022464  | 0.0032821  |   1.4 |  0.07
Modify  | 0.10974    | 0.37664    | 1.6584     |  82.0 | 12.20
Other   |            | 0.107      |            |       |  3.47

Nlocal:        10.0208 ave          48 max           0 min
Histogram: 23 11 5 1 0 1 1 2 2 2
Nghost:        1818.35 ave        2348 max        1176 min
Histogram: 8 0 0 0 24 0 0 0 0 16
Neighs:              0 ave           0 max           0 min
Histogram: 48 0 0 0 0 0 0 0 0 0

Total # of neighbors = 0
Ave neighs/atom = 0
Ave special neighs/atom = 15.567568
Neighbor list builds = 14
Dangerous builds = 0
fix             myat1 all ave/time 1000 10 10000 v_zave v_zdes file simulation_data/abpot/${cpt}.dat
fix             myat1 all ave/time 1000 10 10000 v_zave v_zdes file simulation_data/abpot/50.dat
run             50000
Generated 0 of 1 mixed pair_coeff terms from geometric mixing rule
Per MPI rank memory allocation (min/avg/max) = 13.32 | 13.79 | 14.98 Mbytes
   Step          Temp          E_pair         E_mol          TotEng         Press     
   2970000   294.04269      370.07306      18555.915      19346.701     -100.42575    
   2980000   292.68505      379.91652      18544.257      19342.944      47.029426    
   2990000   286.34601      375.80251      18523.655      19309.158     -20.412923    
   3000000   295.03521      372.93476      18527.251      19322.319      9.0548663    
   3010000   310.79102      368.65988      18552.024      19365.36      -121.03887    
   3020000   324.50756      363.30967      18534.807      19362.418     -204.72765    
Loop time of 15.9658 on 48 procs for 50000 steps with 481 atoms

Performance: 13.529 ns/day, 1.774 hours/ns, 3131.687 timesteps/s, 1.506 Matom-step/s
100.0% CPU use with 48 MPI tasks x 1 OpenMP threads

MPI task timing breakdown:
Section |  min time  |  avg time  |  max time  |%varavg| %total
---------------------------------------------------------------
Pair    | 0.016202   | 0.71155    | 4.463      | 132.5 |  4.46
Bond    | 0.0051336  | 0.91179    | 4.3465     | 147.4 |  5.71
Neigh   | 0.020824   | 0.02349    | 0.02601    |   0.9 |  0.15
Comm    | 6.2716     | 11.765     | 14.482     |  89.5 | 73.69
Output  | 0.0058915  | 0.010861   | 0.01595    |   3.1 |  0.07
Modify  | 0.52875    | 2.0086     | 8.8341     | 191.2 | 12.58
Other   |            | 0.5343     |            |       |  3.35

Nlocal:        10.0208 ave          46 max           0 min
Histogram: 22 15 3 0 0 0 1 3 1 3
Nghost:        1818.35 ave        2348 max        1177 min
Histogram: 8 0 0 0 24 0 0 0 0 16
Neighs:              0 ave           0 max           0 min
Histogram: 48 0 0 0 0 0 0 0 0 0

Total # of neighbors = 0
Ave neighs/atom = 0
Ave special neighs/atom = 15.567568
Neighbor list builds = 64
Dangerous builds = 0
unfix           myat1
next            cpt
jump            SELF loop
variable        zdes equal  -15+0.60*(${cpt}-1)
variable        zdes equal  -15+0.60*(51-1)
variable        zave equal xcm(H2,z)
fix             mytth2 H2 spring tether ${k1} 2.5 2.5 ${zdes} 0
fix             mytth2 H2 spring tether 1.5 2.5 2.5 ${zdes} 0
fix             mytth2 H2 spring tether 1.5 2.5 2.5 15 0
run             10000
Generated 0 of 1 mixed pair_coeff terms from geometric mixing rule
Per MPI rank memory allocation (min/avg/max) = 13.32 | 13.79 | 14.98 Mbytes
   Step          Temp          E_pair         E_mol          TotEng         Press     
   3020000   324.50756      363.30967      18534.807      19362.418     -204.72765    
   3030000   302.08166      375.16013      18520.592      19327.967      67.869594    
Loop time of 3.08321 on 48 procs for 10000 steps with 481 atoms

Performance: 14.011 ns/day, 1.713 hours/ns, 3243.374 timesteps/s, 1.560 Matom-step/s
100.0% CPU use with 48 MPI tasks x 1 OpenMP threads

MPI task timing breakdown:
Section |  min time  |  avg time  |  max time  |%varavg| %total
---------------------------------------------------------------
Pair    | 0.0032729  | 0.14223    | 0.92231    |  59.3 |  4.61
Bond    | 0.0010185  | 0.18228    | 0.88924    |  65.8 |  5.91
Neigh   | 0.0056314  | 0.0063945  | 0.0071013  |   0.5 |  0.21
Comm    | 1.0971     | 2.2621     | 2.8096     |  39.2 | 73.37
Output  | 0.0011819  | 0.0025837  | 0.0040259  |   2.0 |  0.08
Modify  | 0.10752    | 0.38012    | 1.6501     |  81.6 | 12.33
Other   |            | 0.1075     |            |       |  3.49

Nlocal:        10.0208 ave          58 max           0 min
Histogram: 24 14 2 1 0 2 2 2 0 1
Nghost:        1818.35 ave        2347 max        1165 min
Histogram: 8 0 0 0 24 0 0 0 0 16
Neighs:              0 ave           0 max           0 min
Histogram: 48 0 0 0 0 0 0 0 0 0

Total # of neighbors = 0
Ave neighs/atom = 0
Ave special neighs/atom = 15.567568
Neighbor list builds = 18
Dangerous builds = 0
fix             myat1 all ave/time 1000 10 10000 v_zave v_zdes file simulation_data/abpot/${cpt}.dat
fix             myat1 all ave/time 1000 10 10000 v_zave v_zdes file simulation_data/abpot/51.dat
run             50000
Generated 0 of 1 mixed pair_coeff terms from geometric mixing rule
Per MPI rank memory allocation (min/avg/max) = 13.32 | 13.79 | 14.98 Mbytes
   Step          Temp          E_pair         E_mol          TotEng         Press     
   3030000   302.08166      375.16013      18520.592      19327.967      67.869594    
   3040000   301.66192      370.35582      18501.899      19303.869      20.446999    
   3050000   295.9082       367.25874      18536.677      19327.318     -178.56446    
   3060000   306.25395      377.07087      18544.04       19359.296      96.5996      
   3070000   324.56635      376.96595      18511.995      19353.347      20.34341     
   3080000   310.70307      363.4058       18543.335      19351.291     -292.25599    
Loop time of 15.4699 on 48 procs for 50000 steps with 481 atoms

Performance: 13.963 ns/day, 1.719 hours/ns, 3232.083 timesteps/s, 1.555 Matom-step/s
100.0% CPU use with 48 MPI tasks x 1 OpenMP threads

MPI task timing breakdown:
Section |  min time  |  avg time  |  max time  |%varavg| %total
---------------------------------------------------------------
Pair    | 0.016375   | 0.71176    | 4.2348     | 131.5 |  4.60
Bond    | 0.0051343  | 0.91163    | 4.6384     | 147.6 |  5.89
Neigh   | 0.016969   | 0.019279   | 0.021418   |   0.9 |  0.12
Comm    | 6.2034     | 11.358     | 14.061     |  87.4 | 73.42
Output  | 0.0059957  | 0.010953   | 0.01636    |   3.0 |  0.07
Modify  | 0.53458    | 1.9244     | 8.3426     | 182.7 | 12.44
Other   |            | 0.5342     |            |       |  3.45

Nlocal:        10.0208 ave          44 max           0 min
Histogram: 24 7 8 1 0 0 0 3 1 4
Nghost:        1818.35 ave        2348 max        1179 min
Histogram: 8 0 0 0 24 0 0 0 0 16
Neighs:              0 ave           0 max           0 min
Histogram: 48 0 0 0 0 0 0 0 0 0

Total # of neighbors = 0
Ave neighs/atom = 0
Ave special neighs/atom = 15.567568
Neighbor list builds = 54
Dangerous builds = 0
unfix           myat1
next            cpt
jump            SELF loop

Total wall time: 0:16:20
