# --- log file ---

variable pre equal 112 # desired pressure (Atm)
variable tem equal 300 # desired temperature (K)

variable k1 equal 3 # spring constant
variable k2 equal 3.5 # spring constant

units real
atom_style molecular
boundary p p p
neighbor 1.0 bin
neigh_modify delay 3 one 6000
bond_style harmonic
angle_style harmonic
dihedral_style opls
improper_style harmonic
pair_style hybrid lj/cut 14 sg 15 cb 30 # Fluid-fluid interactions have a cutoff of 15 Å, fluid-solid interactions have a cutoff of 30 Å
# *--* C-C parameters *--*
bond_style harmonic
angle_style harmonic
dihedral_style opls
improper_style harmonic
# *--* C-C parameters *--*


# 2. Read the graphite platelet data file and define potentials parameters
read_data       ../geometry/carbonPlatelets/simulation_data/abpot_sys.data  extra/atom/types 1
Reading data file ...
  orthogonal box = (-30 -30 -30) to (30 30 30)
  3 by 4 by 4 MPI processor grid
  reading atoms ...
  480 atoms
  reading velocities ...
  480 velocities
  scanning bonds ...
  2 = max bonds/atom
  scanning angles ...
  3 = max angles/atom
  scanning dihedrals ...
  8 = max dihedrals/atom
  scanning impropers ...
  2 = max impropers/atom
  orthogonal box = (-30 -30 -30) to (30 30 30)
  3 by 4 by 4 MPI processor grid
  reading bonds ...
  676 bonds
  reading angles ...
  1268 angles
  reading dihedrals ...
  2394 dihedrals
  reading impropers ...
  396 impropers
Finding 1-2 1-3 1-4 neighbors ...
  special bond factors lj:    0        0        0       
  special bond factors coul:  0        0        0       
     3 = max # of 1-2 neighbors
     6 = max # of 1-3 neighbors
    18 = max # of 1-4 neighbors
    18 = max # of special neighbors
  special bonds CPU = 0.002 seconds
  read_data CPU = 0.048 seconds
include         PARM.lammps

#////////////////////////////////////////////////////////////////////////////////////////////////////////////////////////////////
#//     Filename: PARM.lammps
#//     File Type: LAMMPS input script
#//     Description: This script defines the parameters for the simulation of hydrogen absorption in graphite platelets.
#//     Author: Edoardo Cabiati
#//     Date: 2024-07-27
#////////////////////////////////////////////////////////////////////////////////////////////////////////////////////////////////

mass 2 2.016 # For now at least, in accordance with the paper by Wang and Johnson,
             # 1998, the hydrogen atoms are regarded as simple spherical atoms

# //////////////////////////////////////    C-C potentials    //////////////////////////////////////
pair_coeff 1 1 lj/cut 0.066 3.4
bond_coeff 1 469 1.4
angle_coeff 1 63 120
dihedral_coeff 1 0 7.25 0 0
improper_coeff 1 5 180
special_bonds lj 0.0 0.0 0.5
Finding 1-2 1-3 1-4 neighbors ...
  special bond factors lj:    0        0        0.5     
  special bond factors coul:  0        0        0       
     3 = max # of 1-2 neighbors
     6 = max # of 1-3 neighbors
    18 = max # of 1-4 neighbors
    18 = max # of special neighbors
  special bonds CPU = 0.001 seconds
# //////////////////////////////////////    C-C potentials    //////////////////////////////////////
# -------------------------------------------------------------------------------------------------
# //////////////////////////////////////    H-H potentials    //////////////////////////////////////
variable alpha equal 1.713          #|
variable sigma equal 1.567          #|
variable gamma equal 0.00993        #|
variable c6 equal 12.14             #|      The parameters are all in atomic units, the conversion to kcal/mol
variable c8 equal 215.2             #|      is performed in the pair_sg.cpp file
variable c9 equal 143.1             #|
variable c10 equal 4813.9           #|
variable rc equal 8.321             #|
pair_coeff 2 2 sg ${alpha} ${sigma} ${gamma} ${c6} ${c8} ${c9} ${c10} ${rc} # H-H potentials
pair_coeff 2 2 sg 1.713 ${sigma} ${gamma} ${c6} ${c8} ${c9} ${c10} ${rc} 
pair_coeff 2 2 sg 1.713 1.567 ${gamma} ${c6} ${c8} ${c9} ${c10} ${rc} 
pair_coeff 2 2 sg 1.713 1.567 0.00993 ${c6} ${c8} ${c9} ${c10} ${rc} 
pair_coeff 2 2 sg 1.713 1.567 0.00993 12.14 ${c8} ${c9} ${c10} ${rc} 
pair_coeff 2 2 sg 1.713 1.567 0.00993 12.14 215.2 ${c9} ${c10} ${rc} 
pair_coeff 2 2 sg 1.713 1.567 0.00993 12.14 215.2 143.1 ${c10} ${rc} 
pair_coeff 2 2 sg 1.713 1.567 0.00993 12.14 215.2 143.1 4813.9 ${rc} 
pair_coeff 2 2 sg 1.713 1.567 0.00993 12.14 215.2 143.1 4813.9 8.321 
#pair_coeff 2 2 sg 1.713 1.567 0.00993 12.14 215.2 143.1 4813.9 8.321 # H-H potentials
# //////////////////////////////////////    H-H potentials    //////////////////////////////////////
# -------------------------------------------------------------------------------------------------
# //////////////////////////////////////    C-H potentials    //////////////////////////////////////
variable sigma_CC equal 3.43 # Å
variable sigma_HH equal 3.075 # Å
variable sigma_CH_geo equal sqrt(${sigma_CC}*${sigma_HH}) # Å
variable sigma_CH_geo equal sqrt(3.43*${sigma_HH}) 
variable sigma_CH_geo equal sqrt(3.43*3.075) 
variable sigma_CH_arit equal 0.5*(${sigma_CC}+${sigma_HH}) # Å
variable sigma_CH_arit equal 0.5*(3.43+${sigma_HH}) 
variable sigma_CH_arit equal 0.5*(3.43+3.075) 

variable P_par equal 0.57 # Å^3
variable P_perp equal 1.995 # Å^3
variable P_h equal 0.81 # Å^3
variable E_h equal 2.337e5*(1/503.23) # K * 1/503.23 kcal/mol/K = kcal/mol
variable E_c equal 1.39254e5*(1/503.23) # K * 1/503.23 kcal/mol/K = kcal/mol

variable epsilon equal 4*v_E_h*v_E_c*v_P_h*(v_P_par+v_P_perp/2)/(v_sigma_CH_geo^6*(v_E_h+v_E_c)) # kcal/mol

pair_coeff 1 2 cb ${epsilon} ${sigma_CH_geo} ${P_par} ${P_perp} # C-H potential
pair_coeff 1 2 cb 0.750549668586509 ${sigma_CH_geo} ${P_par} ${P_perp} 
pair_coeff 1 2 cb 0.750549668586509 3.24765299870537 ${P_par} ${P_perp} 
pair_coeff 1 2 cb 0.750549668586509 3.24765299870537 0.57 ${P_perp} 
pair_coeff 1 2 cb 0.750549668586509 3.24765299870537 0.57 1.995 
#pair_coeff 1 2 lj/cut 0.3025 2.065
# //////////////////////////////////////    C-H potentials    //////////////////////////////////////

# 3. Add a single hydrogen molecule to the system, close to the center of the first platelet
create_atoms    2 single 0 0 -2
Created 1 atoms
  using lattice units in orthogonal box = (-30 -30 -30) to (30 30 30)
  create_atoms CPU = 0.000 seconds

group           C type 1
480 atoms in group C
group           H2 type 2
1 atoms in group H2

# 4. Equilibration
timestep        0.05
fix             mytth1 C spring/self ${k2} # Apply a spring force to the carbon atoms
fix             mytth1 C spring/self 3.5 
velocity        all create ${tem} 48 rot yes mom yes dist gaussian # Initialize velocities
velocity        all create 300 48 rot yes mom yes dist gaussian 
fix             mynpt all npt temp ${tem} ${tem} 100 x ${pre} ${pre} 1000 y ${pre} ${pre} 1000 # Apply NPT ensemble to the system
fix             mynpt all npt temp 300 ${tem} 100 x ${pre} ${pre} 1000 y ${pre} ${pre} 1000 
fix             mynpt all npt temp 300 300 100 x ${pre} ${pre} 1000 y ${pre} ${pre} 1000 
fix             mynpt all npt temp 300 300 100 x 112 ${pre} 1000 y ${pre} ${pre} 1000 
fix             mynpt all npt temp 300 300 100 x 112 112 1000 y ${pre} ${pre} 1000 
fix             mynpt all npt temp 300 300 100 x 112 112 1000 y 112 ${pre} 1000 
fix             mynpt all npt temp 300 300 100 x 112 112 1000 y 112 112 1000 

thermo          10000
dump            dump all atom 1000 simulation_data/absorption_pot.lammpstrj

run             20000

CITE-CITE-CITE-CITE-CITE-CITE-CITE-CITE-CITE-CITE-CITE-CITE-CITE

Your simulation uses code contributions which should be cited:

- Type Label Framework: https://doi.org/10.1021/acs.jpcb.3c08419

@Article{Gissinger24,
 author = {Jacob R. Gissinger, Ilia Nikiforov, Yaser Afshar, Brendon Waters, Moon-ki Choi, Daniel S. Karls, Alexander Stukowski, Wonpil Im, Hendrik Heinz, Axel Kohlmeyer, and Ellad B. Tadmor},
 title = {Type Label Framework for Bonded Force Fields in LAMMPS},
 journal = {J. Phys. Chem. B},
 year =    2024,
 volume =  128,
 number =  13,
 pages =   {3282–-3297}
}

CITE-CITE-CITE-CITE-CITE-CITE-CITE-CITE-CITE-CITE-CITE-CITE-CITE

Generated 0 of 1 mixed pair_coeff terms from geometric mixing rule
Neighbor list info ...
  update: every = 1 steps, delay = 3 steps, check = yes
  max neighbors/atom: 6000, page size: 100000
  master list distance cutoff = 31
  ghost atom cutoff = 31
  binsize = 15.5, bins = 4 4 4
  4 neighbor lists, perpetual/occasional/extra = 4 0 0
  (1) pair lj/cut, perpetual, skip trim from (4)
      attributes: half, newton on, cut 15
      pair build: skip/trim
      stencil: none
      bin: none
  (2) pair sg, perpetual, skip trim from (4)
      attributes: half, newton on, cut 16
      pair build: skip/trim
      stencil: none
      bin: none
  (3) pair cb, perpetual, skip from (4)
      attributes: half, newton on
      pair build: skip
      stencil: none
      bin: none
  (4) neighbor class addition, perpetual
      attributes: half, newton on
      pair build: half/bin/newton
      stencil: half/bin/3d
      bin: standard
Per MPI rank memory allocation (min/avg/max) = 13.28 | 13.37 | 13.93 Mbytes
   Step          Temp          E_pair         E_mol          TotEng         Press          Volume    
         0   300            308.43814      19603.922      20341.597     -432.48369      216000       
     10000   308.72719      373.58236      18568.419      19383.724     -313.9945       172136.64    
     20000   322.02648      371.05675      18538.378      19370.187     -418.66256      126544.33    
Loop time of 7.58957 on 48 procs for 20000 steps with 481 atoms

Performance: 11.384 ns/day, 2.108 hours/ns, 2635.194 timesteps/s, 1.268 Matom-step/s
99.7% CPU use with 48 MPI tasks x 1 OpenMP threads

MPI task timing breakdown:
Section |  min time  |  avg time  |  max time  |%varavg| %total
---------------------------------------------------------------
Pair    | 0.12646    | 0.45583    | 2.2307     |  74.4 |  6.01
Bond    | 0.0039538  | 0.42347    | 2.235      | 112.4 |  5.58
Neigh   | 0.01905    | 0.021389   | 0.023878   |   0.9 |  0.28
Comm    | 2.2411     | 4.3938     | 6.2403     |  65.8 | 57.89
Output  | 0.0033495  | 0.008386   | 0.014005   |   3.9 |  0.11
Modify  | 0.66642    | 2.0193     | 4.3843     | 102.8 | 26.61
Other   |            | 0.2674     |            |       |  3.52

Nlocal:        10.0208 ave          42 max           0 min
Histogram: 21 4 10 5 0 1 0 3 3 1
Nghost:        1907.85 ave        2370 max        1332 min
Histogram: 8 0 0 0 24 0 0 0 0 16
Neighs:              0 ave           0 max           0 min
Histogram: 48 0 0 0 0 0 0 0 0 0

Total # of neighbors = 0
Ave neighs/atom = 0
Ave special neighs/atom = 15.567568
Neighbor list builds = 55
Dangerous builds = 0
unfix           mynpt
unfix           mytth1

# 5. Umbrella sampling
fix             mynvt all nvt temp ${tem} ${tem} 100
fix             mynvt all nvt temp 300 ${tem} 100
fix             mynvt all nvt temp 300 300 100
fix             mytth1 C spring/self ${k2}
fix             mytth1 C spring/self 3.5

variable        cpt loop 51
label           loop
variable        zdes equal  -15+0.60*(${cpt}-1)
variable        zdes equal  -15+0.60*(1-1)
variable        zave equal xcm(H2,z)
fix             mytth2 H2 spring tether ${k1} 2.5 2.5 ${zdes} 0
fix             mytth2 H2 spring tether 3 2.5 2.5 ${zdes} 0
fix             mytth2 H2 spring tether 3 2.5 2.5 -15 0
run             10000
Generated 0 of 1 mixed pair_coeff terms from geometric mixing rule
Per MPI rank memory allocation (min/avg/max) = 13.32 | 13.74 | 14.98 Mbytes
   Step          Temp          E_pair         E_mol          TotEng         Press     
     20000   322.02648      371.05675      18538.378      19370.187     -418.66256    
     30000   282.18434      336.15194      18590.804      19330.702     -1186.0714    
Loop time of 3.07233 on 48 procs for 10000 steps with 481 atoms

Performance: 14.061 ns/day, 1.707 hours/ns, 3254.863 timesteps/s, 1.566 Matom-step/s
100.0% CPU use with 48 MPI tasks x 1 OpenMP threads

MPI task timing breakdown:
Section |  min time  |  avg time  |  max time  |%varavg| %total
---------------------------------------------------------------
Pair    | 0.0034712  | 0.14509    | 0.78905    |  54.3 |  4.72
Bond    | 0.0010213  | 0.18288    | 0.77485    |  56.0 |  5.95
Neigh   | 0.03525    | 0.037776   | 0.04056    |   0.7 |  1.23
Comm    | 1.2317     | 2.2524     | 2.7704     |  33.0 | 73.31
Output  | 0.0011756  | 0.002957   | 0.0049109  |   2.2 |  0.10
Modify  | 0.10775    | 0.34635    | 1.3721     |  74.2 | 11.27
Other   |            | 0.1049     |            |       |  3.41

Nlocal:        10.0208 ave          38 max           0 min
Histogram: 21 3 9 6 1 0 2 0 1 5
Nghost:        1911.35 ave        2376 max        1335 min
Histogram: 8 0 0 0 24 0 0 0 0 16
Neighs:              0 ave           0 max           0 min
Histogram: 48 0 0 0 0 0 0 0 0 0

Total # of neighbors = 0
Ave neighs/atom = 0
Ave special neighs/atom = 15.567568
Neighbor list builds = 106
Dangerous builds = 0
fix             myat1 all ave/time 1000 10 10000 v_zave v_zdes file simulation_data/abpot/${cpt}.dat
fix             myat1 all ave/time 1000 10 10000 v_zave v_zdes file simulation_data/abpot/1.dat
run             50000
Generated 0 of 1 mixed pair_coeff terms from geometric mixing rule
Per MPI rank memory allocation (min/avg/max) = 13.32 | 13.78 | 14.98 Mbytes
   Step          Temp          E_pair         E_mol          TotEng         Press     
     30000   282.18434      336.15194      18590.804      19330.702     -1186.0714    
     40000   289.75931      394.86213      18545.139      19354.586      325.18573    
     50000   304.34573      380.07361      18582.436      19397.964     -15.073091    
     60000   314.92361      363.0886       18589.944      19403.622     -274.37588    
     70000   300.15219      374.47823      18570.829      19374.762     -83.755426    
     80000   295.66431      382.61902      18547.387      19353.039      66.093556    
Loop time of 14.6945 on 48 procs for 50000 steps with 481 atoms

Performance: 14.699 ns/day, 1.633 hours/ns, 3402.632 timesteps/s, 1.637 Matom-step/s
100.0% CPU use with 48 MPI tasks x 1 OpenMP threads

MPI task timing breakdown:
Section |  min time  |  avg time  |  max time  |%varavg| %total
---------------------------------------------------------------
Pair    | 0.017061   | 0.7199     | 3.705      | 120.2 |  4.90
Bond    | 0.0051408  | 0.91426    | 3.6843     | 124.9 |  6.22
Neigh   | 0.043665   | 0.046981   | 0.050742   |   0.8 |  0.32
Comm    | 6.1521     | 10.833     | 13.275     |  72.4 | 73.72
Output  | 0.0056206  | 0.012842   | 0.020444   |   4.2 |  0.09
Modify  | 0.52146    | 1.6406     | 6.2885     | 158.0 | 11.16
Other   |            | 0.5265     |            |       |  3.58

Nlocal:        10.0208 ave          41 max           0 min
Histogram: 21 4 9 6 0 0 3 1 1 3
Nghost:         1925.6 ave        2409 max        1332 min
Histogram: 8 0 0 0 24 0 0 0 0 16
Neighs:              0 ave           0 max           0 min
Histogram: 48 0 0 0 0 0 0 0 0 0

Total # of neighbors = 0
Ave neighs/atom = 0
Ave special neighs/atom = 15.567568
Neighbor list builds = 131
Dangerous builds = 0
unfix           myat1
next            cpt
jump            SELF loop
variable        zdes equal  -15+0.60*(${cpt}-1)
variable        zdes equal  -15+0.60*(2-1)
variable        zave equal xcm(H2,z)
fix             mytth2 H2 spring tether ${k1} 2.5 2.5 ${zdes} 0
fix             mytth2 H2 spring tether 3 2.5 2.5 ${zdes} 0
fix             mytth2 H2 spring tether 3 2.5 2.5 -14.4 0
run             10000
Generated 0 of 1 mixed pair_coeff terms from geometric mixing rule
Per MPI rank memory allocation (min/avg/max) = 13.32 | 13.84 | 14.98 Mbytes
   Step          Temp          E_pair         E_mol          TotEng         Press     
     80000   295.66431      382.61902      18547.387      19353.039      66.093556    
     90000   291.22379      377.96123      18556.841      19351.482      34.370939    
Loop time of 2.93496 on 48 procs for 10000 steps with 481 atoms

Performance: 14.719 ns/day, 1.631 hours/ns, 3407.206 timesteps/s, 1.639 Matom-step/s
100.0% CPU use with 48 MPI tasks x 1 OpenMP threads

MPI task timing breakdown:
Section |  min time  |  avg time  |  max time  |%varavg| %total
---------------------------------------------------------------
Pair    | 0.0033853  | 0.14371    | 0.79118    |  53.9 |  4.90
Bond    | 0.001026   | 0.18251    | 0.76255    |  55.9 |  6.22
Neigh   | 0.0035883  | 0.0038891  | 0.004218   |   0.3 |  0.13
Comm    | 1.1579     | 2.1711     | 2.673      |  32.5 | 73.97
Output  | 0.0010846  | 0.0022558  | 0.0035032  |   1.6 |  0.08
Modify  | 0.10348    | 0.32643    | 1.2625     |  71.7 | 11.12
Other   |            | 0.105      |            |       |  3.58

Nlocal:        10.0208 ave          40 max           0 min
Histogram: 20 4 9 7 0 0 1 2 2 3
Nghost:        1926.98 ave        2411 max        1333 min
Histogram: 8 0 0 0 24 0 0 0 0 16
Neighs:              0 ave           0 max           0 min
Histogram: 48 0 0 0 0 0 0 0 0 0

Total # of neighbors = 0
Ave neighs/atom = 0
Ave special neighs/atom = 15.567568
Neighbor list builds = 11
Dangerous builds = 0
fix             myat1 all ave/time 1000 10 10000 v_zave v_zdes file simulation_data/abpot/${cpt}.dat
fix             myat1 all ave/time 1000 10 10000 v_zave v_zdes file simulation_data/abpot/2.dat
run             50000
Generated 0 of 1 mixed pair_coeff terms from geometric mixing rule
Per MPI rank memory allocation (min/avg/max) = 13.32 | 13.84 | 14.98 Mbytes
   Step          Temp          E_pair         E_mol          TotEng         Press     
     90000   291.22379      377.96123      18556.841      19351.482      34.370939    
    100000   299.11148      372.39903      18579.134      19379.499     -192.41913    
    110000   298.87181      372.84704      18561.762      19362.231     -39.876728    
    120000   280.20408      373.76662      18568.918      19343.597     -145.13291    
    130000   288.82576      376.77955      18524.197      19314.225      15.255314    
    140000   309.55534      372.55284      18559.171      19374.633     -54.347676    
Loop time of 14.8126 on 48 procs for 50000 steps with 481 atoms

Performance: 14.582 ns/day, 1.646 hours/ns, 3375.507 timesteps/s, 1.624 Matom-step/s
100.0% CPU use with 48 MPI tasks x 1 OpenMP threads

MPI task timing breakdown:
Section |  min time  |  avg time  |  max time  |%varavg| %total
---------------------------------------------------------------
Pair    | 0.016989   | 0.71668    | 3.7889     | 119.9 |  4.84
Bond    | 0.0051442  | 0.91315    | 3.9082     | 124.9 |  6.16
Neigh   | 0.022973   | 0.024757   | 0.026836   |   0.7 |  0.17
Comm    | 6.0771     | 10.978     | 13.48      |  72.6 | 74.11
Output  | 0.0054105  | 0.01091    | 0.01677    |   3.3 |  0.07
Modify  | 0.51083    | 1.645      | 6.4642     | 161.6 | 11.11
Other   |            | 0.524      |            |       |  3.54

Nlocal:        10.0208 ave          39 max           0 min
Histogram: 20 6 6 8 0 0 0 3 3 2
Nghost:         1930.1 ave        2414 max        1334 min
Histogram: 8 0 0 0 24 0 0 0 0 16
Neighs:              0 ave           0 max           0 min
Histogram: 48 0 0 0 0 0 0 0 0 0

Total # of neighbors = 0
Ave neighs/atom = 0
Ave special neighs/atom = 15.567568
Neighbor list builds = 69
Dangerous builds = 0
unfix           myat1
next            cpt
jump            SELF loop
variable        zdes equal  -15+0.60*(${cpt}-1)
variable        zdes equal  -15+0.60*(3-1)
variable        zave equal xcm(H2,z)
fix             mytth2 H2 spring tether ${k1} 2.5 2.5 ${zdes} 0
fix             mytth2 H2 spring tether 3 2.5 2.5 ${zdes} 0
fix             mytth2 H2 spring tether 3 2.5 2.5 -13.8 0
run             10000
Generated 0 of 1 mixed pair_coeff terms from geometric mixing rule
Per MPI rank memory allocation (min/avg/max) = 13.32 | 13.85 | 14.98 Mbytes
   Step          Temp          E_pair         E_mol          TotEng         Press     
    140000   309.55534      372.55284      18559.171      19374.633     -54.347676    
    150000   302.33587      368.05438      18545.246      19345.879     -225.96261    
Loop time of 2.91891 on 48 procs for 10000 steps with 481 atoms

Performance: 14.800 ns/day, 1.622 hours/ns, 3425.939 timesteps/s, 1.648 Matom-step/s
100.0% CPU use with 48 MPI tasks x 1 OpenMP threads

MPI task timing breakdown:
Section |  min time  |  avg time  |  max time  |%varavg| %total
---------------------------------------------------------------
Pair    | 0.0033581  | 0.14332    | 0.74782    |  53.8 |  4.91
Bond    | 0.0010213  | 0.18239    | 0.76856    |  56.0 |  6.25
Neigh   | 0.0039356  | 0.0042715  | 0.004642   |   0.3 |  0.15
Comm    | 1.1844     | 2.1483     | 2.6391     |  31.6 | 73.60
Output  | 0.0010825  | 0.0021478  | 0.0033373  |   1.5 |  0.07
Modify  | 0.10833    | 0.33341    | 1.2572     |  68.0 | 11.42
Other   |            | 0.1051     |            |       |  3.60

Nlocal:        10.0208 ave          40 max           0 min
Histogram: 18 7 7 8 0 0 0 3 3 2
Nghost:        1931.48 ave        2413 max        1333 min
Histogram: 8 0 0 0 24 0 0 0 0 16
Neighs:              0 ave           0 max           0 min
Histogram: 48 0 0 0 0 0 0 0 0 0

Total # of neighbors = 0
Ave neighs/atom = 0
Ave special neighs/atom = 15.567568
Neighbor list builds = 12
Dangerous builds = 0
fix             myat1 all ave/time 1000 10 10000 v_zave v_zdes file simulation_data/abpot/${cpt}.dat
fix             myat1 all ave/time 1000 10 10000 v_zave v_zdes file simulation_data/abpot/3.dat
run             50000
Generated 0 of 1 mixed pair_coeff terms from geometric mixing rule
Per MPI rank memory allocation (min/avg/max) = 13.32 | 13.85 | 14.98 Mbytes
   Step          Temp          E_pair         E_mol          TotEng         Press     
    150000   302.33587      368.05438      18545.246      19345.879     -225.96261    
    160000   312.1333       377.91167      18536.681      19361.19       120.39613    
    170000   307.37245      376.92186      18567.167      19383.874     -10.853362    
    180000   294.40973      365.0287       18545.768      19332.035     -305.61671    
    190000   303.97127      375.56218      18562.379      19372.86      -107.25947    
    200000   317.62089      374.42952      18547.555      19376.433     -62.851616    
Loop time of 15.2811 on 48 procs for 50000 steps with 481 atoms

Performance: 14.135 ns/day, 1.698 hours/ns, 3272.025 timesteps/s, 1.574 Matom-step/s
100.0% CPU use with 48 MPI tasks x 1 OpenMP threads

MPI task timing breakdown:
Section |  min time  |  avg time  |  max time  |%varavg| %total
---------------------------------------------------------------
Pair    | 0.017001   | 0.71727    | 3.681      | 120.2 |  4.69
Bond    | 0.0051203  | 0.91337    | 4.0525     | 125.4 |  5.98
Neigh   | 0.025757   | 0.027751   | 0.029976   |   0.6 |  0.18
Comm    | 6.4218     | 11.358     | 13.924     |  74.8 | 74.33
Output  | 0.0054737  | 0.010686   | 0.015782   |   3.2 |  0.07
Modify  | 0.50775    | 1.7303     | 6.8887     | 171.4 | 11.32
Other   |            | 0.5234     |            |       |  3.43

Nlocal:        10.0208 ave          38 max           0 min
Histogram: 20 4 9 7 0 0 0 3 1 4
Nghost:         1929.6 ave        2413 max        1335 min
Histogram: 8 0 0 0 24 0 0 0 0 16
Neighs:              0 ave           0 max           0 min
Histogram: 48 0 0 0 0 0 0 0 0 0

Total # of neighbors = 0
Ave neighs/atom = 0
Ave special neighs/atom = 15.567568
Neighbor list builds = 75
Dangerous builds = 0
unfix           myat1
next            cpt
jump            SELF loop
variable        zdes equal  -15+0.60*(${cpt}-1)
variable        zdes equal  -15+0.60*(4-1)
variable        zave equal xcm(H2,z)
fix             mytth2 H2 spring tether ${k1} 2.5 2.5 ${zdes} 0
fix             mytth2 H2 spring tether 3 2.5 2.5 ${zdes} 0
fix             mytth2 H2 spring tether 3 2.5 2.5 -13.2 0
run             10000
Generated 0 of 1 mixed pair_coeff terms from geometric mixing rule
Per MPI rank memory allocation (min/avg/max) = 13.32 | 13.85 | 14.98 Mbytes
   Step          Temp          E_pair         E_mol          TotEng         Press     
    200000   317.62089      374.42952      18547.555      19376.433     -62.851616    
    210000   318.21395      368.6512       18548.808      19372.756     -201.52536    
Loop time of 2.99402 on 48 procs for 10000 steps with 481 atoms

Performance: 14.429 ns/day, 1.663 hours/ns, 3339.994 timesteps/s, 1.607 Matom-step/s
99.9% CPU use with 48 MPI tasks x 1 OpenMP threads

MPI task timing breakdown:
Section |  min time  |  avg time  |  max time  |%varavg| %total
---------------------------------------------------------------
Pair    | 0.0034001  | 0.14358    | 0.74254    |  53.5 |  4.80
Bond    | 0.0010257  | 0.18241    | 0.84415    |  56.2 |  6.09
Neigh   | 0.0056265  | 0.0060342  | 0.006499   |   0.3 |  0.20
Comm    | 1.184      | 2.2193     | 2.7277     |  33.1 | 74.13
Output  | 0.0010716  | 0.0020903  | 0.0031254  |   1.4 |  0.07
Modify  | 0.10178    | 0.33596    | 1.3315     |  74.8 | 11.22
Other   |            | 0.1046     |            |       |  3.49

Nlocal:        10.0208 ave          36 max           0 min
Histogram: 19 7 6 6 2 0 0 0 3 5
Nghost:        1938.85 ave        2421 max        1337 min
Histogram: 8 0 0 0 24 0 0 0 0 16
Neighs:              0 ave           0 max           0 min
Histogram: 48 0 0 0 0 0 0 0 0 0

Total # of neighbors = 0
Ave neighs/atom = 0
Ave special neighs/atom = 15.567568
Neighbor list builds = 17
Dangerous builds = 0
fix             myat1 all ave/time 1000 10 10000 v_zave v_zdes file simulation_data/abpot/${cpt}.dat
fix             myat1 all ave/time 1000 10 10000 v_zave v_zdes file simulation_data/abpot/4.dat
run             50000
Generated 0 of 1 mixed pair_coeff terms from geometric mixing rule
Per MPI rank memory allocation (min/avg/max) = 13.32 | 13.85 | 14.98 Mbytes
   Step          Temp          E_pair         E_mol          TotEng         Press     
    210000   318.21395      368.6512       18548.808      19372.756     -201.52536    
    220000   283.6896       375.30661      18557.897      19339.103     -68.372261    
    230000   296.50604      373.03186      18518.548      19315.817     -238.29412    
    240000   286.51764      382.11629      18550.347      19342.41       20.294379    
    250000   322.70932      377.07688      18541.002      19379.808     -46.915631    
    260000   307.36895      368.74918      18567.941      19376.47      -250.30778    
Loop time of 14.9228 on 48 procs for 50000 steps with 481 atoms

Performance: 14.475 ns/day, 1.658 hours/ns, 3350.588 timesteps/s, 1.612 Matom-step/s
100.0% CPU use with 48 MPI tasks x 1 OpenMP threads

MPI task timing breakdown:
Section |  min time  |  avg time  |  max time  |%varavg| %total
---------------------------------------------------------------
Pair    | 0.016944   | 0.71829    | 3.6405     | 119.3 |  4.81
Bond    | 0.0051421  | 0.91255    | 4.086      | 125.2 |  6.12
Neigh   | 0.018512   | 0.019957   | 0.021511   |   0.5 |  0.13
Comm    | 6.0313     | 11.062     | 13.563     |  73.1 | 74.13
Output  | 0.005431   | 0.010551   | 0.015934   |   3.1 |  0.07
Modify  | 0.5105     | 1.6758     | 6.5108     | 164.3 | 11.23
Other   |            | 0.5236     |            |       |  3.51

Nlocal:        10.0208 ave          40 max           0 min
Histogram: 19 6 7 8 0 0 0 3 3 2
Nghost:        1926.23 ave        2405 max        1333 min
Histogram: 8 0 0 0 24 0 0 0 0 16
Neighs:              0 ave           0 max           0 min
Histogram: 48 0 0 0 0 0 0 0 0 0

Total # of neighbors = 0
Ave neighs/atom = 0
Ave special neighs/atom = 15.567568
Neighbor list builds = 55
Dangerous builds = 0
unfix           myat1
next            cpt
jump            SELF loop
variable        zdes equal  -15+0.60*(${cpt}-1)
variable        zdes equal  -15+0.60*(5-1)
variable        zave equal xcm(H2,z)
fix             mytth2 H2 spring tether ${k1} 2.5 2.5 ${zdes} 0
fix             mytth2 H2 spring tether 3 2.5 2.5 ${zdes} 0
fix             mytth2 H2 spring tether 3 2.5 2.5 -12.6 0
run             10000
Generated 0 of 1 mixed pair_coeff terms from geometric mixing rule
Per MPI rank memory allocation (min/avg/max) = 13.32 | 13.85 | 14.98 Mbytes
   Step          Temp          E_pair         E_mol          TotEng         Press     
    260000   307.36895      368.74918      18567.941      19376.47      -250.30778    
    270000   304.52906      363.20688      18535.023      19333.947     -299.67666    
Loop time of 2.95478 on 48 procs for 10000 steps with 481 atoms

Performance: 14.620 ns/day, 1.642 hours/ns, 3384.351 timesteps/s, 1.628 Matom-step/s
100.0% CPU use with 48 MPI tasks x 1 OpenMP threads

MPI task timing breakdown:
Section |  min time  |  avg time  |  max time  |%varavg| %total
---------------------------------------------------------------
Pair    | 0.0034153  | 0.14371    | 0.76888    |  53.6 |  4.86
Bond    | 0.0010262  | 0.18253    | 0.7906     |  55.9 |  6.18
Neigh   | 0.0039951  | 0.0043122  | 0.0046338  |   0.3 |  0.15
Comm    | 1.1588     | 2.19       | 2.6869     |  32.5 | 74.12
Output  | 0.0010438  | 0.0020544  | 0.0031741  |   1.4 |  0.07
Modify  | 0.10346    | 0.32761    | 1.2789     |  72.1 | 11.09
Other   |            | 0.1046     |            |       |  3.54

Nlocal:        10.0208 ave          46 max           0 min
Histogram: 20 10 7 3 0 1 3 2 1 1
Nghost:        1924.35 ave        2406 max        1327 min
Histogram: 8 0 0 0 24 0 0 0 0 16
Neighs:              0 ave           0 max           0 min
Histogram: 48 0 0 0 0 0 0 0 0 0

Total # of neighbors = 0
Ave neighs/atom = 0
Ave special neighs/atom = 15.567568
Neighbor list builds = 12
Dangerous builds = 0
fix             myat1 all ave/time 1000 10 10000 v_zave v_zdes file simulation_data/abpot/${cpt}.dat
fix             myat1 all ave/time 1000 10 10000 v_zave v_zdes file simulation_data/abpot/5.dat
run             50000
Generated 0 of 1 mixed pair_coeff terms from geometric mixing rule
Per MPI rank memory allocation (min/avg/max) = 13.32 | 13.85 | 14.98 Mbytes
   Step          Temp          E_pair         E_mol          TotEng         Press     
    270000   304.52906      363.20688      18535.023      19333.947     -299.67666    
    280000   286.14594      375.73788      18541.479      19326.631     -177.85925    
    290000   287.61975      380.66083      18511.585      19303.769      177.4361     
    300000   289.39124      371.60836      18509.612      19295.278     -149.26636    
    310000   290.70609      367.647        18568.464      19352.05      -309.33441    
    320000   294.2033       379.97787      18519.105      19320.025      105.20561    
Loop time of 14.8621 on 48 procs for 50000 steps with 481 atoms

Performance: 14.534 ns/day, 1.651 hours/ns, 3364.267 timesteps/s, 1.618 Matom-step/s
100.0% CPU use with 48 MPI tasks x 1 OpenMP threads

MPI task timing breakdown:
Section |  min time  |  avg time  |  max time  |%varavg| %total
---------------------------------------------------------------
Pair    | 0.017198   | 0.71966    | 4.0082     | 121.1 |  4.84
Bond    | 0.0051386  | 0.91387    | 4.0185     | 125.5 |  6.15
Neigh   | 0.034517   | 0.037081   | 0.040048   |   0.7 |  0.25
Comm    | 5.5046     | 11.002     | 13.482     |  72.7 | 74.03
Output  | 0.0054116  | 0.0105     | 0.015715   |   3.1 |  0.07
Modify  | 0.50429    | 1.6553     | 6.378      | 160.8 | 11.14
Other   |            | 0.5234     |            |       |  3.52

Nlocal:        10.0208 ave          39 max           0 min
Histogram: 20 6 6 6 2 0 1 2 3 2
Nghost:        1933.75 ave        2416 max        1338 min
Histogram: 8 0 0 0 24 0 0 0 0 16
Neighs:              0 ave           0 max           0 min
Histogram: 48 0 0 0 0 0 0 0 0 0

Total # of neighbors = 0
Ave neighs/atom = 0
Ave special neighs/atom = 15.567568
Neighbor list builds = 102
Dangerous builds = 0
unfix           myat1
next            cpt
jump            SELF loop
variable        zdes equal  -15+0.60*(${cpt}-1)
variable        zdes equal  -15+0.60*(6-1)
variable        zave equal xcm(H2,z)
fix             mytth2 H2 spring tether ${k1} 2.5 2.5 ${zdes} 0
fix             mytth2 H2 spring tether 3 2.5 2.5 ${zdes} 0
fix             mytth2 H2 spring tether 3 2.5 2.5 -12 0
run             10000
Generated 0 of 1 mixed pair_coeff terms from geometric mixing rule
Per MPI rank memory allocation (min/avg/max) = 13.32 | 13.86 | 14.98 Mbytes
   Step          Temp          E_pair         E_mol          TotEng         Press     
    320000   294.2033       379.97787      18519.105      19320.025      105.20561    
    330000   297.51498      368.50699      18534.817      19329.005     -200.46729    
Loop time of 2.96197 on 48 procs for 10000 steps with 481 atoms

Performance: 14.585 ns/day, 1.646 hours/ns, 3376.136 timesteps/s, 1.624 Matom-step/s
100.0% CPU use with 48 MPI tasks x 1 OpenMP threads

MPI task timing breakdown:
Section |  min time  |  avg time  |  max time  |%varavg| %total
---------------------------------------------------------------
Pair    | 0.0034227  | 0.14431    | 0.77786    |  54.1 |  4.87
Bond    | 0.0010217  | 0.18259    | 0.81476    |  56.0 |  6.16
Neigh   | 0.0085089  | 0.0091397  | 0.009877   |   0.4 |  0.31
Comm    | 1.1652     | 2.1896     | 2.6941     |  32.4 | 73.92
Output  | 0.0011219  | 0.0021382  | 0.0031593  |   1.4 |  0.07
Modify  | 0.10401    | 0.32905    | 1.2648     |  71.1 | 11.11
Other   |            | 0.1051     |            |       |  3.55

Nlocal:        10.0208 ave          42 max           0 min
Histogram: 20 7 9 3 1 1 1 3 1 2
Nghost:        1927.38 ave        2409 max        1331 min
Histogram: 8 0 0 0 24 0 0 0 0 16
Neighs:              0 ave           0 max           0 min
Histogram: 48 0 0 0 0 0 0 0 0 0

Total # of neighbors = 0
Ave neighs/atom = 0
Ave special neighs/atom = 15.567568
Neighbor list builds = 25
Dangerous builds = 0
fix             myat1 all ave/time 1000 10 10000 v_zave v_zdes file simulation_data/abpot/${cpt}.dat
fix             myat1 all ave/time 1000 10 10000 v_zave v_zdes file simulation_data/abpot/6.dat
run             50000
Generated 0 of 1 mixed pair_coeff terms from geometric mixing rule
Per MPI rank memory allocation (min/avg/max) = 13.32 | 13.86 | 14.98 Mbytes
   Step          Temp          E_pair         E_mol          TotEng         Press     
    330000   297.51498      368.50699      18534.817      19329.005     -200.46729    
    340000   307.50448      376.88792      18524.154      19341.016      92.25427     
    350000   316.3116       382.36731      18516.317      19351.259      71.533388    
    360000   296.96257      368.88709      18564.651      19358.429     -163.39095    
    370000   294.48813      374.92516      18538.383      19334.659     -26.988276    
    380000   294.46899      370.68391      18540.187      19332.194     -101.22022    
Loop time of 14.819 on 48 procs for 50000 steps with 481 atoms

Performance: 14.576 ns/day, 1.647 hours/ns, 3374.037 timesteps/s, 1.623 Matom-step/s
100.0% CPU use with 48 MPI tasks x 1 OpenMP threads

MPI task timing breakdown:
Section |  min time  |  avg time  |  max time  |%varavg| %total
---------------------------------------------------------------
Pair    | 0.017061   | 0.7209     | 3.774      | 120.3 |  4.86
Bond    | 0.0051404  | 0.91329    | 3.9251     | 124.8 |  6.16
Neigh   | 0.035541   | 0.038364   | 0.041523   |   0.8 |  0.26
Comm    | 6.0817     | 10.967     | 13.431     |  72.6 | 74.01
Output  | 0.0054583  | 0.010555   | 0.015662   |   3.1 |  0.07
Modify  | 0.51421    | 1.6466     | 6.3573     | 161.2 | 11.11
Other   |            | 0.5222     |            |       |  3.52

Nlocal:        10.0208 ave          41 max           0 min
Histogram: 20 6 10 3 1 0 3 1 0 4
Nghost:        1933.35 ave        2420 max        1332 min
Histogram: 8 0 0 0 24 0 0 0 0 16
Neighs:              0 ave           0 max           0 min
Histogram: 48 0 0 0 0 0 0 0 0 0

Total # of neighbors = 0
Ave neighs/atom = 0
Ave special neighs/atom = 15.567568
Neighbor list builds = 109
Dangerous builds = 0
unfix           myat1
next            cpt
jump            SELF loop
variable        zdes equal  -15+0.60*(${cpt}-1)
variable        zdes equal  -15+0.60*(7-1)
variable        zave equal xcm(H2,z)
fix             mytth2 H2 spring tether ${k1} 2.5 2.5 ${zdes} 0
fix             mytth2 H2 spring tether 3 2.5 2.5 ${zdes} 0
fix             mytth2 H2 spring tether 3 2.5 2.5 -11.4 0
run             10000
Generated 0 of 1 mixed pair_coeff terms from geometric mixing rule
Per MPI rank memory allocation (min/avg/max) = 13.32 | 13.86 | 14.98 Mbytes
   Step          Temp          E_pair         E_mol          TotEng         Press     
    380000   294.46899      370.68391      18540.187      19332.194     -101.22022    
    390000   325.9574       371.30091      18527.53       19365.207     -58.682441    
Loop time of 3.00244 on 48 procs for 10000 steps with 481 atoms

Performance: 14.388 ns/day, 1.668 hours/ns, 3330.625 timesteps/s, 1.602 Matom-step/s
100.0% CPU use with 48 MPI tasks x 1 OpenMP threads

MPI task timing breakdown:
Section |  min time  |  avg time  |  max time  |%varavg| %total
---------------------------------------------------------------
Pair    | 0.0034277  | 0.1443     | 0.73281    |  53.7 |  4.81
Bond    | 0.0010261  | 0.18291    | 0.82927    |  56.1 |  6.09
Neigh   | 0.0042354  | 0.0045837  | 0.0049666  |   0.3 |  0.15
Comm    | 1.2127     | 2.2237     | 2.692      |  32.6 | 74.06
Output  | 0.0010877  | 0.0020945  | 0.0032254  |   1.4 |  0.07
Modify  | 0.10129    | 0.33995    | 1.3264     |  73.5 | 11.32
Other   |            | 0.1049     |            |       |  3.49

Nlocal:        10.0208 ave          39 max           0 min
Histogram: 20 6 7 5 2 0 1 3 0 4
Nghost:         1934.1 ave        2412 max        1335 min
Histogram: 8 0 0 0 24 0 0 0 0 16
Neighs:              0 ave           0 max           0 min
Histogram: 48 0 0 0 0 0 0 0 0 0

Total # of neighbors = 0
Ave neighs/atom = 0
Ave special neighs/atom = 15.567568
Neighbor list builds = 13
Dangerous builds = 0
fix             myat1 all ave/time 1000 10 10000 v_zave v_zdes file simulation_data/abpot/${cpt}.dat
fix             myat1 all ave/time 1000 10 10000 v_zave v_zdes file simulation_data/abpot/7.dat
run             50000
Generated 0 of 1 mixed pair_coeff terms from geometric mixing rule
Per MPI rank memory allocation (min/avg/max) = 13.32 | 13.86 | 14.98 Mbytes
   Step          Temp          E_pair         E_mol          TotEng         Press     
    390000   325.9574       371.30091      18527.53       19365.207     -58.682441    
    400000   308.66749      366.89346      18533.617      19342.149     -164.80751    
    410000   298.3452       366.70082      18562.86       19356.43      -161.10788    
    420000   308.63349      374.70258      18543.88       19360.171     -12.126707    
    430000   291.52426      369.07264      18548.746      19334.928     -39.857063    
    440000   294.68291      375.5268       18528.244      19325.399      71.632502    
Loop time of 15.2392 on 48 procs for 50000 steps with 481 atoms

Performance: 14.174 ns/day, 1.693 hours/ns, 3281.011 timesteps/s, 1.578 Matom-step/s
100.0% CPU use with 48 MPI tasks x 1 OpenMP threads

MPI task timing breakdown:
Section |  min time  |  avg time  |  max time  |%varavg| %total
---------------------------------------------------------------
Pair    | 0.017075   | 0.72096    | 3.9059     | 120.6 |  4.73
Bond    | 0.0051432  | 0.91385    | 4.0712     | 125.1 |  6.00
Neigh   | 0.020561   | 0.022132   | 0.024      |   0.6 |  0.15
Comm    | 6.2986     | 11.319     | 13.737     |  74.2 | 74.28
Output  | 0.0055883  | 0.010699   | 0.015893   |   3.1 |  0.07
Modify  | 0.51605    | 1.7278     | 6.8318     | 169.5 | 11.34
Other   |            | 0.5245     |            |       |  3.44

Nlocal:        10.0208 ave          47 max           0 min
Histogram: 21 8 10 1 0 2 2 2 1 1
Nghost:        1929.48 ave        2406 max        1326 min
Histogram: 8 0 0 0 24 0 0 0 0 16
Neighs:              0 ave           0 max           0 min
Histogram: 48 0 0 0 0 0 0 0 0 0

Total # of neighbors = 0
Ave neighs/atom = 0
Ave special neighs/atom = 15.567568
Neighbor list builds = 59
Dangerous builds = 0
unfix           myat1
next            cpt
jump            SELF loop
variable        zdes equal  -15+0.60*(${cpt}-1)
variable        zdes equal  -15+0.60*(8-1)
variable        zave equal xcm(H2,z)
fix             mytth2 H2 spring tether ${k1} 2.5 2.5 ${zdes} 0
fix             mytth2 H2 spring tether 3 2.5 2.5 ${zdes} 0
fix             mytth2 H2 spring tether 3 2.5 2.5 -10.8 0
run             10000
Generated 0 of 1 mixed pair_coeff terms from geometric mixing rule
Per MPI rank memory allocation (min/avg/max) = 13.32 | 13.86 | 14.98 Mbytes
   Step          Temp          E_pair         E_mol          TotEng         Press     
    440000   294.68291      375.5268       18528.244      19325.399      71.632502    
    450000   322.49758      360.61954      18542.33       19364.376     -371.83733    
Loop time of 3.17013 on 48 procs for 10000 steps with 481 atoms

Performance: 13.627 ns/day, 1.761 hours/ns, 3154.440 timesteps/s, 1.517 Matom-step/s
100.0% CPU use with 48 MPI tasks x 1 OpenMP threads

MPI task timing breakdown:
Section |  min time  |  avg time  |  max time  |%varavg| %total
---------------------------------------------------------------
Pair    | 0.0034168  | 0.14446    | 0.77847    |  54.1 |  4.56
Bond    | 0.0010287  | 0.18283    | 0.84784    |  56.1 |  5.77
Neigh   | 0.0062426  | 0.0067554  | 0.0073076  |   0.4 |  0.21
Comm    | 1.3203     | 2.3583     | 2.893      |  34.5 | 74.39
Output  | 0.0011755  | 0.0022116  | 0.0032424  |   1.4 |  0.07
Modify  | 0.099874   | 0.37025    | 1.5032     |  81.2 | 11.68
Other   |            | 0.1054     |            |       |  3.32

Nlocal:        10.0208 ave          44 max           0 min
Histogram: 21 5 12 2 0 3 1 0 2 2
Nghost:         1924.1 ave        2399 max        1329 min
Histogram: 8 0 0 0 24 0 0 0 0 16
Neighs:              0 ave           0 max           0 min
Histogram: 48 0 0 0 0 0 0 0 0 0

Total # of neighbors = 0
Ave neighs/atom = 0
Ave special neighs/atom = 15.567568
Neighbor list builds = 17
Dangerous builds = 0
fix             myat1 all ave/time 1000 10 10000 v_zave v_zdes file simulation_data/abpot/${cpt}.dat
fix             myat1 all ave/time 1000 10 10000 v_zave v_zdes file simulation_data/abpot/8.dat
run             50000
Generated 0 of 1 mixed pair_coeff terms from geometric mixing rule
Per MPI rank memory allocation (min/avg/max) = 13.32 | 13.86 | 14.98 Mbytes
   Step          Temp          E_pair         E_mol          TotEng         Press     
    450000   322.49758      360.61954      18542.33       19364.376     -371.83733    
    460000   313.16822      375.42231      18531.009      19354.509      148.79756    
    470000   296.41367      365.78278      18532.688      19322.576     -205.65271    
    480000   294.81791      374.29322      18527.56       19323.676      11.151764    
    490000   298.20773      384.49591      18515.745      19326.913      277.16186    
    500000   323.34635      361.92662      18538.735      19363.302     -264.70307    
Loop time of 15.3577 on 48 procs for 50000 steps with 481 atoms

Performance: 14.065 ns/day, 1.706 hours/ns, 3255.690 timesteps/s, 1.566 Matom-step/s
100.0% CPU use with 48 MPI tasks x 1 OpenMP threads

MPI task timing breakdown:
Section |  min time  |  avg time  |  max time  |%varavg| %total
---------------------------------------------------------------
Pair    | 0.017325   | 0.72129    | 3.9475     | 121.3 |  4.70
Bond    | 0.0051545  | 0.91306    | 4.2468     | 125.7 |  5.95
Neigh   | 0.024092   | 0.026047   | 0.028306   |   0.7 |  0.17
Comm    | 6.2106     | 11.419     | 13.809     |  74.6 | 74.35
Output  | 0.005424   | 0.010512   | 0.015708   |   3.1 |  0.07
Modify  | 0.50778    | 1.7435     | 6.9381     | 171.1 | 11.35
Other   |            | 0.5245     |            |       |  3.42

Nlocal:        10.0208 ave          41 max           0 min
Histogram: 22 8 2 8 0 0 1 3 3 1
Nghost:         1921.1 ave        2391 max        1332 min
Histogram: 8 0 0 0 24 0 0 0 0 16
Neighs:              0 ave           0 max           0 min
Histogram: 48 0 0 0 0 0 0 0 0 0

Total # of neighbors = 0
Ave neighs/atom = 0
Ave special neighs/atom = 15.567568
Neighbor list builds = 71
Dangerous builds = 0
unfix           myat1
next            cpt
jump            SELF loop
variable        zdes equal  -15+0.60*(${cpt}-1)
variable        zdes equal  -15+0.60*(9-1)
variable        zave equal xcm(H2,z)
fix             mytth2 H2 spring tether ${k1} 2.5 2.5 ${zdes} 0
fix             mytth2 H2 spring tether 3 2.5 2.5 ${zdes} 0
fix             mytth2 H2 spring tether 3 2.5 2.5 -10.2 0
run             10000
Generated 0 of 1 mixed pair_coeff terms from geometric mixing rule
Per MPI rank memory allocation (min/avg/max) = 13.32 | 13.86 | 14.98 Mbytes
   Step          Temp          E_pair         E_mol          TotEng         Press     
    500000   323.34635      361.92662      18538.735      19363.302     -264.70307    
    510000   304.93087      376.33472      18531.854      19344.48      -8.7026221    
Loop time of 3.01186 on 48 procs for 10000 steps with 481 atoms

Performance: 14.343 ns/day, 1.673 hours/ns, 3320.207 timesteps/s, 1.597 Matom-step/s
100.0% CPU use with 48 MPI tasks x 1 OpenMP threads

MPI task timing breakdown:
Section |  min time  |  avg time  |  max time  |%varavg| %total
---------------------------------------------------------------
Pair    | 0.0034142  | 0.14435    | 0.78311    |  54.7 |  4.79
Bond    | 0.0010276  | 0.18287    | 0.78401    |  56.3 |  6.07
Neigh   | 0.005596   | 0.0060165  | 0.0065048  |   0.3 |  0.20
Comm    | 1.2312     | 2.2346     | 2.7331     |  33.2 | 74.19
Output  | 0.0011079  | 0.0021173  | 0.00334    |   1.4 |  0.07
Modify  | 0.10606    | 0.33705    | 1.323      |  74.3 | 11.19
Other   |            | 0.1049     |            |       |  3.48

Nlocal:        10.0208 ave          50 max           0 min
Histogram: 21 10 7 3 0 3 0 2 1 1
Nghost:        1923.73 ave        2394 max        1323 min
Histogram: 8 0 0 0 24 0 0 0 0 16
Neighs:              0 ave           0 max           0 min
Histogram: 48 0 0 0 0 0 0 0 0 0

Total # of neighbors = 0
Ave neighs/atom = 0
Ave special neighs/atom = 15.567568
Neighbor list builds = 16
Dangerous builds = 0
fix             myat1 all ave/time 1000 10 10000 v_zave v_zdes file simulation_data/abpot/${cpt}.dat
fix             myat1 all ave/time 1000 10 10000 v_zave v_zdes file simulation_data/abpot/9.dat
run             50000
Generated 0 of 1 mixed pair_coeff terms from geometric mixing rule
Per MPI rank memory allocation (min/avg/max) = 13.32 | 13.86 | 14.98 Mbytes
   Step          Temp          E_pair         E_mol          TotEng         Press     
    510000   304.93087      376.33472      18531.854      19344.48      -8.7026221    
    520000   290.80129      371.44867      18531.744      19319.268     -78.166735    
    530000   285.70691      366.70403      18506.073      19281.563     -169.3934     
    540000   306.5795       371.87984      18500.034      19310.564     -49.633939    
    550000   300.72905      372.74365      18536.813      19339.837     -142.85322    
    560000   292.91315      367.16355      18515.639      19301.899     -74.335693    
Loop time of 15.6471 on 48 procs for 50000 steps with 481 atoms

Performance: 13.804 ns/day, 1.739 hours/ns, 3195.477 timesteps/s, 1.537 Matom-step/s
100.0% CPU use with 48 MPI tasks x 1 OpenMP threads

MPI task timing breakdown:
Section |  min time  |  avg time  |  max time  |%varavg| %total
---------------------------------------------------------------
Pair    | 0.017112   | 0.72211    | 3.7525     | 120.6 |  4.61
Bond    | 0.0051557  | 0.91418    | 4.1955     | 126.0 |  5.84
Neigh   | 0.033278   | 0.035813   | 0.038711   |   0.8 |  0.23
Comm    | 6.5129     | 11.649     | 14.153     |  75.3 | 74.45
Output  | 0.0056106  | 0.010738   | 0.015739   |   3.1 |  0.07
Modify  | 0.51706    | 1.7903     | 7.1947     | 175.0 | 11.44
Other   |            | 0.5246     |            |       |  3.35

Nlocal:        10.0208 ave          46 max           0 min
Histogram: 21 7 10 3 0 1 1 3 1 1
Nghost:        1923.25 ave        2401 max        1337 min
Histogram: 8 0 0 0 24 0 0 0 0 16
Neighs:              0 ave           0 max           0 min
Histogram: 48 0 0 0 0 0 0 0 0 0

Total # of neighbors = 0
Ave neighs/atom = 0
Ave special neighs/atom = 15.567568
Neighbor list builds = 95
Dangerous builds = 0
unfix           myat1
next            cpt
jump            SELF loop
variable        zdes equal  -15+0.60*(${cpt}-1)
variable        zdes equal  -15+0.60*(10-1)
variable        zave equal xcm(H2,z)
fix             mytth2 H2 spring tether ${k1} 2.5 2.5 ${zdes} 0
fix             mytth2 H2 spring tether 3 2.5 2.5 ${zdes} 0
fix             mytth2 H2 spring tether 3 2.5 2.5 -9.6 0
run             10000
Generated 0 of 1 mixed pair_coeff terms from geometric mixing rule
Per MPI rank memory allocation (min/avg/max) = 13.32 | 13.86 | 14.98 Mbytes
   Step          Temp          E_pair         E_mol          TotEng         Press     
    560000   292.91315      367.16355      18515.639      19301.899     -74.335693    
    570000   294.14689      378.09603      18512.832      19311.79      -44.281968    
Loop time of 3.07536 on 48 procs for 10000 steps with 481 atoms

Performance: 14.047 ns/day, 1.709 hours/ns, 3251.654 timesteps/s, 1.564 Matom-step/s
100.0% CPU use with 48 MPI tasks x 1 OpenMP threads

MPI task timing breakdown:
Section |  min time  |  avg time  |  max time  |%varavg| %total
---------------------------------------------------------------
Pair    | 0.003406   | 0.14437    | 0.78884    |  54.4 |  4.69
Bond    | 0.0010352  | 0.1827     | 0.89787    |  56.8 |  5.94
Neigh   | 0.0072796  | 0.0079036  | 0.0085673  |   0.4 |  0.26
Comm    | 1.1551     | 2.2843     | 2.7887     |  33.3 | 74.28
Output  | 0.0011402  | 0.0021558  | 0.0033038  |   1.4 |  0.07
Modify  | 0.1055     | 0.34854    | 1.3926     |  75.8 | 11.33
Other   |            | 0.1054     |            |       |  3.43

Nlocal:        10.0208 ave          40 max           0 min
Histogram: 19 7 6 8 0 0 2 2 0 4
Nghost:        1929.98 ave        2414 max        1335 min
Histogram: 8 0 0 0 24 0 0 0 0 16
Neighs:              0 ave           0 max           0 min
Histogram: 48 0 0 0 0 0 0 0 0 0

Total # of neighbors = 0
Ave neighs/atom = 0
Ave special neighs/atom = 15.567568
Neighbor list builds = 22
Dangerous builds = 0
fix             myat1 all ave/time 1000 10 10000 v_zave v_zdes file simulation_data/abpot/${cpt}.dat
fix             myat1 all ave/time 1000 10 10000 v_zave v_zdes file simulation_data/abpot/10.dat
run             50000
Generated 0 of 1 mixed pair_coeff terms from geometric mixing rule
Per MPI rank memory allocation (min/avg/max) = 13.32 | 13.86 | 14.98 Mbytes
   Step          Temp          E_pair         E_mol          TotEng         Press     
    570000   294.14689      378.09603      18512.832      19311.79      -44.281968    
    580000   294.88265      376.27943      18517.168      19315.363      30.387516    
    590000   291.47245      372.64671      18538.57       19328.252     -70.715742    
    600000   303.73545      369.42901      18550.578      19354.589     -164.63146    
    610000   300.4599       377.06103      18529.873      19336.829     -68.304849    
    620000   289.96028      377.85839      18504.791      19297.521      85.848424    
Loop time of 15.0482 on 48 procs for 50000 steps with 481 atoms

Performance: 14.354 ns/day, 1.672 hours/ns, 3322.664 timesteps/s, 1.598 Matom-step/s
100.0% CPU use with 48 MPI tasks x 1 OpenMP threads

MPI task timing breakdown:
Section |  min time  |  avg time  |  max time  |%varavg| %total
---------------------------------------------------------------
Pair    | 0.017329   | 0.72242    | 3.7677     | 121.0 |  4.80
Bond    | 0.0051474  | 0.91348    | 4.1079     | 126.0 |  6.07
Neigh   | 0.030407   | 0.032745   | 0.035348   |   0.7 |  0.22
Comm    | 6.0889     | 11.165     | 13.579     |  72.6 | 74.19
Output  | 0.0055523  | 0.011111   | 0.016617   |   3.5 |  0.07
Modify  | 0.53161    | 1.6789     | 6.4608     | 161.9 | 11.16
Other   |            | 0.5249     |            |       |  3.49

Nlocal:        10.0208 ave          39 max           0 min
Histogram: 18 8 7 5 2 0 1 2 2 3
Nghost:        1929.35 ave        2411 max        1334 min
Histogram: 8 0 0 0 24 0 0 0 0 16
Neighs:              0 ave           0 max           0 min
Histogram: 48 0 0 0 0 0 0 0 0 0

Total # of neighbors = 0
Ave neighs/atom = 0
Ave special neighs/atom = 15.567568
Neighbor list builds = 93
Dangerous builds = 0
unfix           myat1
next            cpt
jump            SELF loop
variable        zdes equal  -15+0.60*(${cpt}-1)
variable        zdes equal  -15+0.60*(11-1)
variable        zave equal xcm(H2,z)
fix             mytth2 H2 spring tether ${k1} 2.5 2.5 ${zdes} 0
fix             mytth2 H2 spring tether 3 2.5 2.5 ${zdes} 0
fix             mytth2 H2 spring tether 3 2.5 2.5 -9 0
run             10000
Generated 0 of 1 mixed pair_coeff terms from geometric mixing rule
Per MPI rank memory allocation (min/avg/max) = 13.32 | 13.86 | 14.98 Mbytes
   Step          Temp          E_pair         E_mol          TotEng         Press     
    620000   289.96028      377.85839      18504.791      19297.521      85.848424    
    630000   291.11421      371.16587      18514.261      19301.95      -138.74758    
Loop time of 3.10408 on 48 procs for 10000 steps with 481 atoms

Performance: 13.917 ns/day, 1.724 hours/ns, 3221.566 timesteps/s, 1.550 Matom-step/s
100.0% CPU use with 48 MPI tasks x 1 OpenMP threads

MPI task timing breakdown:
Section |  min time  |  avg time  |  max time  |%varavg| %total
---------------------------------------------------------------
Pair    | 0.0034028  | 0.14467    | 0.77331    |  54.4 |  4.66
Bond    | 0.0010388  | 0.18264    | 0.83455    |  56.3 |  5.88
Neigh   | 0.0042946  | 0.0045686  | 0.0049102  |   0.2 |  0.15
Comm    | 1.2856     | 2.3107     | 2.8225     |  33.8 | 74.44
Output  | 0.0010975  | 0.0021104  | 0.0031298  |   1.4 |  0.07
Modify  | 0.10174    | 0.35424    | 1.4388     |  77.9 | 11.41
Other   |            | 0.1051     |            |       |  3.39

Nlocal:        10.0208 ave          48 max           0 min
Histogram: 24 8 2 5 3 1 1 2 1 1
Nghost:        1928.25 ave        2414 max        1325 min
Histogram: 8 0 0 0 24 0 0 0 0 16
Neighs:              0 ave           0 max           0 min
Histogram: 48 0 0 0 0 0 0 0 0 0

Total # of neighbors = 0
Ave neighs/atom = 0
Ave special neighs/atom = 15.567568
Neighbor list builds = 12
Dangerous builds = 0
fix             myat1 all ave/time 1000 10 10000 v_zave v_zdes file simulation_data/abpot/${cpt}.dat
fix             myat1 all ave/time 1000 10 10000 v_zave v_zdes file simulation_data/abpot/11.dat
run             50000
Generated 0 of 1 mixed pair_coeff terms from geometric mixing rule
Per MPI rank memory allocation (min/avg/max) = 13.32 | 13.86 | 14.98 Mbytes
   Step          Temp          E_pair         E_mol          TotEng         Press     
    630000   291.11421      371.16587      18514.261      19301.95      -138.74758    
    640000   305.15027      375.96419      18528.898      19341.468     -133.54933    
    650000   307.30787      367.76973      18543.095      19350.557     -281.55609    
    660000   316.80813      366.84619      18556.944      19377.076     -230.1411     
    670000   300.36961      380.6953       18554.063      19364.524      24.879659    
    680000   304.41145      370.61077      18548.477      19354.636     -233.47475    
Loop time of 15.6251 on 48 procs for 50000 steps with 481 atoms

Performance: 13.824 ns/day, 1.736 hours/ns, 3199.981 timesteps/s, 1.539 Matom-step/s
100.0% CPU use with 48 MPI tasks x 1 OpenMP threads

MPI task timing breakdown:
Section |  min time  |  avg time  |  max time  |%varavg| %total
---------------------------------------------------------------
Pair    | 0.017158   | 0.72391    | 3.7785     | 121.0 |  4.63
Bond    | 0.0051366  | 0.91368    | 4.242      | 126.3 |  5.85
Neigh   | 0.033869   | 0.036237   | 0.039037   |   0.7 |  0.23
Comm    | 6.4289     | 11.641     | 14.227     |  75.3 | 74.50
Output  | 0.0057114  | 0.010811   | 0.016259   |   3.1 |  0.07
Modify  | 0.52547    | 1.7756     | 7.143      | 174.4 | 11.36
Other   |            | 0.524      |            |       |  3.35

Nlocal:        10.0208 ave          44 max           0 min
Histogram: 21 7 8 4 0 1 2 1 3 1
Nghost:         1929.6 ave        2413 max        1329 min
Histogram: 8 0 0 0 24 0 0 0 0 16
Neighs:              0 ave           0 max           0 min
Histogram: 48 0 0 0 0 0 0 0 0 0

Total # of neighbors = 0
Ave neighs/atom = 0
Ave special neighs/atom = 15.567568
Neighbor list builds = 96
Dangerous builds = 0
unfix           myat1
next            cpt
jump            SELF loop
variable        zdes equal  -15+0.60*(${cpt}-1)
variable        zdes equal  -15+0.60*(12-1)
variable        zave equal xcm(H2,z)
fix             mytth2 H2 spring tether ${k1} 2.5 2.5 ${zdes} 0
fix             mytth2 H2 spring tether 3 2.5 2.5 ${zdes} 0
fix             mytth2 H2 spring tether 3 2.5 2.5 -8.4 0
run             10000
Generated 0 of 1 mixed pair_coeff terms from geometric mixing rule
Per MPI rank memory allocation (min/avg/max) = 13.32 | 13.87 | 14.98 Mbytes
   Step          Temp          E_pair         E_mol          TotEng         Press     
    680000   304.41145      370.61077      18548.477      19354.636     -233.47475    
    690000   288.59753      375.52497      18534.757      19323.204     -46.067604    
Loop time of 3.05824 on 48 procs for 10000 steps with 481 atoms

Performance: 14.126 ns/day, 1.699 hours/ns, 3269.857 timesteps/s, 1.573 Matom-step/s
100.0% CPU use with 48 MPI tasks x 1 OpenMP threads

MPI task timing breakdown:
Section |  min time  |  avg time  |  max time  |%varavg| %total
---------------------------------------------------------------
Pair    | 0.0034109  | 0.14492    | 0.77111    |  54.3 |  4.74
Bond    | 0.0010229  | 0.18259    | 0.83709    |  56.6 |  5.97
Neigh   | 0.0053978  | 0.0058119  | 0.0062859  |   0.3 |  0.19
Comm    | 1.2491     | 2.2696     | 2.75       |  33.2 | 74.21
Output  | 0.0011358  | 0.0021689  | 0.0032839  |   1.4 |  0.07
Modify  | 0.1052     | 0.34849    | 1.3777     |  75.2 | 11.40
Other   |            | 0.1046     |            |       |  3.42

Nlocal:        10.0208 ave          41 max           0 min
Histogram: 20 10 4 4 2 0 1 3 3 1
Nghost:        1930.35 ave        2410 max        1332 min
Histogram: 8 0 0 0 24 0 0 0 0 16
Neighs:              0 ave           0 max           0 min
Histogram: 48 0 0 0 0 0 0 0 0 0

Total # of neighbors = 0
Ave neighs/atom = 0
Ave special neighs/atom = 15.567568
Neighbor list builds = 16
Dangerous builds = 0
fix             myat1 all ave/time 1000 10 10000 v_zave v_zdes file simulation_data/abpot/${cpt}.dat
fix             myat1 all ave/time 1000 10 10000 v_zave v_zdes file simulation_data/abpot/12.dat
run             50000
Generated 0 of 1 mixed pair_coeff terms from geometric mixing rule
Per MPI rank memory allocation (min/avg/max) = 13.32 | 13.87 | 14.98 Mbytes
   Step          Temp          E_pair         E_mol          TotEng         Press     
    690000   288.59753      375.52497      18534.757      19323.204     -46.067604    
    700000   313.048        384.21723      18527.834      19359.957      261.01585    
    710000   296.67451      368.35991      18570.689      19363.527     -180.897      
    720000   320.33493      380.19695      18517.488      19356.017      255.31492    
    730000   303.39375      370.88003      18544.436      19349.408     -154.04403    
    740000   288.34832      372.03412      18531.806      19316.406     -102.73749    
Loop time of 15.5637 on 48 procs for 50000 steps with 481 atoms

Performance: 13.878 ns/day, 1.729 hours/ns, 3212.605 timesteps/s, 1.545 Matom-step/s
100.0% CPU use with 48 MPI tasks x 1 OpenMP threads

MPI task timing breakdown:
Section |  min time  |  avg time  |  max time  |%varavg| %total
---------------------------------------------------------------
Pair    | 0.017089   | 0.72379    | 3.8126     | 121.7 |  4.65
Bond    | 0.0051432  | 0.91409    | 4.1686     | 127.0 |  5.87
Neigh   | 0.026725   | 0.028762   | 0.031153   |   0.7 |  0.18
Comm    | 6.4824     | 11.557     | 13.985     |  75.5 | 74.26
Output  | 0.0058268  | 0.010925   | 0.016295   |   3.1 |  0.07
Modify  | 0.54115    | 1.8039     | 7.1557     | 173.0 | 11.59
Other   |            | 0.5249     |            |       |  3.37

Nlocal:        10.0208 ave          44 max           0 min
Histogram: 20 8 8 4 0 1 1 4 1 1
Nghost:        1925.48 ave        2408 max        1329 min
Histogram: 8 0 0 0 24 0 0 0 0 16
Neighs:              0 ave           0 max           0 min
Histogram: 48 0 0 0 0 0 0 0 0 0

Total # of neighbors = 0
Ave neighs/atom = 0
Ave special neighs/atom = 15.567568
Neighbor list builds = 78
Dangerous builds = 0
unfix           myat1
next            cpt
jump            SELF loop
variable        zdes equal  -15+0.60*(${cpt}-1)
variable        zdes equal  -15+0.60*(13-1)
variable        zave equal xcm(H2,z)
fix             mytth2 H2 spring tether ${k1} 2.5 2.5 ${zdes} 0
fix             mytth2 H2 spring tether 3 2.5 2.5 ${zdes} 0
fix             mytth2 H2 spring tether 3 2.5 2.5 -7.8 0
run             10000
Generated 0 of 1 mixed pair_coeff terms from geometric mixing rule
Per MPI rank memory allocation (min/avg/max) = 13.32 | 13.87 | 14.98 Mbytes
   Step          Temp          E_pair         E_mol          TotEng         Press     
    740000   288.34832      372.03412      18531.806      19316.406     -102.73749    
    750000   286.96669      389.05621      18567.827      19367.472     -167.62124    
Loop time of 3.05386 on 48 procs for 10000 steps with 481 atoms

Performance: 14.146 ns/day, 1.697 hours/ns, 3274.547 timesteps/s, 1.575 Matom-step/s
100.0% CPU use with 48 MPI tasks x 1 OpenMP threads

MPI task timing breakdown:
Section |  min time  |  avg time  |  max time  |%varavg| %total
---------------------------------------------------------------
Pair    | 0.0034465  | 0.14608    | 0.79134    |  55.3 |  4.78
Bond    | 0.0010227  | 0.18275    | 0.77168    |  56.1 |  5.98
Neigh   | 0.011343   | 0.012183   | 0.013124   |   0.4 |  0.40
Comm    | 1.3021     | 2.2667     | 2.7913     |  33.6 | 74.22
Output  | 0.0011173  | 0.0021168  | 0.0031185  |   1.4 |  0.07
Modify  | 0.10209    | 0.33959    | 1.3581     |  76.1 | 11.12
Other   |            | 0.1045     |            |       |  3.42

Nlocal:        10.0208 ave          50 max           0 min
Histogram: 21 9 7 4 0 3 0 2 1 1
Nghost:         1928.6 ave        2409 max        1323 min
Histogram: 8 0 0 0 24 0 0 0 0 16
Neighs:              0 ave           0 max           0 min
Histogram: 48 0 0 0 0 0 0 0 0 0

Total # of neighbors = 0
Ave neighs/atom = 0
Ave special neighs/atom = 15.567568
Neighbor list builds = 33
Dangerous builds = 0
fix             myat1 all ave/time 1000 10 10000 v_zave v_zdes file simulation_data/abpot/${cpt}.dat
fix             myat1 all ave/time 1000 10 10000 v_zave v_zdes file simulation_data/abpot/13.dat
run             50000
Generated 0 of 1 mixed pair_coeff terms from geometric mixing rule
Per MPI rank memory allocation (min/avg/max) = 13.32 | 13.87 | 14.98 Mbytes
   Step          Temp          E_pair         E_mol          TotEng         Press     
    750000   286.96669      389.05621      18567.827      19367.472     -167.62124    
    760000   303.30787      392.52382      18537.413      19363.907      92.416058    
    770000   289.90544      393.16429      18562.771      19370.729      111.95801    
    780000   317.03077      386.19356      18509.629      19349.426     -153.7068     
    790000   290.38784      390.32202      18525.55       19331.355      61.798916    
    800000   281.09046      365.17905      18533.347      19300.707     -248.20871    
Loop time of 15.4007 on 48 procs for 50000 steps with 481 atoms

Performance: 14.025 ns/day, 1.711 hours/ns, 3246.609 timesteps/s, 1.562 Matom-step/s
100.0% CPU use with 48 MPI tasks x 1 OpenMP threads

MPI task timing breakdown:
Section |  min time  |  avg time  |  max time  |%varavg| %total
---------------------------------------------------------------
Pair    | 0.017386   | 0.73212    | 4.1726     | 123.8 |  4.75
Bond    | 0.0051423  | 0.9159     | 3.9983     | 126.3 |  5.95
Neigh   | 0.055174   | 0.059296   | 0.064037   |   0.9 |  0.39
Comm    | 6.1189     | 11.435     | 14.034     |  75.0 | 74.25
Output  | 0.0056885  | 0.010821   | 0.015937   |   3.1 |  0.07
Modify  | 0.53302    | 1.7249     | 6.8794     | 169.8 | 11.20
Other   |            | 0.5222     |            |       |  3.39

Nlocal:        10.0208 ave          50 max           0 min
Histogram: 21 7 11 2 0 2 2 2 0 1
Nghost:        1925.85 ave        2408 max        1323 min
Histogram: 8 0 0 0 24 0 0 0 0 16
Neighs:              0 ave           0 max           0 min
Histogram: 48 0 0 0 0 0 0 0 0 0

Total # of neighbors = 0
Ave neighs/atom = 0
Ave special neighs/atom = 15.567568
Neighbor list builds = 162
Dangerous builds = 0
unfix           myat1
next            cpt
jump            SELF loop
variable        zdes equal  -15+0.60*(${cpt}-1)
variable        zdes equal  -15+0.60*(14-1)
variable        zave equal xcm(H2,z)
fix             mytth2 H2 spring tether ${k1} 2.5 2.5 ${zdes} 0
fix             mytth2 H2 spring tether 3 2.5 2.5 ${zdes} 0
fix             mytth2 H2 spring tether 3 2.5 2.5 -7.2 0
run             10000
Generated 0 of 1 mixed pair_coeff terms from geometric mixing rule
Per MPI rank memory allocation (min/avg/max) = 13.32 | 13.87 | 14.98 Mbytes
   Step          Temp          E_pair         E_mol          TotEng         Press     
    800000   281.09046      365.17905      18533.347      19300.707     -248.20871    
    810000   295.11507      378.60916      18549.317      19350.174     -88.830422    
Loop time of 3.06672 on 48 procs for 10000 steps with 481 atoms

Performance: 14.087 ns/day, 1.704 hours/ns, 3260.809 timesteps/s, 1.568 Matom-step/s
100.0% CPU use with 48 MPI tasks x 1 OpenMP threads

MPI task timing breakdown:
Section |  min time  |  avg time  |  max time  |%varavg| %total
---------------------------------------------------------------
Pair    | 0.0034995  | 0.14616    | 0.82026    |  54.9 |  4.77
Bond    | 0.0010312  | 0.18338    | 0.8343     |  56.6 |  5.98
Neigh   | 0.012134   | 0.013023   | 0.014067   |   0.4 |  0.42
Comm    | 1.2035     | 2.2733     | 2.7827     |  33.6 | 74.13
Output  | 0.0011809  | 0.0022138  | 0.0032428  |   1.4 |  0.07
Modify  | 0.10734    | 0.34403    | 1.3694     |  75.9 | 11.22
Other   |            | 0.1046     |            |       |  3.41

Nlocal:        10.0208 ave          48 max           0 min
Histogram: 21 7 11 1 1 2 1 3 0 1
Nghost:         1930.5 ave        2411 max        1325 min
Histogram: 8 0 0 0 24 0 0 0 0 16
Neighs:              0 ave           0 max           0 min
Histogram: 48 0 0 0 0 0 0 0 0 0

Total # of neighbors = 0
Ave neighs/atom = 0
Ave special neighs/atom = 15.567568
Neighbor list builds = 36
Dangerous builds = 0
fix             myat1 all ave/time 1000 10 10000 v_zave v_zdes file simulation_data/abpot/${cpt}.dat
fix             myat1 all ave/time 1000 10 10000 v_zave v_zdes file simulation_data/abpot/14.dat
run             50000
Generated 0 of 1 mixed pair_coeff terms from geometric mixing rule
Per MPI rank memory allocation (min/avg/max) = 13.32 | 13.87 | 14.98 Mbytes
   Step          Temp          E_pair         E_mol          TotEng         Press     
    810000   295.11507      378.60916      18549.317      19350.174     -88.830422    
    820000   323.27158      388.08838      18515.956      19366.578     -9.354169     
    830000   302.99258      388.44324      18510.942      19332.904     -89.86909     
    840000   300.10124      388.78388      18539.065      19357.23      -29.128443    
    850000   302.24324      389.33297      18536.924      19358.704     -105.70124    
    860000   297.81962      395.47533      18524.594      19346.186     -2.0134866    
Loop time of 15.8649 on 48 procs for 50000 steps with 481 atoms

Performance: 13.615 ns/day, 1.763 hours/ns, 3151.615 timesteps/s, 1.516 Matom-step/s
100.0% CPU use with 48 MPI tasks x 1 OpenMP threads

MPI task timing breakdown:
Section |  min time  |  avg time  |  max time  |%varavg| %total
---------------------------------------------------------------
Pair    | 0.017811   | 0.7331     | 4.1024     | 123.8 |  4.62
Bond    | 0.0051557  | 0.91546    | 4.1221     | 125.8 |  5.77
Neigh   | 0.07963    | 0.085592   | 0.092859   |   1.2 |  0.54
Comm    | 6.8849     | 11.778     | 14.374     |  77.2 | 74.24
Output  | 0.0057699  | 0.010948   | 0.016346   |   3.1 |  0.07
Modify  | 0.52774    | 1.8203     | 7.4219     | 179.3 | 11.47
Other   |            | 0.5219     |            |       |  3.29

Nlocal:        10.0208 ave          45 max           0 min
Histogram: 21 5 10 4 1 1 2 1 0 3
Nghost:        1929.88 ave        2409 max        1328 min
Histogram: 8 0 0 0 24 0 0 0 0 16
Neighs:              0 ave           0 max           0 min
Histogram: 48 0 0 0 0 0 0 0 0 0

Total # of neighbors = 0
Ave neighs/atom = 0
Ave special neighs/atom = 15.567568
Neighbor list builds = 228
Dangerous builds = 0
unfix           myat1
next            cpt
jump            SELF loop
variable        zdes equal  -15+0.60*(${cpt}-1)
variable        zdes equal  -15+0.60*(15-1)
variable        zave equal xcm(H2,z)
fix             mytth2 H2 spring tether ${k1} 2.5 2.5 ${zdes} 0
fix             mytth2 H2 spring tether 3 2.5 2.5 ${zdes} 0
fix             mytth2 H2 spring tether 3 2.5 2.5 -6.6 0
run             10000
Generated 0 of 1 mixed pair_coeff terms from geometric mixing rule
Per MPI rank memory allocation (min/avg/max) = 13.32 | 13.87 | 14.98 Mbytes
   Step          Temp          E_pair         E_mol          TotEng         Press     
    860000   297.81962      395.47533      18524.594      19346.186     -2.0134866    
    870000   263.71837      393.13097      18517.369      19287.825     -65.935287    
Loop time of 3.08953 on 48 procs for 10000 steps with 481 atoms

Performance: 13.983 ns/day, 1.716 hours/ns, 3236.733 timesteps/s, 1.557 Matom-step/s
100.0% CPU use with 48 MPI tasks x 1 OpenMP threads

MPI task timing breakdown:
Section |  min time  |  avg time  |  max time  |%varavg| %total
---------------------------------------------------------------
Pair    | 0.0034797  | 0.14692    | 0.78843    |  55.0 |  4.76
Bond    | 0.0010275  | 0.18291    | 0.80497    |  56.0 |  5.92
Neigh   | 0.013123   | 0.014016   | 0.015137   |   0.4 |  0.45
Comm    | 1.3215     | 2.2862     | 2.7778     |  33.4 | 74.00
Output  | 0.0010962  | 0.0021235  | 0.0033429  |   1.4 |  0.07
Modify  | 0.10406    | 0.35291    | 1.4083     |  76.3 | 11.42
Other   |            | 0.1045     |            |       |  3.38

Nlocal:        10.0208 ave          45 max           0 min
Histogram: 21 7 7 4 2 2 1 1 0 3
Nghost:        1928.25 ave        2407 max        1329 min
Histogram: 8 0 0 0 24 0 0 0 0 16
Neighs:              0 ave           0 max           0 min
Histogram: 48 0 0 0 0 0 0 0 0 0

Total # of neighbors = 0
Ave neighs/atom = 0
Ave special neighs/atom = 15.567568
Neighbor list builds = 38
Dangerous builds = 0
fix             myat1 all ave/time 1000 10 10000 v_zave v_zdes file simulation_data/abpot/${cpt}.dat
fix             myat1 all ave/time 1000 10 10000 v_zave v_zdes file simulation_data/abpot/15.dat
run             50000
Generated 0 of 1 mixed pair_coeff terms from geometric mixing rule
Per MPI rank memory allocation (min/avg/max) = 13.32 | 13.87 | 14.98 Mbytes
   Step          Temp          E_pair         E_mol          TotEng         Press     
    870000   263.71837      393.13097      18517.369      19287.825     -65.935287    
    880000   290.38418      393.33555      18496.995      19305.809     -46.435015    
    890000   304.587        395.81163      18507.253      19338.864      165.98437    
    900000   301.37936      383.80031      18545.951      19360.961     -162.89132    
    910000   281.22004      390.25687      18494.775      19287.399      54.726015    
    920000   298.69398      386.68475      18493.766      19307.818     -69.716713    
Loop time of 15.0581 on 48 procs for 50000 steps with 481 atoms

Performance: 14.344 ns/day, 1.673 hours/ns, 3320.467 timesteps/s, 1.597 Matom-step/s
100.0% CPU use with 48 MPI tasks x 1 OpenMP threads

MPI task timing breakdown:
Section |  min time  |  avg time  |  max time  |%varavg| %total
---------------------------------------------------------------
Pair    | 0.017383   | 0.73397    | 4.004      | 123.1 |  4.87
Bond    | 0.0051362  | 0.9144     | 4.0388     | 125.6 |  6.07
Neigh   | 0.062497   | 0.067094   | 0.072569   |   1.0 |  0.45
Comm    | 6.3015     | 11.114     | 13.468     |  73.3 | 73.81
Output  | 0.0055905  | 0.010796   | 0.015882   |   3.2 |  0.07
Modify  | 0.53676    | 1.6956     | 6.5912     | 162.1 | 11.26
Other   |            | 0.5223     |            |       |  3.47

Nlocal:        10.0208 ave          41 max           0 min
Histogram: 20 9 5 5 1 0 2 3 1 2
Nghost:        1929.12 ave        2407 max        1333 min
Histogram: 8 0 0 0 24 0 0 0 0 16
Neighs:              0 ave           0 max           0 min
Histogram: 48 0 0 0 0 0 0 0 0 0

Total # of neighbors = 0
Ave neighs/atom = 0
Ave special neighs/atom = 15.567568
Neighbor list builds = 191
Dangerous builds = 0
unfix           myat1
next            cpt
jump            SELF loop
variable        zdes equal  -15+0.60*(${cpt}-1)
variable        zdes equal  -15+0.60*(16-1)
variable        zave equal xcm(H2,z)
fix             mytth2 H2 spring tether ${k1} 2.5 2.5 ${zdes} 0
fix             mytth2 H2 spring tether 3 2.5 2.5 ${zdes} 0
fix             mytth2 H2 spring tether 3 2.5 2.5 -6 0
run             10000
Generated 0 of 1 mixed pair_coeff terms from geometric mixing rule
Per MPI rank memory allocation (min/avg/max) = 13.32 | 13.87 | 14.98 Mbytes
   Step          Temp          E_pair         E_mol          TotEng         Press     
    920000   298.69398      386.68475      18493.766      19307.818     -69.716713    
    930000   304.61268      385.97949      18518.904      19340.72       19.967536    
Loop time of 3.08958 on 48 procs for 10000 steps with 481 atoms

Performance: 13.982 ns/day, 1.716 hours/ns, 3236.683 timesteps/s, 1.557 Matom-step/s
100.0% CPU use with 48 MPI tasks x 1 OpenMP threads

MPI task timing breakdown:
Section |  min time  |  avg time  |  max time  |%varavg| %total
---------------------------------------------------------------
Pair    | 0.0034215  | 0.14683    | 0.81181    |  54.8 |  4.75
Bond    | 0.0010306  | 0.18303    | 0.80118    |  56.1 |  5.92
Neigh   | 0.015174   | 0.016276   | 0.017537   |   0.5 |  0.53
Comm    | 1.3128     | 2.2812     | 2.7948     |  33.5 | 73.84
Output  | 0.0011544  | 0.0021772  | 0.0031953  |   1.4 |  0.07
Modify  | 0.10638    | 0.35566    | 1.3909     |  76.2 | 11.51
Other   |            | 0.1044     |            |       |  3.38

Nlocal:        10.0208 ave          37 max           0 min
Histogram: 20 4 9 5 2 0 0 1 2 5
Nghost:        1928.88 ave        2413 max        1339 min
Histogram: 8 0 0 0 24 0 0 0 0 16
Neighs:              0 ave           0 max           0 min
Histogram: 48 0 0 0 0 0 0 0 0 0

Total # of neighbors = 0
Ave neighs/atom = 0
Ave special neighs/atom = 15.567568
Neighbor list builds = 45
Dangerous builds = 0
fix             myat1 all ave/time 1000 10 10000 v_zave v_zdes file simulation_data/abpot/${cpt}.dat
fix             myat1 all ave/time 1000 10 10000 v_zave v_zdes file simulation_data/abpot/16.dat
run             50000
Generated 0 of 1 mixed pair_coeff terms from geometric mixing rule
Per MPI rank memory allocation (min/avg/max) = 13.32 | 13.87 | 14.98 Mbytes
   Step          Temp          E_pair         E_mol          TotEng         Press     
    930000   304.61268      385.97949      18518.904      19340.72       19.967536    
    940000   311.54471      386.54993      18544.369      19376.674     -143.77576    
    950000   308.66479      391.32519      18516.677      19349.636     -152.79677    
    960000   292.87566      399.65821      18492.414      19311.115      120.91634    
    970000   305.59895      383.65968      18507.391      19328.298     -226.76507    
    980000   285.51327      397.3059       18532.014      19337.829      54.015717    
Loop time of 15.2624 on 48 procs for 50000 steps with 481 atoms

Performance: 14.152 ns/day, 1.696 hours/ns, 3276.016 timesteps/s, 1.576 Matom-step/s
100.0% CPU use with 48 MPI tasks x 1 OpenMP threads

MPI task timing breakdown:
Section |  min time  |  avg time  |  max time  |%varavg| %total
---------------------------------------------------------------
Pair    | 0.017235   | 0.73429    | 3.9305     | 122.4 |  4.81
Bond    | 0.0051547  | 0.91516    | 4.173      | 125.6 |  6.00
Neigh   | 0.076      | 0.081741   | 0.088472   |   1.1 |  0.54
Comm    | 6.1449     | 11.25      | 13.661     |  73.9 | 73.71
Output  | 0.0055896  | 0.010755   | 0.01596    |   3.2 |  0.07
Modify  | 0.53192    | 1.7487     | 6.7859     | 165.9 | 11.46
Other   |            | 0.5216     |            |       |  3.42

Nlocal:        10.0208 ave          37 max           0 min
Histogram: 19 8 6 4 3 0 0 1 3 4
Nghost:        1930.85 ave        2409 max        1338 min
Histogram: 8 0 0 0 24 0 0 0 0 16
Neighs:              0 ave           0 max           0 min
Histogram: 48 0 0 0 0 0 0 0 0 0

Total # of neighbors = 0
Ave neighs/atom = 0
Ave special neighs/atom = 15.567568
Neighbor list builds = 232
Dangerous builds = 0
unfix           myat1
next            cpt
jump            SELF loop
variable        zdes equal  -15+0.60*(${cpt}-1)
variable        zdes equal  -15+0.60*(17-1)
variable        zave equal xcm(H2,z)
fix             mytth2 H2 spring tether ${k1} 2.5 2.5 ${zdes} 0
fix             mytth2 H2 spring tether 3 2.5 2.5 ${zdes} 0
fix             mytth2 H2 spring tether 3 2.5 2.5 -5.4 0
run             10000
Generated 0 of 1 mixed pair_coeff terms from geometric mixing rule
Per MPI rank memory allocation (min/avg/max) = 13.32 | 13.87 | 14.98 Mbytes
   Step          Temp          E_pair         E_mol          TotEng         Press     
    980000   285.51327      397.3059       18532.014      19337.829      54.015717    
    990000   313.13523      390.13995      18559.624      19397.794     -222.97825    
Loop time of 3.02824 on 48 procs for 10000 steps with 481 atoms

Performance: 14.266 ns/day, 1.682 hours/ns, 3302.246 timesteps/s, 1.588 Matom-step/s
100.0% CPU use with 48 MPI tasks x 1 OpenMP threads

MPI task timing breakdown:
Section |  min time  |  avg time  |  max time  |%varavg| %total
---------------------------------------------------------------
Pair    | 0.0036288  | 0.14689    | 0.79515    |  54.8 |  4.85
Bond    | 0.0010263  | 0.18294    | 0.84267    |  56.3 |  6.04
Neigh   | 0.012752   | 0.013726   | 0.014829   |   0.5 |  0.45
Comm    | 1.177      | 2.2405     | 2.7412     |  33.1 | 73.99
Output  | 0.0010973  | 0.0021282  | 0.0031559  |   1.4 |  0.07
Modify  | 0.1047     | 0.33743    | 1.321      |  73.9 | 11.14
Other   |            | 0.1046     |            |       |  3.46

Nlocal:        10.0208 ave          36 max           0 min
Histogram: 20 7 5 4 4 0 0 0 4 4
Nghost:        1928.23 ave        2413 max        1337 min
Histogram: 8 0 0 0 24 0 0 0 0 16
Neighs:              0 ave           0 max           0 min
Histogram: 48 0 0 0 0 0 0 0 0 0

Total # of neighbors = 0
Ave neighs/atom = 0
Ave special neighs/atom = 15.567568
Neighbor list builds = 39
Dangerous builds = 0
[...]
MPI task timing breakdown:
Section |  min time  |  avg time  |  max time  |%varavg| %total
---------------------------------------------------------------
Pair    | 0.0034695  | 0.14475    | 0.81133    |  54.0 |  4.84
Bond    | 0.0010228  | 0.18259    | 0.83411    |  56.0 |  6.10
Neigh   | 0.0049716  | 0.0053511  | 0.0057969  |   0.3 |  0.18
Comm    | 1.1664     | 2.2172     | 2.7279     |  32.8 | 74.12
Output  | 0.0011279  | 0.0021435  | 0.0031701  |   1.4 |  0.07
Modify  | 0.10077    | 0.33461    | 1.3244     |  73.2 | 11.19
Other   |            | 0.1046     |            |       |  3.50

Nlocal:        10.0208 ave          38 max           0 min
Histogram: 18 8 7 5 2 0 0 1 4 3
Nghost:        1928.73 ave        2409 max        1336 min
Histogram: 8 0 0 0 24 0 0 0 0 16
Neighs:              0 ave           0 max           0 min
Histogram: 48 0 0 0 0 0 0 0 0 0

Total # of neighbors = 0
Ave neighs/atom = 0
Ave special neighs/atom = 15.567568
Neighbor list builds = 15
Dangerous builds = 0
fix             myat1 all ave/time 1000 10 10000 v_zave v_zdes file simulation_data/abpot/${cpt}.dat
fix             myat1 all ave/time 1000 10 10000 v_zave v_zdes file simulation_data/abpot/47.dat
run             50000
Generated 0 of 1 mixed pair_coeff terms from geometric mixing rule
Per MPI rank memory allocation (min/avg/max) = 13.32 | 13.87 | 14.98 Mbytes
   Step          Temp          E_pair         E_mol          TotEng         Press     
   2790000   302.68517      364.21532      18536.355      19333.649     -231.72808    
   2800000   310.19788      370.14283      18509.509      19323.48      -53.134264    
   2810000   283.99522      372.13631      18492.356      19270.829      45.029373    
   2820000   302.89337      363.85351      18533.06       19330.29      -337.48653    
   2830000   314.14821      371.68124      18521.876      19343.037     -73.837712    
   2840000   290.21734      383.04739      18494.868      19293.155      240.55104    
Loop time of 15.1075 on 48 procs for 50000 steps with 481 atoms

Performance: 14.298 ns/day, 1.679 hours/ns, 3309.619 timesteps/s, 1.592 Matom-step/s
100.0% CPU use with 48 MPI tasks x 1 OpenMP threads

MPI task timing breakdown:
Section |  min time  |  avg time  |  max time  |%varavg| %total
---------------------------------------------------------------
Pair    | 0.017156   | 0.72393    | 4.0434     | 120.4 |  4.79
Bond    | 0.0051532  | 0.91272    | 4.0572     | 125.3 |  6.04
Neigh   | 0.023004   | 0.024733   | 0.026726   |   0.6 |  0.16
Comm    | 6.2094     | 11.217     | 13.791     |  73.6 | 74.25
Output  | 0.0054914  | 0.010553   | 0.015534   |   3.1 |  0.07
Modify  | 0.49709    | 1.6963     | 6.6586     | 165.9 | 11.23
Other   |            | 0.522      |            |       |  3.45

Nlocal:        10.0208 ave          47 max           0 min
Histogram: 22 8 7 3 2 1 1 1 2 1
Nghost:        1930.98 ave        2413 max        1326 min
Histogram: 8 0 0 0 24 0 0 0 0 16
Neighs:              0 ave           0 max           0 min
Histogram: 48 0 0 0 0 0 0 0 0 0

Total # of neighbors = 0
Ave neighs/atom = 0
Ave special neighs/atom = 15.567568
Neighbor list builds = 68
Dangerous builds = 0
unfix           myat1
next            cpt
jump            SELF loop
variable        zdes equal  -15+0.60*(${cpt}-1)
variable        zdes equal  -15+0.60*(48-1)
variable        zave equal xcm(H2,z)
fix             mytth2 H2 spring tether ${k1} 2.5 2.5 ${zdes} 0
fix             mytth2 H2 spring tether 3 2.5 2.5 ${zdes} 0
fix             mytth2 H2 spring tether 3 2.5 2.5 13.2 0
run             10000
Generated 0 of 1 mixed pair_coeff terms from geometric mixing rule
Per MPI rank memory allocation (min/avg/max) = 13.32 | 13.87 | 14.98 Mbytes
   Step          Temp          E_pair         E_mol          TotEng         Press     
   2840000   290.21734      383.04739      18494.868      19293.155      240.55104    
   2850000   289.99861      367.5214       18500.484      19282.932     -240.68878    
Loop time of 3.03114 on 48 procs for 10000 steps with 481 atoms

Performance: 14.252 ns/day, 1.684 hours/ns, 3299.085 timesteps/s, 1.587 Matom-step/s
100.0% CPU use with 48 MPI tasks x 1 OpenMP threads

MPI task timing breakdown:
Section |  min time  |  avg time  |  max time  |%varavg| %total
---------------------------------------------------------------
Pair    | 0.003459   | 0.14479    | 0.77515    |  53.5 |  4.78
Bond    | 0.0010302  | 0.18282    | 0.76923    |  55.8 |  6.03
Neigh   | 0.0068336  | 0.0073475  | 0.0079308  |   0.3 |  0.24
Comm    | 1.3092     | 2.2446     | 2.7499     |  32.9 | 74.05
Output  | 0.0011174  | 0.0021415  | 0.0031714  |   1.4 |  0.07
Modify  | 0.10091    | 0.34478    | 1.3381     |  74.3 | 11.37
Other   |            | 0.1047     |            |       |  3.45

Nlocal:        10.0208 ave          45 max           0 min
Histogram: 20 8 7 5 2 1 0 1 2 2
Nghost:        1921.35 ave        2395 max        1328 min
Histogram: 8 0 0 0 24 0 0 0 0 16
Neighs:              0 ave           0 max           0 min
Histogram: 48 0 0 0 0 0 0 0 0 0

Total # of neighbors = 0
Ave neighs/atom = 0
Ave special neighs/atom = 15.567568
Neighbor list builds = 20
Dangerous builds = 0
fix             myat1 all ave/time 1000 10 10000 v_zave v_zdes file simulation_data/abpot/${cpt}.dat
fix             myat1 all ave/time 1000 10 10000 v_zave v_zdes file simulation_data/abpot/48.dat
run             50000
Generated 0 of 1 mixed pair_coeff terms from geometric mixing rule
Per MPI rank memory allocation (min/avg/max) = 13.32 | 13.87 | 14.98 Mbytes
   Step          Temp          E_pair         E_mol          TotEng         Press     
   2850000   289.99861      367.5214       18500.484      19282.932     -240.68878    
   2860000   307.22785      367.87925      18528.62       19336.077     -228.79387    
   2870000   288.47755      380.77077      18520.289      19313.81       192.94308    
   2880000   293.46388      374.74504      18523.118      19317.748     -25.518774    
   2890000   291.67         367.42405      18551.219      19335.962     -167.89232    
   2900000   306.98796      372.32663      18546.714      19358.276     -139.08924    
Loop time of 15.5234 on 48 procs for 50000 steps with 481 atoms

Performance: 13.914 ns/day, 1.725 hours/ns, 3220.939 timesteps/s, 1.549 Matom-step/s
100.0% CPU use with 48 MPI tasks x 1 OpenMP threads

MPI task timing breakdown:
Section |  min time  |  avg time  |  max time  |%varavg| %total
---------------------------------------------------------------
Pair    | 0.017182   | 0.7239     | 3.7844     | 120.1 |  4.66
Bond    | 0.0051586  | 0.91336    | 4.2404     | 125.6 |  5.88
Neigh   | 0.03222    | 0.034532   | 0.037217   |   0.7 |  0.22
Comm    | 6.3164     | 11.562     | 14.16      |  74.9 | 74.48
Output  | 0.0056101  | 0.010775   | 0.015987   |   3.2 |  0.07
Modify  | 0.50807    | 1.7548     | 7.0177     | 173.4 | 11.30
Other   |            | 0.5239     |            |       |  3.37

Nlocal:        10.0208 ave          41 max           0 min
Histogram: 22 4 9 4 1 0 2 2 1 3
Nghost:        1928.48 ave        2406 max        1332 min
Histogram: 8 0 0 0 24 0 0 0 0 16
Neighs:              0 ave           0 max           0 min
Histogram: 48 0 0 0 0 0 0 0 0 0

Total # of neighbors = 0
Ave neighs/atom = 0
Ave special neighs/atom = 15.567568
Neighbor list builds = 92
Dangerous builds = 0
unfix           myat1
next            cpt
jump            SELF loop
variable        zdes equal  -15+0.60*(${cpt}-1)
variable        zdes equal  -15+0.60*(49-1)
variable        zave equal xcm(H2,z)
fix             mytth2 H2 spring tether ${k1} 2.5 2.5 ${zdes} 0
fix             mytth2 H2 spring tether 3 2.5 2.5 ${zdes} 0
fix             mytth2 H2 spring tether 3 2.5 2.5 13.8 0
run             10000
Generated 0 of 1 mixed pair_coeff terms from geometric mixing rule
Per MPI rank memory allocation (min/avg/max) = 13.32 | 13.87 | 14.98 Mbytes
   Step          Temp          E_pair         E_mol          TotEng         Press     
   2900000   306.98796      372.32663      18546.714      19358.276     -139.08924    
   2910000   292.55122      372.85132      18523.122      19314.552      9.7860426    
Loop time of 3.18416 on 48 procs for 10000 steps with 481 atoms

Performance: 13.567 ns/day, 1.769 hours/ns, 3140.541 timesteps/s, 1.511 Matom-step/s
100.0% CPU use with 48 MPI tasks x 1 OpenMP threads

MPI task timing breakdown:
Section |  min time  |  avg time  |  max time  |%varavg| %total
---------------------------------------------------------------
Pair    | 0.0034149  | 0.14493    | 0.83474    |  54.5 |  4.55
Bond    | 0.0010381  | 0.18251    | 0.91429    |  56.5 |  5.73
Neigh   | 0.0059551  | 0.0063841  | 0.0068656  |   0.3 |  0.20
Comm    | 1.196      | 2.3763     | 2.9088     |  34.9 | 74.63
Output  | 0.0011409  | 0.0021506  | 0.0031595  |   1.4 |  0.07
Modify  | 0.099848   | 0.36708    | 1.5        |  82.0 | 11.53
Other   |            | 0.1048     |            |       |  3.29

Nlocal:        10.0208 ave          47 max           0 min
Histogram: 21 9 8 2 2 1 2 0 1 2
Nghost:        1933.98 ave        2415 max        1326 min
Histogram: 8 0 0 0 24 0 0 0 0 16
Neighs:              0 ave           0 max           0 min
Histogram: 48 0 0 0 0 0 0 0 0 0

Total # of neighbors = 0
Ave neighs/atom = 0
Ave special neighs/atom = 15.567568
Neighbor list builds = 16
Dangerous builds = 0
fix             myat1 all ave/time 1000 10 10000 v_zave v_zdes file simulation_data/abpot/${cpt}.dat
fix             myat1 all ave/time 1000 10 10000 v_zave v_zdes file simulation_data/abpot/49.dat
run             50000
Generated 0 of 1 mixed pair_coeff terms from geometric mixing rule
Per MPI rank memory allocation (min/avg/max) = 13.32 | 13.87 | 14.98 Mbytes
   Step          Temp          E_pair         E_mol          TotEng         Press     
   2910000   292.55122      372.85132      18523.122      19314.552      9.7860426    
   2920000   292.69861      380.18934      18501.093      19300.073      157.75784    
   2930000   291.07684      367.06614      18526.479      19310.015     -179.48074    
   2940000   311.93366      367.67834      18527.977      19341.967     -127.8564     
   2950000   307.96125      371.95241      18534.579      19347.159      68.557436    
   2960000   290.81646      374.42895      18536.388      19326.913     -2.8339152    
Loop time of 15.5847 on 48 procs for 50000 steps with 481 atoms

Performance: 13.860 ns/day, 1.732 hours/ns, 3208.272 timesteps/s, 1.543 Matom-step/s
100.0% CPU use with 48 MPI tasks x 1 OpenMP threads

MPI task timing breakdown:
Section |  min time  |  avg time  |  max time  |%varavg| %total
---------------------------------------------------------------
Pair    | 0.017302   | 0.72291    | 3.9614     | 120.5 |  4.64
Bond    | 0.0051673  | 0.91316    | 3.9808     | 125.0 |  5.86
Neigh   | 0.036688   | 0.039243   | 0.042246   |   0.7 |  0.25
Comm    | 6.7771     | 11.596     | 14.217     |  74.9 | 74.41
Output  | 0.0056939  | 0.010812   | 0.015981   |   3.1 |  0.07
Modify  | 0.50244    | 1.7816     | 7.0925     | 174.0 | 11.43
Other   |            | 0.5211     |            |       |  3.34

Nlocal:        10.0208 ave          37 max           0 min
Histogram: 21 4 8 4 3 0 0 2 1 5
Nghost:         1930.1 ave        2418 max        1338 min
Histogram: 8 0 0 0 24 0 0 0 0 16
Neighs:              0 ave           0 max           0 min
Histogram: 48 0 0 0 0 0 0 0 0 0

Total # of neighbors = 0
Ave neighs/atom = 0
Ave special neighs/atom = 15.567568
Neighbor list builds = 102
Dangerous builds = 0
unfix           myat1
next            cpt
jump            SELF loop
variable        zdes equal  -15+0.60*(${cpt}-1)
variable        zdes equal  -15+0.60*(50-1)
variable        zave equal xcm(H2,z)
fix             mytth2 H2 spring tether ${k1} 2.5 2.5 ${zdes} 0
fix             mytth2 H2 spring tether 3 2.5 2.5 ${zdes} 0
fix             mytth2 H2 spring tether 3 2.5 2.5 14.4 0
run             10000
Generated 0 of 1 mixed pair_coeff terms from geometric mixing rule
Per MPI rank memory allocation (min/avg/max) = 13.32 | 13.87 | 14.98 Mbytes
   Step          Temp          E_pair         E_mol          TotEng         Press     
   2960000   290.81646      374.42895      18536.388      19326.913     -2.8339152    
   2970000   291.61956      365.44248      18531.603      19314.292     -283.09223    
Loop time of 3.07464 on 48 procs for 10000 steps with 481 atoms

Performance: 14.050 ns/day, 1.708 hours/ns, 3252.415 timesteps/s, 1.564 Matom-step/s
100.0% CPU use with 48 MPI tasks x 1 OpenMP threads

MPI task timing breakdown:
Section |  min time  |  avg time  |  max time  |%varavg| %total
---------------------------------------------------------------
Pair    | 0.0034199  | 0.14453    | 0.75539    |  53.6 |  4.70
Bond    | 0.0010248  | 0.1824     | 0.83201    |  56.3 |  5.93
Neigh   | 0.0040952  | 0.0044222  | 0.0047989  |   0.3 |  0.14
Comm    | 1.2535     | 2.2879     | 2.8167     |  33.6 | 74.41
Output  | 0.0011408  | 0.0021652  | 0.0031909  |   1.4 |  0.07
Modify  | 0.10048    | 0.34904    | 1.4036     |  77.9 | 11.35
Other   |            | 0.1042     |            |       |  3.39

Nlocal:        10.0208 ave          42 max           0 min
Histogram: 22 8 4 5 1 2 2 0 0 4
Nghost:        1930.73 ave        2416 max        1332 min
Histogram: 8 0 0 0 24 0 0 0 0 16
Neighs:              0 ave           0 max           0 min
Histogram: 48 0 0 0 0 0 0 0 0 0

Total # of neighbors = 0
Ave neighs/atom = 0
Ave special neighs/atom = 15.567568
Neighbor list builds = 12
Dangerous builds = 0
fix             myat1 all ave/time 1000 10 10000 v_zave v_zdes file simulation_data/abpot/${cpt}.dat
fix             myat1 all ave/time 1000 10 10000 v_zave v_zdes file simulation_data/abpot/50.dat
run             50000
Generated 0 of 1 mixed pair_coeff terms from geometric mixing rule
Per MPI rank memory allocation (min/avg/max) = 13.32 | 13.87 | 14.98 Mbytes
   Step          Temp          E_pair         E_mol          TotEng         Press     
   2970000   291.61956      365.44248      18531.603      19314.292     -283.09223    
   2980000   292.24231      363.29568      18512.59       19294.022     -314.97128    
   2990000   317.09354      381.3594       18520.154      19355.208      177.59517    
   3000000   317.7448       368.24877      18529.339      19352.213     -62.282591    
   3010000   294.17612      378.02123      18523.988      19322.913      181.1015     
   3020000   293.11597      374.40526      18519.465      19313.257      56.570579    
Loop time of 15.4524 on 48 procs for 50000 steps with 481 atoms

Performance: 13.978 ns/day, 1.717 hours/ns, 3235.738 timesteps/s, 1.556 Matom-step/s
100.0% CPU use with 48 MPI tasks x 1 OpenMP threads

MPI task timing breakdown:
Section |  min time  |  avg time  |  max time  |%varavg| %total
---------------------------------------------------------------
Pair    | 0.01708    | 0.72137    | 3.7723     | 119.3 |  4.67
Bond    | 0.0051682  | 0.91223    | 3.7593     | 124.9 |  5.90
Neigh   | 0.022311   | 0.023935   | 0.025872   |   0.6 |  0.15
Comm    | 7.035      | 11.51      | 14.124     |  74.1 | 74.49
Output  | 0.0054797  | 0.0106     | 0.015887   |   3.2 |  0.07
Modify  | 0.50299    | 1.754      | 6.9656     | 172.2 | 11.35
Other   |            | 0.5203     |            |       |  3.37

Nlocal:        10.0208 ave          46 max           0 min
Histogram: 21 6 10 3 1 3 0 0 2 2
Nghost:        1935.35 ave        2419 max        1327 min
Histogram: 8 0 0 0 24 0 0 0 0 16
Neighs:              0 ave           0 max           0 min
Histogram: 48 0 0 0 0 0 0 0 0 0

Total # of neighbors = 0
Ave neighs/atom = 0
Ave special neighs/atom = 15.567568
Neighbor list builds = 65
Dangerous builds = 0
unfix           myat1
next            cpt
jump            SELF loop
variable        zdes equal  -15+0.60*(${cpt}-1)
variable        zdes equal  -15+0.60*(51-1)
variable        zave equal xcm(H2,z)
fix             mytth2 H2 spring tether ${k1} 2.5 2.5 ${zdes} 0
fix             mytth2 H2 spring tether 3 2.5 2.5 ${zdes} 0
fix             mytth2 H2 spring tether 3 2.5 2.5 15 0
run             10000
Generated 0 of 1 mixed pair_coeff terms from geometric mixing rule
Per MPI rank memory allocation (min/avg/max) = 13.32 | 13.87 | 14.98 Mbytes
   Step          Temp          E_pair         E_mol          TotEng         Press     
   3020000   293.11597      374.40526      18519.465      19313.257      56.570579    
   3030000   286.11255      369.13354      18550.273      19328.773     -175.59567    
Loop time of 3.00457 on 48 procs for 10000 steps with 481 atoms

Performance: 14.378 ns/day, 1.669 hours/ns, 3328.265 timesteps/s, 1.601 Matom-step/s
100.0% CPU use with 48 MPI tasks x 1 OpenMP threads

MPI task timing breakdown:
Section |  min time  |  avg time  |  max time  |%varavg| %total
---------------------------------------------------------------
Pair    | 0.0033977  | 0.14437    | 0.73509    |  53.3 |  4.81
Bond    | 0.0010294  | 0.18271    | 0.79054    |  56.0 |  6.08
Neigh   | 0.0049093  | 0.005293   | 0.0057445  |   0.3 |  0.18
Comm    | 1.2825     | 2.2336     | 2.737      |  32.2 | 74.34
Output  | 0.0011387  | 0.0021743  | 0.0032156  |   1.4 |  0.07
Modify  | 0.099968   | 0.3326     | 1.2981     |  72.6 | 11.07
Other   |            | 0.1038     |            |       |  3.46

Nlocal:        10.0208 ave          48 max           0 min
Histogram: 20 10 10 1 0 3 0 1 2 1
Nghost:         1928.6 ave        2407 max        1330 min
Histogram: 8 0 0 0 24 0 0 0 0 16
Neighs:              0 ave           0 max           0 min
Histogram: 48 0 0 0 0 0 0 0 0 0

Total # of neighbors = 0
Ave neighs/atom = 0
Ave special neighs/atom = 15.567568
Neighbor list builds = 15
Dangerous builds = 0
fix             myat1 all ave/time 1000 10 10000 v_zave v_zdes file simulation_data/abpot/${cpt}.dat
fix             myat1 all ave/time 1000 10 10000 v_zave v_zdes file simulation_data/abpot/51.dat
run             50000
Generated 0 of 1 mixed pair_coeff terms from geometric mixing rule
Per MPI rank memory allocation (min/avg/max) = 13.32 | 13.87 | 14.98 Mbytes
   Step          Temp          E_pair         E_mol          TotEng         Press     
   3030000   286.11255      369.13354      18550.273      19328.773     -175.59567    
   3040000   291.76973      377.91301      18516.198      19311.572      243.47819    
   3050000   291.12767      373.26147      18513.847      19303.651     -0.26312765   
   3060000   296.0966       368.3851       18511.859      19303.896     -238.74475    
   3070000   305.62236      380.66621      18513.271      19331.219      146.92885    
   3080000   298.81867      366.45973      18555.175      19349.181     -257.33991    
Loop time of 15.3344 on 48 procs for 50000 steps with 481 atoms

Performance: 14.086 ns/day, 1.704 hours/ns, 3260.641 timesteps/s, 1.568 Matom-step/s
100.0% CPU use with 48 MPI tasks x 1 OpenMP threads

MPI task timing breakdown:
Section |  min time  |  avg time  |  max time  |%varavg| %total
---------------------------------------------------------------
Pair    | 0.017105   | 0.72232    | 3.7345     | 118.7 |  4.71
Bond    | 0.0051802  | 0.91284    | 4.0358     | 126.0 |  5.95
Neigh   | 0.021616   | 0.023226   | 0.025107   |   0.6 |  0.15
Comm    | 6.4319     | 11.41      | 13.962     |  72.6 | 74.41
Output  | 0.0057455  | 0.010868   | 0.016028   |   3.1 |  0.07
Modify  | 0.5144     | 1.7335     | 6.8109     | 165.8 | 11.30
Other   |            | 0.5216     |            |       |  3.40

Nlocal:        10.0208 ave          39 max           0 min
Histogram: 20 4 9 6 1 0 1 2 2 3
Nghost:        1924.48 ave        2399 max        1334 min
Histogram: 8 0 0 0 24 0 0 0 0 16
Neighs:              0 ave           0 max           0 min
Histogram: 48 0 0 0 0 0 0 0 0 0

Total # of neighbors = 0
Ave neighs/atom = 0
Ave special neighs/atom = 15.567568
Neighbor list builds = 63
Dangerous builds = 0
unfix           myat1
next            cpt
jump            SELF loop

Total wall time: 0:15:51
