# --- log file ---

variable pre equal 112 # desired pressure (Atm)
variable tem equal 300 # desired temperature (K)

variable k1 equal 2 # spring constant
variable k2 equal 2.5 # spring constant

units real
atom_style molecular
boundary p p p
neighbor 1.0 bin
neigh_modify delay 3 one 6000
bond_style harmonic
angle_style harmonic
dihedral_style opls
improper_style harmonic
pair_style hybrid lj/cut 14 sg 15 cb 30 # Fluid-fluid interactions have a cutoff of 15 Å, fluid-solid interactions have a cutoff of 30 Å
# *--* C-C parameters *--*
bond_style harmonic
angle_style harmonic
dihedral_style opls
improper_style harmonic
# *--* C-C parameters *--*


# 2. Read the graphite platelet data file and define potentials parameters
read_data       ../geometry/carbonPlatelets/simulation_data/abpot_sys.data  extra/atom/types 1
Reading data file ...
  orthogonal box = (-30 -30 -30) to (30 30 30)
  3 by 4 by 4 MPI processor grid
  reading atoms ...
  480 atoms
  reading velocities ...
  480 velocities
  scanning bonds ...
  2 = max bonds/atom
  scanning angles ...
  3 = max angles/atom
  scanning dihedrals ...
  8 = max dihedrals/atom
  scanning impropers ...
  2 = max impropers/atom
  orthogonal box = (-30 -30 -30) to (30 30 30)
  3 by 4 by 4 MPI processor grid
  reading bonds ...
  676 bonds
  reading angles ...
  1268 angles
  reading dihedrals ...
  2394 dihedrals
  reading impropers ...
  396 impropers
Finding 1-2 1-3 1-4 neighbors ...
  special bond factors lj:    0        0        0       
  special bond factors coul:  0        0        0       
     3 = max # of 1-2 neighbors
     6 = max # of 1-3 neighbors
    18 = max # of 1-4 neighbors
    18 = max # of special neighbors
  special bonds CPU = 0.003 seconds
  read_data CPU = 0.050 seconds
include         PARM.lammps

#////////////////////////////////////////////////////////////////////////////////////////////////////////////////////////////////
#//     Filename: PARM.lammps
#//     File Type: LAMMPS input script
#//     Description: This script defines the parameters for the simulation of hydrogen absorption in graphite platelets.
#//     Author: Edoardo Cabiati
#//     Date: 2024-07-27
#////////////////////////////////////////////////////////////////////////////////////////////////////////////////////////////////

mass 2 2.016 # For now at least, in accordance with the paper by Wang and Johnson,
             # 1998, the hydrogen atoms are regarded as simple spherical atoms

# //////////////////////////////////////    C-C potentials    //////////////////////////////////////
pair_coeff 1 1 lj/cut 0.066 3.4
bond_coeff 1 469 1.4
angle_coeff 1 63 120
dihedral_coeff 1 0 7.25 0 0
improper_coeff 1 5 180
special_bonds lj 0.0 0.0 0.5
Finding 1-2 1-3 1-4 neighbors ...
  special bond factors lj:    0        0        0.5     
  special bond factors coul:  0        0        0       
     3 = max # of 1-2 neighbors
     6 = max # of 1-3 neighbors
    18 = max # of 1-4 neighbors
    18 = max # of special neighbors
  special bonds CPU = 0.001 seconds
# //////////////////////////////////////    C-C potentials    //////////////////////////////////////
# -------------------------------------------------------------------------------------------------
# //////////////////////////////////////    H-H potentials    //////////////////////////////////////
variable alpha equal 1.713          #|
variable sigma equal 1.567          #|
variable gamma equal 0.00993        #|
variable c6 equal 12.14             #|      The parameters are all in atomic units, the conversion to kcal/mol
variable c8 equal 215.2             #|      is performed in the pair_sg.cpp file
variable c9 equal 143.1             #|
variable c10 equal 4813.9           #|
variable rc equal 8.321             #|
pair_coeff 2 2 sg ${alpha} ${sigma} ${gamma} ${c6} ${c8} ${c9} ${c10} ${rc} # H-H potentials
pair_coeff 2 2 sg 1.713 ${sigma} ${gamma} ${c6} ${c8} ${c9} ${c10} ${rc} 
pair_coeff 2 2 sg 1.713 1.567 ${gamma} ${c6} ${c8} ${c9} ${c10} ${rc} 
pair_coeff 2 2 sg 1.713 1.567 0.00993 ${c6} ${c8} ${c9} ${c10} ${rc} 
pair_coeff 2 2 sg 1.713 1.567 0.00993 12.14 ${c8} ${c9} ${c10} ${rc} 
pair_coeff 2 2 sg 1.713 1.567 0.00993 12.14 215.2 ${c9} ${c10} ${rc} 
pair_coeff 2 2 sg 1.713 1.567 0.00993 12.14 215.2 143.1 ${c10} ${rc} 
pair_coeff 2 2 sg 1.713 1.567 0.00993 12.14 215.2 143.1 4813.9 ${rc} 
pair_coeff 2 2 sg 1.713 1.567 0.00993 12.14 215.2 143.1 4813.9 8.321 
#pair_coeff 2 2 sg 1.713 1.567 0.00993 12.14 215.2 143.1 4813.9 8.321 # H-H potentials
# //////////////////////////////////////    H-H potentials    //////////////////////////////////////
# -------------------------------------------------------------------------------------------------
# //////////////////////////////////////    C-H potentials    //////////////////////////////////////
variable sigma_CC equal 3.43 # Å
variable sigma_HH equal 3.075 # Å
variable sigma_CH_geo equal sqrt(${sigma_CC}*${sigma_HH}) # Å
variable sigma_CH_geo equal sqrt(3.43*${sigma_HH}) 
variable sigma_CH_geo equal sqrt(3.43*3.075) 
variable sigma_CH_arit equal 0.5*(${sigma_CC}+${sigma_HH}) # Å
variable sigma_CH_arit equal 0.5*(3.43+${sigma_HH}) 
variable sigma_CH_arit equal 0.5*(3.43+3.075) 

variable P_par equal 0.57 # Å^3
variable P_perp equal 1.995 # Å^3
variable P_h equal 0.81 # Å^3
variable E_h equal 2.337e5*(1/503.23) # K * 1/503.23 kcal/mol/K = kcal/mol
variable E_c equal 1.39254e5*(1/503.23) # K * 1/503.23 kcal/mol/K = kcal/mol

variable epsilon equal 4*v_E_h*v_E_c*v_P_h*(v_P_par+v_P_perp/2)/(v_sigma_CH_geo^6*(v_E_h+v_E_c)) # kcal/mol

pair_coeff 1 2 cb ${epsilon} ${sigma_CH_geo} ${P_par} ${P_perp} # C-H potential
pair_coeff 1 2 cb 0.750549668586509 ${sigma_CH_geo} ${P_par} ${P_perp} 
pair_coeff 1 2 cb 0.750549668586509 3.24765299870537 ${P_par} ${P_perp} 
pair_coeff 1 2 cb 0.750549668586509 3.24765299870537 0.57 ${P_perp} 
pair_coeff 1 2 cb 0.750549668586509 3.24765299870537 0.57 1.995 
#pair_coeff 1 2 lj/cut 0.3025 2.065
# //////////////////////////////////////    C-H potentials    //////////////////////////////////////

# 3. Add a single hydrogen molecule to the system, close to the center of the first platelet
create_atoms    2 single 0 0 -2
Created 1 atoms
  using lattice units in orthogonal box = (-30 -30 -30) to (30 30 30)
  create_atoms CPU = 0.000 seconds

group           C type 1
480 atoms in group C
group           H2 type 2
1 atoms in group H2

# 4. Equilibration
timestep        0.05
fix             mytth1 C spring/self ${k2} # Apply a spring force to the carbon atoms
fix             mytth1 C spring/self 2.5 
velocity        all create ${tem} 48 rot yes mom yes dist gaussian # Initialize velocities
velocity        all create 300 48 rot yes mom yes dist gaussian 
fix             mynpt all npt temp ${tem} ${tem} 100 x ${pre} ${pre} 1000 y ${pre} ${pre} 1000 # Apply NPT ensemble to the system
fix             mynpt all npt temp 300 ${tem} 100 x ${pre} ${pre} 1000 y ${pre} ${pre} 1000 
fix             mynpt all npt temp 300 300 100 x ${pre} ${pre} 1000 y ${pre} ${pre} 1000 
fix             mynpt all npt temp 300 300 100 x 112 ${pre} 1000 y ${pre} ${pre} 1000 
fix             mynpt all npt temp 300 300 100 x 112 112 1000 y ${pre} ${pre} 1000 
fix             mynpt all npt temp 300 300 100 x 112 112 1000 y 112 ${pre} 1000 
fix             mynpt all npt temp 300 300 100 x 112 112 1000 y 112 112 1000 

thermo          10000
dump            dump all atom 1000 simulation_data/absorption_pot.lammpstrj

run             20000

CITE-CITE-CITE-CITE-CITE-CITE-CITE-CITE-CITE-CITE-CITE-CITE-CITE

Your simulation uses code contributions which should be cited:

- Type Label Framework: https://doi.org/10.1021/acs.jpcb.3c08419

@Article{Gissinger24,
 author = {Jacob R. Gissinger, Ilia Nikiforov, Yaser Afshar, Brendon Waters, Moon-ki Choi, Daniel S. Karls, Alexander Stukowski, Wonpil Im, Hendrik Heinz, Axel Kohlmeyer, and Ellad B. Tadmor},
 title = {Type Label Framework for Bonded Force Fields in LAMMPS},
 journal = {J. Phys. Chem. B},
 year =    2024,
 volume =  128,
 number =  13,
 pages =   {3282–-3297}
}

CITE-CITE-CITE-CITE-CITE-CITE-CITE-CITE-CITE-CITE-CITE-CITE-CITE

Generated 0 of 1 mixed pair_coeff terms from geometric mixing rule
Neighbor list info ...
  update: every = 1 steps, delay = 3 steps, check = yes
  max neighbors/atom: 6000, page size: 100000
  master list distance cutoff = 31
  ghost atom cutoff = 31
  binsize = 15.5, bins = 4 4 4
  4 neighbor lists, perpetual/occasional/extra = 4 0 0
  (1) pair lj/cut, perpetual, skip trim from (4)
      attributes: half, newton on, cut 15
      pair build: skip/trim
      stencil: none
      bin: none
  (2) pair sg, perpetual, skip trim from (4)
      attributes: half, newton on, cut 16
      pair build: skip/trim
      stencil: none
      bin: none
  (3) pair cb, perpetual, skip from (4)
      attributes: half, newton on
      pair build: skip
      stencil: none
      bin: none
  (4) neighbor class addition, perpetual
      attributes: half, newton on
      pair build: half/bin/newton
      stencil: half/bin/3d
      bin: standard
Per MPI rank memory allocation (min/avg/max) = 13.28 | 13.37 | 13.93 Mbytes
   Step          Temp          E_pair         E_mol          TotEng         Press          Volume    
         0   300            308.43814      19603.922      20341.597     -432.48369      216000       
     10000   316.19925      372.43749      18560.777      19385.629     -429.95184      178677.27    
     20000   321.12375      376.41763      18551.171      19387.049     -319.26564      135000.31    
Loop time of 7.64456 on 48 procs for 20000 steps with 481 atoms

Performance: 11.302 ns/day, 2.123 hours/ns, 2616.239 timesteps/s, 1.258 Matom-step/s
99.8% CPU use with 48 MPI tasks x 1 OpenMP threads

MPI task timing breakdown:
Section |  min time  |  avg time  |  max time  |%varavg| %total
---------------------------------------------------------------
Pair    | 0.11838    | 0.44309    | 2.3478     |  77.7 |  5.80
Bond    | 0.0036229  | 0.4172     | 2.335      | 114.8 |  5.46
Neigh   | 0.018375   | 0.020857   | 0.023862   |   1.0 |  0.27
Comm    | 2.1635     | 4.3409     | 6.3656     |  70.9 | 56.78
Output  | 0.0033019  | 0.0082086  | 0.013768   |   3.8 |  0.11
Modify  | 0.65467    | 2.1616     | 4.6545     | 108.6 | 28.28
Other   |            | 0.2527     |            |       |  3.31

Nlocal:        10.0208 ave          48 max           0 min
Histogram: 22 12 6 0 0 0 2 2 2 2
Nghost:        1818.35 ave        2346 max        1176 min
Histogram: 8 0 0 0 24 0 0 0 0 16
Neighs:              0 ave           0 max           0 min
Histogram: 48 0 0 0 0 0 0 0 0 0

Total # of neighbors = 0
Ave neighs/atom = 0
Ave special neighs/atom = 15.567568
Neighbor list builds = 53
Dangerous builds = 0
unfix           mynpt
unfix           mytth1

# 5. Umbrella sampling
fix             mynvt all nvt temp ${tem} ${tem} 100
fix             mynvt all nvt temp 300 ${tem} 100
fix             mynvt all nvt temp 300 300 100
fix             mytth1 C spring/self ${k2}
fix             mytth1 C spring/self 2.5

variable        cpt loop 51
label           loop
variable        zdes equal  -15+0.60*(${cpt}-1)
variable        zdes equal  -15+0.60*(1-1)
variable        zave equal xcm(H2,z)
fix             mytth2 H2 spring tether ${k1} 2.5 2.5 ${zdes} 0
fix             mytth2 H2 spring tether 2 2.5 2.5 ${zdes} 0
fix             mytth2 H2 spring tether 2 2.5 2.5 -15 0
run             10000
Generated 0 of 1 mixed pair_coeff terms from geometric mixing rule
Per MPI rank memory allocation (min/avg/max) = 13.32 | 13.7 | 14.98 Mbytes
   Step          Temp          E_pair         E_mol          TotEng         Press     
     20000   321.12375      376.41763      18551.171      19387.049     -319.26564    
     30000   305.33495      345.18714      18585.778      19367.835     -1061.288     
Loop time of 3.16394 on 48 procs for 10000 steps with 481 atoms

Performance: 13.654 ns/day, 1.758 hours/ns, 3160.616 timesteps/s, 1.520 Matom-step/s
100.0% CPU use with 48 MPI tasks x 1 OpenMP threads

MPI task timing breakdown:
Section |  min time  |  avg time  |  max time  |%varavg| %total
---------------------------------------------------------------
Pair    | 0.0034269  | 0.14672    | 0.85431    |  60.7 |  4.64
Bond    | 0.0010151  | 0.18424    | 1.0636     |  66.9 |  5.82
Neigh   | 0.033404   | 0.0368     | 0.040485   |   0.8 |  1.16
Comm    | 1.1683     | 2.3108     | 2.8694     |  40.8 | 73.04
Output  | 0.0012049  | 0.0030371  | 0.0051089  |   2.3 |  0.10
Modify  | 0.10346    | 0.37732    | 1.6562     |  87.2 | 11.93
Other   |            | 0.105      |            |       |  3.32

Nlocal:        10.0208 ave          48 max           0 min
Histogram: 22 12 4 2 0 1 2 2 0 3
Nghost:        1818.35 ave        2346 max        1175 min
Histogram: 8 0 0 0 24 0 0 0 0 16
Neighs:              0 ave           0 max           0 min
Histogram: 48 0 0 0 0 0 0 0 0 0

Total # of neighbors = 0
Ave neighs/atom = 0
Ave special neighs/atom = 15.567568
Neighbor list builds = 99
Dangerous builds = 0
fix             myat1 all ave/time 1000 10 10000 v_zave v_zdes file simulation_data/abpot/${cpt}.dat
fix             myat1 all ave/time 1000 10 10000 v_zave v_zdes file simulation_data/abpot/1.dat
run             50000
Generated 0 of 1 mixed pair_coeff terms from geometric mixing rule
Per MPI rank memory allocation (min/avg/max) = 13.32 | 13.72 | 14.98 Mbytes
   Step          Temp          E_pair         E_mol          TotEng         Press     
     30000   305.33495      345.18714      18585.778      19367.835     -1061.288     
     40000   300.31498      375.54516      18596.325      19401.557     -47.950772    
     50000   299.99208      393.65152      18556.434      19379.31       252.52448    
     60000   305.30798      376.25607      18542.049      19355.137      51.655563    
     70000   289.54794      386.00014      18523.141      19323.423      158.6578     
     80000   291.99018      399.17682      18491.385      19308.338      460.4153     
Loop time of 15.309 on 48 procs for 50000 steps with 481 atoms

Performance: 14.109 ns/day, 1.701 hours/ns, 3266.057 timesteps/s, 1.571 Matom-step/s
100.0% CPU use with 48 MPI tasks x 1 OpenMP threads

MPI task timing breakdown:
Section |  min time  |  avg time  |  max time  |%varavg| %total
---------------------------------------------------------------
Pair    | 0.017311   | 0.72359    | 4.2849     | 135.7 |  4.73
Bond    | 0.0051506  | 0.91776    | 4.7947     | 149.1 |  5.99
Neigh   | 0.041477   | 0.045778   | 0.050275   |   0.9 |  0.30
Comm    | 5.6368     | 11.19      | 13.841     |  89.8 | 73.09
Output  | 0.0058929  | 0.012992   | 0.02086    |   4.2 |  0.08
Modify  | 0.51322    | 1.8888     | 8.1262     | 187.9 | 12.34
Other   |            | 0.5302     |            |       |  3.46

Nlocal:        10.0208 ave          43 max           0 min
Histogram: 23 9 7 1 0 0 0 0 3 5
Nghost:        1818.35 ave        2347 max        1181 min
Histogram: 8 0 0 0 24 0 0 0 0 16
Neighs:              0 ave           0 max           0 min
Histogram: 48 0 0 0 0 0 0 0 0 0

Total # of neighbors = 0
Ave neighs/atom = 0
Ave special neighs/atom = 15.567568
Neighbor list builds = 122
Dangerous builds = 0
unfix           myat1
next            cpt
jump            SELF loop
variable        zdes equal  -15+0.60*(${cpt}-1)
variable        zdes equal  -15+0.60*(2-1)
variable        zave equal xcm(H2,z)
fix             mytth2 H2 spring tether ${k1} 2.5 2.5 ${zdes} 0
fix             mytth2 H2 spring tether 2 2.5 2.5 ${zdes} 0
fix             mytth2 H2 spring tether 2 2.5 2.5 -14.4 0
run             10000
Generated 0 of 1 mixed pair_coeff terms from geometric mixing rule
Per MPI rank memory allocation (min/avg/max) = 13.32 | 13.73 | 14.98 Mbytes
   Step          Temp          E_pair         E_mol          TotEng         Press     
     80000   291.99018      399.17682      18491.385      19308.338      460.4153     
     90000   286.27352      367.20545      18558.598      19335.401     -278.07866    
Loop time of 3.11269 on 48 procs for 10000 steps with 481 atoms

Performance: 13.879 ns/day, 1.729 hours/ns, 3212.657 timesteps/s, 1.545 Matom-step/s
100.0% CPU use with 48 MPI tasks x 1 OpenMP threads

MPI task timing breakdown:
Section |  min time  |  avg time  |  max time  |%varavg| %total
---------------------------------------------------------------
Pair    | 0.0033787  | 0.14345    | 0.91195    |  61.2 |  4.61
Bond    | 0.0010112  | 0.18142    | 0.90427    |  66.0 |  5.83
Neigh   | 0.00551    | 0.0059989  | 0.0062884  |   0.2 |  0.19
Comm    | 1.1663     | 2.2857     | 2.8435     |  40.5 | 73.43
Output  | 0.001157   | 0.0023294  | 0.0036262  |   1.6 |  0.07
Modify  | 0.10349    | 0.38708    | 1.6871     |  85.8 | 12.44
Other   |            | 0.1067     |            |       |  3.43

Nlocal:        10.0208 ave          48 max           0 min
Histogram: 21 13 6 0 0 1 2 1 1 3
Nghost:        1818.35 ave        2347 max        1179 min
Histogram: 8 0 0 0 24 0 0 0 0 16
Neighs:              0 ave           0 max           0 min
Histogram: 48 0 0 0 0 0 0 0 0 0

Total # of neighbors = 0
Ave neighs/atom = 0
Ave special neighs/atom = 15.567568
Neighbor list builds = 16
Dangerous builds = 0
fix             myat1 all ave/time 1000 10 10000 v_zave v_zdes file simulation_data/abpot/${cpt}.dat
fix             myat1 all ave/time 1000 10 10000 v_zave v_zdes file simulation_data/abpot/2.dat
run             50000
Generated 0 of 1 mixed pair_coeff terms from geometric mixing rule
Per MPI rank memory allocation (min/avg/max) = 13.32 | 13.73 | 14.98 Mbytes
   Step          Temp          E_pair         E_mol          TotEng         Press     
     90000   286.27352      367.20545      18558.598      19335.401     -278.07866    
    100000   319.75031      362.64632      18547.522      19367.664     -354.38285    
    110000   307.2707       389.25538      18542.667      19371.562      151.78681    
    120000   304.60917      369.95554      18583.641      19389.428     -282.26744    
    130000   301.8959       369.48789      18570.809      19372.246     -186.66954    
    140000   292.72133      382.31155      18539.311      19340.445      190.63137    
Loop time of 15.5348 on 48 procs for 50000 steps with 481 atoms

Performance: 13.904 ns/day, 1.726 hours/ns, 3218.578 timesteps/s, 1.548 Matom-step/s
100.0% CPU use with 48 MPI tasks x 1 OpenMP threads

MPI task timing breakdown:
Section |  min time  |  avg time  |  max time  |%varavg| %total
---------------------------------------------------------------
Pair    | 0.016914   | 0.71689    | 4.1808     | 135.5 |  4.61
Bond    | 0.0050403  | 0.90788    | 4.6052     | 148.1 |  5.84
Neigh   | 0.032669   | 0.035806   | 0.037861   |   0.6 |  0.23
Comm    | 5.7612     | 11.371     | 14.051     |  89.9 | 73.20
Output  | 0.0060961  | 0.011604   | 0.017279   |   3.3 |  0.07
Modify  | 0.52421    | 1.9579     | 8.3755     | 190.0 | 12.60
Other   |            | 0.5337     |            |       |  3.44

Nlocal:        10.0208 ave          52 max           0 min
Histogram: 25 12 3 0 0 3 1 1 1 2
Nghost:        1818.35 ave        2347 max        1171 min
Histogram: 8 0 0 0 24 0 0 0 0 16
Neighs:              0 ave           0 max           0 min
Histogram: 48 0 0 0 0 0 0 0 0 0

Total # of neighbors = 0
Ave neighs/atom = 0
Ave special neighs/atom = 15.567568
Neighbor list builds = 95
Dangerous builds = 0
unfix           myat1
next            cpt
jump            SELF loop
variable        zdes equal  -15+0.60*(${cpt}-1)
variable        zdes equal  -15+0.60*(3-1)
variable        zave equal xcm(H2,z)
fix             mytth2 H2 spring tether ${k1} 2.5 2.5 ${zdes} 0
fix             mytth2 H2 spring tether 2 2.5 2.5 ${zdes} 0
fix             mytth2 H2 spring tether 2 2.5 2.5 -13.8 0
run             10000
Generated 0 of 1 mixed pair_coeff terms from geometric mixing rule
Per MPI rank memory allocation (min/avg/max) = 13.32 | 13.75 | 14.98 Mbytes
   Step          Temp          E_pair         E_mol          TotEng         Press     
    140000   292.72133      382.31155      18539.311      19340.445      190.63137    
    150000   308.9487       372.67261      18531.897      19346.61       0.86235279   
Loop time of 3.09666 on 48 procs for 10000 steps with 481 atoms

Performance: 13.951 ns/day, 1.720 hours/ns, 3229.287 timesteps/s, 1.553 Matom-step/s
100.0% CPU use with 48 MPI tasks x 1 OpenMP threads

MPI task timing breakdown:
Section |  min time  |  avg time  |  max time  |%varavg| %total
---------------------------------------------------------------
Pair    | 0.0033872  | 0.14405    | 0.87725    |  60.7 |  4.65
Bond    | 0.0010168  | 0.1826     | 0.97062    |  66.6 |  5.90
Neigh   | 0.0035674  | 0.0038168  | 0.0040054  |   0.2 |  0.12
Comm    | 1.1909     | 2.2761     | 2.8281     |  40.7 | 73.50
Output  | 0.0011617  | 0.0021962  | 0.0032668  |   1.4 |  0.07
Modify  | 0.10372    | 0.38118    | 1.6814     |  85.9 | 12.31
Other   |            | 0.1067     |            |       |  3.45

Nlocal:        10.0208 ave          46 max           0 min
Histogram: 23 10 6 1 0 0 2 1 1 4
Nghost:        1818.35 ave        2347 max        1177 min
Histogram: 8 0 0 0 24 0 0 0 0 16
Neighs:              0 ave           0 max           0 min
Histogram: 48 0 0 0 0 0 0 0 0 0

Total # of neighbors = 0
Ave neighs/atom = 0
Ave special neighs/atom = 15.567568
Neighbor list builds = 9
Dangerous builds = 0
fix             myat1 all ave/time 1000 10 10000 v_zave v_zdes file simulation_data/abpot/${cpt}.dat
fix             myat1 all ave/time 1000 10 10000 v_zave v_zdes file simulation_data/abpot/3.dat
run             50000
Generated 0 of 1 mixed pair_coeff terms from geometric mixing rule
Per MPI rank memory allocation (min/avg/max) = 13.32 | 13.75 | 14.98 Mbytes
   Step          Temp          E_pair         E_mol          TotEng         Press     
    150000   308.9487       372.67261      18531.897      19346.61       0.86235279   
    160000   308.16208      367.12776      18561.57       19369.612     -176.21104    
    170000   308.22437      378.45854      18563.532      19382.995     -9.8810089    
    180000   318.4258       381.24371      18519.215      19356.059      205.9334     
    190000   302.14898      368.97863      18556.399      19357.689     -173.03548    
    200000   287.1364       366.9191       18525.213      19302.963     -127.29696    
Loop time of 15.8198 on 48 procs for 50000 steps with 481 atoms

Performance: 13.654 ns/day, 1.758 hours/ns, 3160.599 timesteps/s, 1.520 Matom-step/s
100.0% CPU use with 48 MPI tasks x 1 OpenMP threads

MPI task timing breakdown:
Section |  min time  |  avg time  |  max time  |%varavg| %total
---------------------------------------------------------------
Pair    | 0.016991   | 0.72226    | 4.6074     | 137.9 |  4.57
Bond    | 0.0051126  | 0.91496    | 4.7812     | 149.5 |  5.78
Neigh   | 0.031817   | 0.034982   | 0.037435   |   0.6 |  0.22
Comm    | 5.8204     | 11.656     | 14.498     |  92.9 | 73.68
Output  | 0.00597    | 0.011065   | 0.016299   |   3.1 |  0.07
Modify  | 0.5199     | 1.9532     | 8.6993     | 199.9 | 12.35
Other   |            | 0.5273     |            |       |  3.33

Nlocal:        10.0208 ave          44 max           0 min
Histogram: 22 11 6 1 0 0 0 2 4 2
Nghost:        1818.35 ave        2347 max        1179 min
Histogram: 8 0 0 0 24 0 0 0 0 16
Neighs:              0 ave           0 max           0 min
Histogram: 48 0 0 0 0 0 0 0 0 0

Total # of neighbors = 0
Ave neighs/atom = 0
Ave special neighs/atom = 15.567568
Neighbor list builds = 90
Dangerous builds = 0
unfix           myat1
next            cpt
jump            SELF loop
variable        zdes equal  -15+0.60*(${cpt}-1)
variable        zdes equal  -15+0.60*(4-1)
variable        zave equal xcm(H2,z)
fix             mytth2 H2 spring tether ${k1} 2.5 2.5 ${zdes} 0
fix             mytth2 H2 spring tether 2 2.5 2.5 ${zdes} 0
fix             mytth2 H2 spring tether 2 2.5 2.5 -13.2 0
run             10000
Generated 0 of 1 mixed pair_coeff terms from geometric mixing rule
Per MPI rank memory allocation (min/avg/max) = 13.32 | 13.75 | 14.98 Mbytes
   Step          Temp          E_pair         E_mol          TotEng         Press     
    200000   287.1364       366.9191       18525.213      19302.963     -127.29696    
    210000   277.68654      371.97932      18554.627      19323.917     -187.12262    
Loop time of 3.1883 on 48 procs for 10000 steps with 481 atoms

Performance: 13.550 ns/day, 1.771 hours/ns, 3136.471 timesteps/s, 1.509 Matom-step/s
100.0% CPU use with 48 MPI tasks x 1 OpenMP threads

MPI task timing breakdown:
Section |  min time  |  avg time  |  max time  |%varavg| %total
---------------------------------------------------------------
Pair    | 0.0034005  | 0.14364    | 0.8647     |  61.3 |  4.51
Bond    | 0.0010071  | 0.18175    | 0.92267    |  66.1 |  5.70
Neigh   | 0.0034867  | 0.0038043  | 0.0040356  |   0.2 |  0.12
Comm    | 1.2027     | 2.3475     | 2.9242     |  41.2 | 73.63
Output  | 0.0011342  | 0.0021058  | 0.0031353  |   1.4 |  0.07
Modify  | 0.10432    | 0.4036     | 1.7594     |  89.1 | 12.66
Other   |            | 0.1059     |            |       |  3.32

Nlocal:        10.0208 ave          47 max           0 min
Histogram: 24 10 5 1 0 0 1 2 4 1
Nghost:        1818.35 ave        2347 max        1176 min
Histogram: 8 0 0 0 24 0 0 0 0 16
Neighs:              0 ave           0 max           0 min
Histogram: 48 0 0 0 0 0 0 0 0 0

Total # of neighbors = 0
Ave neighs/atom = 0
Ave special neighs/atom = 15.567568
Neighbor list builds = 10
Dangerous builds = 0
fix             myat1 all ave/time 1000 10 10000 v_zave v_zdes file simulation_data/abpot/${cpt}.dat
fix             myat1 all ave/time 1000 10 10000 v_zave v_zdes file simulation_data/abpot/4.dat
run             50000
Generated 0 of 1 mixed pair_coeff terms from geometric mixing rule
Per MPI rank memory allocation (min/avg/max) = 13.32 | 13.75 | 14.98 Mbytes
   Step          Temp          E_pair         E_mol          TotEng         Press     
    210000   277.68654      371.97932      18554.627      19323.917     -187.12262    
    220000   285.94547      366.9951       18555.522      19331.644     -36.196629    
    230000   316.02411      366.3592       18555.807      19374.33      -279.86265    
    240000   302.0796       379.51792      18546.343      19358.073      111.54552    
    250000   302.40901      377.76767      18528.428      19338.879      103.30299    
    260000   300.68659      354.33067      18560.641      19345.191     -435.18518    
Loop time of 16.2846 on 48 procs for 50000 steps with 481 atoms

Performance: 13.264 ns/day, 1.809 hours/ns, 3070.378 timesteps/s, 1.477 Matom-step/s
100.0% CPU use with 48 MPI tasks x 1 OpenMP threads

MPI task timing breakdown:
Section |  min time  |  avg time  |  max time  |%varavg| %total
---------------------------------------------------------------
Pair    | 0.017067   | 0.72083    | 4.4665     | 137.9 |  4.43
Bond    | 0.0050798  | 0.91154    | 4.6288     | 148.4 |  5.60
Neigh   | 0.02715    | 0.029753   | 0.031569   |   0.6 |  0.18
Comm    | 6.2893     | 12.034     | 14.88      |  94.1 | 73.90
Output  | 0.0058756  | 0.010936   | 0.016193   |   3.2 |  0.07
Modify  | 0.52244    | 2.0467     | 9.0946     | 206.0 | 12.57
Other   |            | 0.5304     |            |       |  3.26

Nlocal:        10.0208 ave          48 max           0 min
Histogram: 22 11 7 0 0 1 0 4 0 3
Nghost:        1818.35 ave        2347 max        1175 min
Histogram: 8 0 0 0 24 0 0 0 0 16
Neighs:              0 ave           0 max           0 min
Histogram: 48 0 0 0 0 0 0 0 0 0

Total # of neighbors = 0
Ave neighs/atom = 0
Ave special neighs/atom = 15.567568
Neighbor list builds = 76
Dangerous builds = 0
unfix           myat1
next            cpt
jump            SELF loop
variable        zdes equal  -15+0.60*(${cpt}-1)
variable        zdes equal  -15+0.60*(5-1)
variable        zave equal xcm(H2,z)
fix             mytth2 H2 spring tether ${k1} 2.5 2.5 ${zdes} 0
fix             mytth2 H2 spring tether 2 2.5 2.5 ${zdes} 0
fix             mytth2 H2 spring tether 2 2.5 2.5 -12.6 0
run             10000
Generated 0 of 1 mixed pair_coeff terms from geometric mixing rule
Per MPI rank memory allocation (min/avg/max) = 13.32 | 13.75 | 14.98 Mbytes
   Step          Temp          E_pair         E_mol          TotEng         Press     
    260000   300.68659      354.33067      18560.641      19345.191     -435.18518    
    270000   291.58433      370.43444      18575.596      19363.226     -174.32672    
Loop time of 3.22161 on 48 procs for 10000 steps with 481 atoms

Performance: 13.409 ns/day, 1.790 hours/ns, 3104.037 timesteps/s, 1.493 Matom-step/s
100.0% CPU use with 48 MPI tasks x 1 OpenMP threads

MPI task timing breakdown:
Section |  min time  |  avg time  |  max time  |%varavg| %total
---------------------------------------------------------------
Pair    | 0.0033338  | 0.14399    | 0.93216    |  61.1 |  4.47
Bond    | 0.00099753 | 0.18209    | 0.89997    |  66.0 |  5.65
Neigh   | 0.0044442  | 0.0049516  | 0.0052342  |   0.3 |  0.15
Comm    | 1.2516     | 2.3628     | 2.957      |  41.3 | 73.34
Output  | 0.0011592  | 0.0021428  | 0.0031931  |   1.4 |  0.07
Modify  | 0.10323    | 0.41957    | 1.7967     |  89.1 | 13.02
Other   |            | 0.106      |            |       |  3.29

Nlocal:        10.0208 ave          44 max           0 min
Histogram: 23 10 6 1 0 0 0 1 3 4
Nghost:        1818.35 ave        2347 max        1181 min
Histogram: 8 0 0 0 24 0 0 0 0 16
Neighs:              0 ave           0 max           0 min
Histogram: 48 0 0 0 0 0 0 0 0 0

Total # of neighbors = 0
Ave neighs/atom = 0
Ave special neighs/atom = 15.567568
Neighbor list builds = 14
Dangerous builds = 0
fix             myat1 all ave/time 1000 10 10000 v_zave v_zdes file simulation_data/abpot/${cpt}.dat
fix             myat1 all ave/time 1000 10 10000 v_zave v_zdes file simulation_data/abpot/5.dat
run             50000
Generated 0 of 1 mixed pair_coeff terms from geometric mixing rule
Per MPI rank memory allocation (min/avg/max) = 13.32 | 13.75 | 14.98 Mbytes
   Step          Temp          E_pair         E_mol          TotEng         Press     
    270000   291.58433      370.43444      18575.596      19363.226     -174.32672    
    280000   306.82323      380.41646      18550.356      19369.771      125.93206    
    290000   307.77877      375.69418      18548.462      19364.523     -33.62472     
    300000   307.17738      380.734        18520.547      19340.787      195.13411    
    310000   293.54275      381.21186      18514.943      19316.152      136.05206    
    320000   297.56671      377.75784      18486.158      19289.671      37.705235    
Loop time of 16.0499 on 48 procs for 50000 steps with 481 atoms

Performance: 13.458 ns/day, 1.783 hours/ns, 3115.276 timesteps/s, 1.498 Matom-step/s
100.0% CPU use with 48 MPI tasks x 1 OpenMP threads

MPI task timing breakdown:
Section |  min time  |  avg time  |  max time  |%varavg| %total
---------------------------------------------------------------
Pair    | 0.017001   | 0.71991    | 4.7053     | 136.8 |  4.49
Bond    | 0.0050778  | 0.90908    | 4.4562     | 147.5 |  5.66
Neigh   | 0.020107   | 0.022031   | 0.023425   |   0.5 |  0.14
Comm    | 6.06       | 11.835     | 14.674     |  93.0 | 73.74
Output  | 0.0058121  | 0.010884   | 0.016081   |   3.2 |  0.07
Modify  | 0.52373    | 2.0225     | 8.9323     | 201.6 | 12.60
Other   |            | 0.5301     |            |       |  3.30

Nlocal:        10.0208 ave          45 max           0 min
Histogram: 22 10 8 0 0 0 0 3 2 3
Nghost:        1818.35 ave        2347 max        1180 min
Histogram: 8 0 0 0 24 0 0 0 0 16
Neighs:              0 ave           0 max           0 min
Histogram: 48 0 0 0 0 0 0 0 0 0

Total # of neighbors = 0
Ave neighs/atom = 0
Ave special neighs/atom = 15.567568
Neighbor list builds = 60
Dangerous builds = 0
unfix           myat1
next            cpt
jump            SELF loop
variable        zdes equal  -15+0.60*(${cpt}-1)
variable        zdes equal  -15+0.60*(6-1)
variable        zave equal xcm(H2,z)
fix             mytth2 H2 spring tether ${k1} 2.5 2.5 ${zdes} 0
fix             mytth2 H2 spring tether 2 2.5 2.5 ${zdes} 0
fix             mytth2 H2 spring tether 2 2.5 2.5 -12 0
run             10000
Generated 0 of 1 mixed pair_coeff terms from geometric mixing rule
Per MPI rank memory allocation (min/avg/max) = 13.32 | 13.75 | 14.98 Mbytes
   Step          Temp          E_pair         E_mol          TotEng         Press     
    320000   297.56671      377.75784      18486.158      19289.671      37.705235    
    330000   302.57878      373.19311      18544.416      19350.535     -40.645062    
Loop time of 3.19237 on 48 procs for 10000 steps with 481 atoms

Performance: 13.532 ns/day, 1.774 hours/ns, 3132.467 timesteps/s, 1.507 Matom-step/s
100.0% CPU use with 48 MPI tasks x 1 OpenMP threads

MPI task timing breakdown:
Section |  min time  |  avg time  |  max time  |%varavg| %total
---------------------------------------------------------------
Pair    | 0.0033969  | 0.14399    | 0.93326    |  60.9 |  4.51
Bond    | 0.0010042  | 0.18192    | 0.87695    |  66.0 |  5.70
Neigh   | 0.005033   | 0.0055274  | 0.0058459  |   0.2 |  0.17
Comm    | 1.2401     | 2.3501     | 2.9196     |  41.0 | 73.62
Output  | 0.0011834  | 0.002185   | 0.0032553  |   1.4 |  0.07
Modify  | 0.10346    | 0.40242    | 1.7638     |  88.9 | 12.61
Other   |            | 0.1062     |            |       |  3.33

Nlocal:        10.0208 ave          48 max           0 min
Histogram: 21 12 7 0 0 0 3 0 4 1
Nghost:        1818.35 ave        2347 max        1175 min
Histogram: 8 0 0 0 24 0 0 0 0 16
Neighs:              0 ave           0 max           0 min
Histogram: 48 0 0 0 0 0 0 0 0 0

Total # of neighbors = 0
Ave neighs/atom = 0
Ave special neighs/atom = 15.567568
Neighbor list builds = 15
Dangerous builds = 0
fix             myat1 all ave/time 1000 10 10000 v_zave v_zdes file simulation_data/abpot/${cpt}.dat
fix             myat1 all ave/time 1000 10 10000 v_zave v_zdes file simulation_data/abpot/6.dat
run             50000
Generated 0 of 1 mixed pair_coeff terms from geometric mixing rule
Per MPI rank memory allocation (min/avg/max) = 13.32 | 13.75 | 14.98 Mbytes
   Step          Temp          E_pair         E_mol          TotEng         Press     
    330000   302.57878      373.19311      18544.416      19350.535     -40.645062    
    340000   323.86843      367.37157      18537.257      19368.016     -204.22196    
    350000   295.95057      371.42431      18550.851      19345.718     -151.50313    
    360000   303.355        371.70674      18522.056      19327.799      1.8424644    
    370000   300.28322      373.54312      18532.564      19335.749      31.329364    
    380000   309.07076      365.05296      18552.758      19360.026     -243.36529    
Loop time of 16.0986 on 48 procs for 50000 steps with 481 atoms

Performance: 13.417 ns/day, 1.789 hours/ns, 3105.868 timesteps/s, 1.494 Matom-step/s
100.0% CPU use with 48 MPI tasks x 1 OpenMP threads

MPI task timing breakdown:
Section |  min time  |  avg time  |  max time  |%varavg| %total
---------------------------------------------------------------
Pair    | 0.017155   | 0.7216     | 4.6416     | 136.2 |  4.48
Bond    | 0.0050603  | 0.91181    | 4.6274     | 147.5 |  5.66
Neigh   | 0.032107   | 0.035154   | 0.037169   |   0.6 |  0.22
Comm    | 6.5303     | 11.855     | 14.757     |  92.5 | 73.64
Output  | 0.0058405  | 0.010868   | 0.016055   |   3.1 |  0.07
Modify  | 0.51389    | 2.0322     | 8.9427     | 201.6 | 12.62
Other   |            | 0.5318     |            |       |  3.30

Nlocal:        10.0208 ave          55 max           0 min
Histogram: 25 12 2 1 1 1 2 3 0 1
Nghost:        1818.35 ave        2347 max        1168 min
Histogram: 8 0 0 0 24 0 0 0 0 16
Neighs:              0 ave           0 max           0 min
Histogram: 48 0 0 0 0 0 0 0 0 0

Total # of neighbors = 0
Ave neighs/atom = 0
Ave special neighs/atom = 15.567568
Neighbor list builds = 94
Dangerous builds = 0
unfix           myat1
next            cpt
jump            SELF loop
variable        zdes equal  -15+0.60*(${cpt}-1)
variable        zdes equal  -15+0.60*(7-1)
variable        zave equal xcm(H2,z)
fix             mytth2 H2 spring tether ${k1} 2.5 2.5 ${zdes} 0
fix             mytth2 H2 spring tether 2 2.5 2.5 ${zdes} 0
fix             mytth2 H2 spring tether 2 2.5 2.5 -11.4 0
run             10000
Generated 0 of 1 mixed pair_coeff terms from geometric mixing rule
Per MPI rank memory allocation (min/avg/max) = 13.32 | 13.75 | 14.98 Mbytes
   Step          Temp          E_pair         E_mol          TotEng         Press     
    380000   309.07076      365.05296      18552.758      19360.026     -243.36529    
    390000   316.94264      373.48312      18518.979      19345.94       53.788409    
Loop time of 3.20553 on 48 procs for 10000 steps with 481 atoms

Performance: 13.477 ns/day, 1.781 hours/ns, 3119.605 timesteps/s, 1.501 Matom-step/s
100.0% CPU use with 48 MPI tasks x 1 OpenMP threads

MPI task timing breakdown:
Section |  min time  |  avg time  |  max time  |%varavg| %total
---------------------------------------------------------------
Pair    | 0.0033885  | 0.14423    | 0.93179    |  61.3 |  4.50
Bond    | 0.001023   | 0.18207    | 0.93752    |  66.1 |  5.68
Neigh   | 0.0048714  | 0.0053224  | 0.0056018  |   0.2 |  0.17
Comm    | 1.2424     | 2.3664     | 2.94       |  41.5 | 73.82
Output  | 0.0011753  | 0.0022039  | 0.0032739  |   1.4 |  0.07
Modify  | 0.10174    | 0.39872    | 1.7799     |  90.7 | 12.44
Other   |            | 0.1065     |            |       |  3.32

Nlocal:        10.0208 ave          50 max           0 min
Histogram: 23 10 7 0 0 1 1 3 1 2
Nghost:        1818.35 ave        2348 max        1173 min
Histogram: 8 0 0 0 24 0 0 0 0 16
Neighs:              0 ave           0 max           0 min
Histogram: 48 0 0 0 0 0 0 0 0 0

Total # of neighbors = 0
Ave neighs/atom = 0
Ave special neighs/atom = 15.567568
Neighbor list builds = 14
Dangerous builds = 0
fix             myat1 all ave/time 1000 10 10000 v_zave v_zdes file simulation_data/abpot/${cpt}.dat
fix             myat1 all ave/time 1000 10 10000 v_zave v_zdes file simulation_data/abpot/7.dat
run             50000
Generated 0 of 1 mixed pair_coeff terms from geometric mixing rule
Per MPI rank memory allocation (min/avg/max) = 13.32 | 13.75 | 14.98 Mbytes
   Step          Temp          E_pair         E_mol          TotEng         Press     
    390000   316.94264      373.48312      18518.979      19345.94       53.788409    
    400000   285.45885      377.01311      18541.052      19326.497      40.251472    
    410000   287.84389      370.86141      18566.705      19349.41      -336.37189    
    420000   321.19844      368.61088      18552.635      19380.813     -226.55335    
    430000   315.11414      372.60434      18540.854      19364.32      -68.014247    
    440000   313.07467      381.63925      18525.675      19355.258      203.36904    
Loop time of 16.0026 on 48 procs for 50000 steps with 481 atoms

Performance: 13.498 ns/day, 1.778 hours/ns, 3124.488 timesteps/s, 1.503 Matom-step/s
100.0% CPU use with 48 MPI tasks x 1 OpenMP threads

MPI task timing breakdown:
Section |  min time  |  avg time  |  max time  |%varavg| %total
---------------------------------------------------------------
Pair    | 0.017129   | 0.72088    | 4.8147     | 137.6 |  4.50
Bond    | 0.0050696  | 0.90968    | 4.6843     | 148.1 |  5.68
Neigh   | 0.029583   | 0.032306   | 0.034144   |   0.6 |  0.20
Comm    | 6.0229     | 11.699     | 14.626     |  91.5 | 73.10
Output  | 0.0057968  | 0.010862   | 0.016062   |   3.2 |  0.07
Modify  | 0.5226     | 2.0998     | 8.8422     | 194.7 | 13.12
Other   |            | 0.5306     |            |       |  3.32

Nlocal:        10.0208 ave          44 max           0 min
Histogram: 22 9 9 0 0 0 0 3 1 4
Nghost:        1818.35 ave        2347 max        1179 min
Histogram: 8 0 0 0 24 0 0 0 0 16
Neighs:              0 ave           0 max           0 min
Histogram: 48 0 0 0 0 0 0 0 0 0

Total # of neighbors = 0
Ave neighs/atom = 0
Ave special neighs/atom = 15.567568
Neighbor list builds = 86
Dangerous builds = 0
unfix           myat1
next            cpt
jump            SELF loop
variable        zdes equal  -15+0.60*(${cpt}-1)
variable        zdes equal  -15+0.60*(8-1)
variable        zave equal xcm(H2,z)
fix             mytth2 H2 spring tether ${k1} 2.5 2.5 ${zdes} 0
fix             mytth2 H2 spring tether 2 2.5 2.5 ${zdes} 0
fix             mytth2 H2 spring tether 2 2.5 2.5 -10.8 0
run             10000
Generated 0 of 1 mixed pair_coeff terms from geometric mixing rule
Per MPI rank memory allocation (min/avg/max) = 13.32 | 13.76 | 14.98 Mbytes
   Step          Temp          E_pair         E_mol          TotEng         Press     
    440000   313.07467      381.63925      18525.675      19355.258      203.36904    
    450000   297.98607      373.85233      18538.957      19339.164     -172.02073    
Loop time of 3.20384 on 48 procs for 10000 steps with 481 atoms

Performance: 13.484 ns/day, 1.780 hours/ns, 3121.252 timesteps/s, 1.501 Matom-step/s
100.0% CPU use with 48 MPI tasks x 1 OpenMP threads

MPI task timing breakdown:
Section |  min time  |  avg time  |  max time  |%varavg| %total
---------------------------------------------------------------
Pair    | 0.0034165  | 0.14471    | 0.97791    |  61.6 |  4.52
Bond    | 0.0010088  | 0.18251    | 0.97405    |  66.7 |  5.70
Neigh   | 0.0046394  | 0.005084   | 0.0053775  |   0.2 |  0.16
Comm    | 1.1749     | 2.3389     | 2.9376     |  41.5 | 73.00
Output  | 0.0011793  | 0.0021924  | 0.0032707  |   1.4 |  0.07
Modify  | 0.104      | 0.42344    | 1.7828     |  88.5 | 13.22
Other   |            | 0.107      |            |       |  3.34

Nlocal:        10.0208 ave          49 max           0 min
Histogram: 21 15 4 0 0 0 2 3 1 2
Nghost:        1818.35 ave        2346 max        1174 min
Histogram: 8 0 0 0 24 0 0 0 0 16
Neighs:              0 ave           0 max           0 min
Histogram: 48 0 0 0 0 0 0 0 0 0

Total # of neighbors = 0
Ave neighs/atom = 0
Ave special neighs/atom = 15.567568
Neighbor list builds = 13
Dangerous builds = 0
fix             myat1 all ave/time 1000 10 10000 v_zave v_zdes file simulation_data/abpot/${cpt}.dat
fix             myat1 all ave/time 1000 10 10000 v_zave v_zdes file simulation_data/abpot/8.dat
run             50000
Generated 0 of 1 mixed pair_coeff terms from geometric mixing rule
Per MPI rank memory allocation (min/avg/max) = 13.32 | 13.76 | 14.98 Mbytes
   Step          Temp          E_pair         E_mol          TotEng         Press     
    450000   297.98607      373.85233      18538.957      19339.164     -172.02073    
    460000   297.91782      381.68052      18525.356      19333.294      21.463258    
    470000   308.44358      379.62757      18539.899      19360.845      31.008346    
    480000   319.52587      382.33572      18559.866      19399.376      66.471323    
    490000   314.17573      373.27708      18545.996      19368.792     -146.7262     
    500000   300.41393      370.19577      18541.415      19341.44      -289.39426    
Loop time of 15.9557 on 48 procs for 50000 steps with 481 atoms

Performance: 13.537 ns/day, 1.773 hours/ns, 3133.680 timesteps/s, 1.507 Matom-step/s
100.0% CPU use with 48 MPI tasks x 1 OpenMP threads

MPI task timing breakdown:
Section |  min time  |  avg time  |  max time  |%varavg| %total
---------------------------------------------------------------
Pair    | 0.017057   | 0.72061    | 4.8864     | 138.5 |  4.52
Bond    | 0.0051014  | 0.90936    | 4.8518     | 148.7 |  5.70
Neigh   | 0.016177   | 0.017713   | 0.018789   |   0.4 |  0.11
Comm    | 5.8778     | 11.687     | 14.628     |  92.0 | 73.25
Output  | 0.0058863  | 0.010863   | 0.016012   |   3.1 |  0.07
Modify  | 0.517      | 2.079      | 8.8812     | 195.9 | 13.03
Other   |            | 0.5309     |            |       |  3.33

Nlocal:        10.0208 ave          51 max           0 min
Histogram: 25 9 5 1 0 2 0 4 0 2
Nghost:        1818.35 ave        2346 max        1172 min
Histogram: 8 0 0 0 24 0 0 0 0 16
Neighs:              0 ave           0 max           0 min
Histogram: 48 0 0 0 0 0 0 0 0 0

Total # of neighbors = 0
Ave neighs/atom = 0
Ave special neighs/atom = 15.567568
Neighbor list builds = 46
Dangerous builds = 0
unfix           myat1
next            cpt
jump            SELF loop
variable        zdes equal  -15+0.60*(${cpt}-1)
variable        zdes equal  -15+0.60*(9-1)
variable        zave equal xcm(H2,z)
fix             mytth2 H2 spring tether ${k1} 2.5 2.5 ${zdes} 0
fix             mytth2 H2 spring tether 2 2.5 2.5 ${zdes} 0
fix             mytth2 H2 spring tether 2 2.5 2.5 -10.2 0
run             10000
Generated 0 of 1 mixed pair_coeff terms from geometric mixing rule
Per MPI rank memory allocation (min/avg/max) = 13.32 | 13.76 | 14.98 Mbytes
   Step          Temp          E_pair         E_mol          TotEng         Press     
    500000   300.41393      370.19577      18541.415      19341.44      -289.39426    
    510000   292.54864      375.98618      18533.286      19327.848      88.69412     
Loop time of 3.22056 on 48 procs for 10000 steps with 481 atoms

Performance: 13.414 ns/day, 1.789 hours/ns, 3105.049 timesteps/s, 1.494 Matom-step/s
100.0% CPU use with 48 MPI tasks x 1 OpenMP threads

MPI task timing breakdown:
Section |  min time  |  avg time  |  max time  |%varavg| %total
---------------------------------------------------------------
Pair    | 0.0034327  | 0.14392    | 0.9558     |  61.1 |  4.47
Bond    | 0.0010098  | 0.18184    | 0.87605    |  65.6 |  5.65
Neigh   | 0.0020598  | 0.0022588  | 0.0023877  |   0.1 |  0.07
Comm    | 1.2434     | 2.3769     | 2.952      |  41.4 | 73.80
Output  | 0.0011614  | 0.0021491  | 0.0031857  |   1.4 |  0.07
Modify  | 0.10278    | 0.40728    | 1.8149     |  90.7 | 12.65
Other   |            | 0.1062     |            |       |  3.30

Nlocal:        10.0208 ave          41 max           0 min
Histogram: 21 8 11 0 0 0 0 1 0 7
Nghost:        1818.35 ave        2347 max        1182 min
Histogram: 8 0 0 0 24 0 0 0 0 16
Neighs:              0 ave           0 max           0 min
Histogram: 48 0 0 0 0 0 0 0 0 0

Total # of neighbors = 0
Ave neighs/atom = 0
Ave special neighs/atom = 15.567568
Neighbor list builds = 6
Dangerous builds = 0
fix             myat1 all ave/time 1000 10 10000 v_zave v_zdes file simulation_data/abpot/${cpt}.dat
fix             myat1 all ave/time 1000 10 10000 v_zave v_zdes file simulation_data/abpot/9.dat
run             50000
Generated 0 of 1 mixed pair_coeff terms from geometric mixing rule
Per MPI rank memory allocation (min/avg/max) = 13.32 | 13.76 | 14.98 Mbytes
   Step          Temp          E_pair         E_mol          TotEng         Press     
    510000   292.54864      375.98618      18533.286      19327.848      88.69412     
    520000   286.33953      377.38402      18541.92       19328.995     -14.032394    
    530000   300.22154      378.60495      18539.139      19347.298      26.165974    
    540000   291.98838      379.78754      18571.053      19368.614      88.723808    
    550000   302.90641      372.1617       18556.755      19362.312     -30.401461    
    560000   269.31012      374.61795      18517.297      19277.241     -80.093297    
Loop time of 16.287 on 48 procs for 50000 steps with 481 atoms

Performance: 13.262 ns/day, 1.810 hours/ns, 3069.933 timesteps/s, 1.477 Matom-step/s
100.0% CPU use with 48 MPI tasks x 1 OpenMP threads

MPI task timing breakdown:
Section |  min time  |  avg time  |  max time  |%varavg| %total
---------------------------------------------------------------
Pair    | 0.017235   | 0.72066    | 4.9422     | 137.8 |  4.42
Bond    | 0.005071   | 0.91159    | 4.614      | 148.3 |  5.60
Neigh   | 0.026884   | 0.029455   | 0.031265   |   0.6 |  0.18
Comm    | 6.0503     | 12.003     | 14.889     |  93.4 | 73.70
Output  | 0.0058938  | 0.010914   | 0.016061   |   3.1 |  0.07
Modify  | 0.51259    | 2.0796     | 9.1187     | 202.5 | 12.77
Other   |            | 0.5314     |            |       |  3.26

Nlocal:        10.0208 ave          50 max           0 min
Histogram: 21 13 6 0 0 0 3 1 3 1
Nghost:        1818.35 ave        2347 max        1173 min
Histogram: 8 0 0 0 24 0 0 0 0 16
Neighs:              0 ave           0 max           0 min
Histogram: 48 0 0 0 0 0 0 0 0 0

Total # of neighbors = 0
Ave neighs/atom = 0
Ave special neighs/atom = 15.567568
Neighbor list builds = 80
Dangerous builds = 0
unfix           myat1
next            cpt
jump            SELF loop
variable        zdes equal  -15+0.60*(${cpt}-1)
variable        zdes equal  -15+0.60*(10-1)
variable        zave equal xcm(H2,z)
fix             mytth2 H2 spring tether ${k1} 2.5 2.5 ${zdes} 0
fix             mytth2 H2 spring tether 2 2.5 2.5 ${zdes} 0
fix             mytth2 H2 spring tether 2 2.5 2.5 -9.6 0
run             10000
Generated 0 of 1 mixed pair_coeff terms from geometric mixing rule
Per MPI rank memory allocation (min/avg/max) = 13.32 | 13.76 | 14.98 Mbytes
   Step          Temp          E_pair         E_mol          TotEng         Press     
    560000   269.31012      374.61795      18517.297      19277.241     -80.093297    
    570000   288.51967      381.86539      18557.029      19351.705      91.673325    
Loop time of 3.3353 on 48 procs for 10000 steps with 481 atoms

Performance: 12.952 ns/day, 1.853 hours/ns, 2998.231 timesteps/s, 1.442 Matom-step/s
100.0% CPU use with 48 MPI tasks x 1 OpenMP threads

MPI task timing breakdown:
Section |  min time  |  avg time  |  max time  |%varavg| %total
---------------------------------------------------------------
Pair    | 0.0034175  | 0.14409    | 1.0636     |  62.5 |  4.32
Bond    | 0.0010063  | 0.18203    | 0.98721    |  66.9 |  5.46
Neigh   | 0.0047905  | 0.0052321  | 0.0055491  |   0.2 |  0.16
Comm    | 1.1553     | 2.449      | 3.0289     |  42.0 | 73.43
Output  | 0.001195   | 0.002192   | 0.0032479  |   1.4 |  0.07
Modify  | 0.10112    | 0.44634    | 1.8914     |  90.8 | 13.38
Other   |            | 0.1064     |            |       |  3.19

Nlocal:        10.0208 ave          52 max           0 min
Histogram: 24 14 2 0 0 3 1 0 2 2
Nghost:        1818.35 ave        2348 max        1171 min
Histogram: 8 0 0 0 24 0 0 0 0 16
Neighs:              0 ave           0 max           0 min
Histogram: 48 0 0 0 0 0 0 0 0 0

Total # of neighbors = 0
Ave neighs/atom = 0
Ave special neighs/atom = 15.567568
Neighbor list builds = 14
Dangerous builds = 0
fix             myat1 all ave/time 1000 10 10000 v_zave v_zdes file simulation_data/abpot/${cpt}.dat
fix             myat1 all ave/time 1000 10 10000 v_zave v_zdes file simulation_data/abpot/10.dat
run             50000
Generated 0 of 1 mixed pair_coeff terms from geometric mixing rule
Per MPI rank memory allocation (min/avg/max) = 13.32 | 13.76 | 14.98 Mbytes
   Step          Temp          E_pair         E_mol          TotEng         Press     
    570000   288.51967      381.86539      18557.029      19351.705      91.673325    
    580000   311.99895      378.23046      18524.188      19348.823      56.715971    
    590000   323.49495      381.76745      18503.173      19347.793      158.07028    
    600000   301.18693      368.96678      18526.371      19326.273     -162.51045    
    610000   293.72325      374.34335      18527.123      19321.723      15.916943    
    620000   284.83813      379.45884      18520.987      19307.989      13.152528    
Loop time of 16.4642 on 48 procs for 50000 steps with 481 atoms

Performance: 13.119 ns/day, 1.829 hours/ns, 3036.890 timesteps/s, 1.461 Matom-step/s
100.0% CPU use with 48 MPI tasks x 1 OpenMP threads

MPI task timing breakdown:
Section |  min time  |  avg time  |  max time  |%varavg| %total
---------------------------------------------------------------
Pair    | 0.017095   | 0.72146    | 5.1967     | 139.3 |  4.38
Bond    | 0.0051022  | 0.91127    | 4.3974     | 148.3 |  5.53
Neigh   | 0.036442   | 0.040028   | 0.042442   |   0.7 |  0.24
Comm    | 5.8203     | 12.113     | 14.981     |  93.8 | 73.57
Output  | 0.0059104  | 0.010967   | 0.01613    |   3.2 |  0.07
Modify  | 0.51019    | 2.1355     | 9.2572     | 203.2 | 12.97
Other   |            | 0.5318     |            |       |  3.23

Nlocal:        10.0208 ave          49 max           0 min
Histogram: 22 12 5 1 0 0 4 0 1 3
Nghost:        1818.35 ave        2347 max        1174 min
Histogram: 8 0 0 0 24 0 0 0 0 16
Neighs:              0 ave           0 max           0 min
Histogram: 48 0 0 0 0 0 0 0 0 0

Total # of neighbors = 0
Ave neighs/atom = 0
Ave special neighs/atom = 15.567568
Neighbor list builds = 108
Dangerous builds = 0
unfix           myat1
next            cpt
jump            SELF loop
variable        zdes equal  -15+0.60*(${cpt}-1)
variable        zdes equal  -15+0.60*(11-1)
variable        zave equal xcm(H2,z)
fix             mytth2 H2 spring tether ${k1} 2.5 2.5 ${zdes} 0
fix             mytth2 H2 spring tether 2 2.5 2.5 ${zdes} 0
fix             mytth2 H2 spring tether 2 2.5 2.5 -9 0
run             10000
Generated 0 of 1 mixed pair_coeff terms from geometric mixing rule
Per MPI rank memory allocation (min/avg/max) = 13.32 | 13.76 | 14.98 Mbytes
   Step          Temp          E_pair         E_mol          TotEng         Press     
    620000   284.83813      379.45884      18520.987      19307.989      13.152528    
    630000   292.8861       360.82207      18553.688      19333.569     -282.02054    
Loop time of 3.40854 on 48 procs for 10000 steps with 481 atoms

Performance: 12.674 ns/day, 1.894 hours/ns, 2933.806 timesteps/s, 1.411 Matom-step/s
100.0% CPU use with 48 MPI tasks x 1 OpenMP threads

MPI task timing breakdown:
Section |  min time  |  avg time  |  max time  |%varavg| %total
---------------------------------------------------------------
Pair    | 0.0033678  | 0.14444    | 1.0435     |  62.8 |  4.24
Bond    | 0.001016   | 0.18247    | 0.95497    |  66.9 |  5.35
Neigh   | 0.0063223  | 0.0068666  | 0.0072312  |   0.2 |  0.20
Comm    | 1.2002     | 2.5218     | 3.1377     |  43.4 | 73.99
Output  | 0.0011873  | 0.0021853  | 0.0032497  |   1.4 |  0.06
Modify  | 0.10336    | 0.44425    | 1.9653     |  95.7 | 13.03
Other   |            | 0.1065     |            |       |  3.12

Nlocal:        10.0208 ave          50 max           0 min
Histogram: 20 16 4 0 0 1 1 2 2 2
Nghost:        1818.35 ave        2347 max        1173 min
Histogram: 8 0 0 0 24 0 0 0 0 16
Neighs:              0 ave           0 max           0 min
Histogram: 48 0 0 0 0 0 0 0 0 0

Total # of neighbors = 0
Ave neighs/atom = 0
Ave special neighs/atom = 15.567568
Neighbor list builds = 18
Dangerous builds = 0
fix             myat1 all ave/time 1000 10 10000 v_zave v_zdes file simulation_data/abpot/${cpt}.dat
fix             myat1 all ave/time 1000 10 10000 v_zave v_zdes file simulation_data/abpot/11.dat
run             50000
Generated 0 of 1 mixed pair_coeff terms from geometric mixing rule
Per MPI rank memory allocation (min/avg/max) = 13.32 | 13.76 | 14.98 Mbytes
   Step          Temp          E_pair         E_mol          TotEng         Press     
    630000   292.8861       360.82207      18553.688      19333.569     -282.02054    
    640000   304.61547      367.00198      18549.044      19351.887     -285.18359    
    650000   290.86289      372.70121      18532.358      19321.222     -138.06156    
    660000   295.76655      372.7901       18526.922      19322.892     -201.19369    
    670000   297.1199       382.12481      18519.249      19326.49       171.70973    
    680000   301.26172      377.87141      18557.278      19366.191      49.869126    
Loop time of 16.6468 on 48 procs for 50000 steps with 481 atoms

Performance: 12.975 ns/day, 1.850 hours/ns, 3003.587 timesteps/s, 1.445 Matom-step/s
100.0% CPU use with 48 MPI tasks x 1 OpenMP threads

MPI task timing breakdown:
Section |  min time  |  avg time  |  max time  |%varavg| %total
---------------------------------------------------------------
Pair    | 0.016996   | 0.72128    | 5.2342     | 140.2 |  4.33
Bond    | 0.0051031  | 0.91088    | 4.5995     | 149.2 |  5.47
Neigh   | 0.021734   | 0.023679   | 0.025057   |   0.5 |  0.14
Comm    | 5.7786     | 12.249     | 15.235     |  95.1 | 73.58
Output  | 0.0059576  | 0.010941   | 0.016073   |   3.1 |  0.07
Modify  | 0.51391    | 2.2001     | 9.5262     | 205.8 | 13.22
Other   |            | 0.5306     |            |       |  3.19

Nlocal:        10.0208 ave          56 max           0 min
Histogram: 24 12 4 0 1 2 1 2 1 1
Nghost:        1818.35 ave        2347 max        1167 min
Histogram: 8 0 0 0 24 0 0 0 0 16
Neighs:              0 ave           0 max           0 min
Histogram: 48 0 0 0 0 0 0 0 0 0

Total # of neighbors = 0
Ave neighs/atom = 0
Ave special neighs/atom = 15.567568
Neighbor list builds = 62
Dangerous builds = 0
unfix           myat1
next            cpt
jump            SELF loop
variable        zdes equal  -15+0.60*(${cpt}-1)
variable        zdes equal  -15+0.60*(12-1)
variable        zave equal xcm(H2,z)
fix             mytth2 H2 spring tether ${k1} 2.5 2.5 ${zdes} 0
fix             mytth2 H2 spring tether 2 2.5 2.5 ${zdes} 0
fix             mytth2 H2 spring tether 2 2.5 2.5 -8.4 0
run             10000
Generated 0 of 1 mixed pair_coeff terms from geometric mixing rule
Per MPI rank memory allocation (min/avg/max) = 13.32 | 13.76 | 14.98 Mbytes
   Step          Temp          E_pair         E_mol          TotEng         Press     
    680000   301.26172      377.87141      18557.278      19366.191      49.869126    
    690000   315.89494      370.51629      18567.673      19390.169     -155.90996    
Loop time of 3.32102 on 48 procs for 10000 steps with 481 atoms

Performance: 13.008 ns/day, 1.845 hours/ns, 3011.125 timesteps/s, 1.448 Matom-step/s
100.0% CPU use with 48 MPI tasks x 1 OpenMP threads

MPI task timing breakdown:
Section |  min time  |  avg time  |  max time  |%varavg| %total
---------------------------------------------------------------
Pair    | 0.0034244  | 0.14465    | 1.04       |  62.3 |  4.36
Bond    | 0.001008   | 0.18269    | 0.93111    |  66.6 |  5.50
Neigh   | 0.0034736  | 0.0038409  | 0.0040874  |   0.2 |  0.12
Comm    | 1.1406     | 2.4293     | 3.0347     |  42.2 | 73.15
Output  | 0.0012119  | 0.00222    | 0.0032752  |   1.4 |  0.07
Modify  | 0.10445    | 0.45061    | 1.884      |  90.5 | 13.57
Other   |            | 0.1077     |            |       |  3.24

Nlocal:        10.0208 ave          52 max           0 min
Histogram: 24 10 6 0 0 3 1 1 0 3
Nghost:        1818.35 ave        2347 max        1171 min
Histogram: 8 0 0 0 24 0 0 0 0 16
Neighs:              0 ave           0 max           0 min
Histogram: 48 0 0 0 0 0 0 0 0 0

Total # of neighbors = 0
Ave neighs/atom = 0
Ave special neighs/atom = 15.567568
Neighbor list builds = 10
Dangerous builds = 0
fix             myat1 all ave/time 1000 10 10000 v_zave v_zdes file simulation_data/abpot/${cpt}.dat
fix             myat1 all ave/time 1000 10 10000 v_zave v_zdes file simulation_data/abpot/12.dat
run             50000
Generated 0 of 1 mixed pair_coeff terms from geometric mixing rule
Per MPI rank memory allocation (min/avg/max) = 13.32 | 13.76 | 14.98 Mbytes
   Step          Temp          E_pair         E_mol          TotEng         Press     
    690000   315.89494      370.51629      18567.673      19390.169     -155.90996    
    700000   312.90635      381.29714      18541.269      19370.269      127.09281    
    710000   303.9032       369.1584       18544.18       19348.16      -191.75379    
    720000   302.81659      361.91815      18546.586      19341.771     -369.20782    
    730000   335.02993      376.45         18551.058      19406.866     -113.64615    
    740000   297.25445      393.10168      18550.229      19368.639      315.93769    
Loop time of 16.5997 on 48 procs for 50000 steps with 481 atoms

Performance: 13.012 ns/day, 1.844 hours/ns, 3012.108 timesteps/s, 1.449 Matom-step/s
100.0% CPU use with 48 MPI tasks x 1 OpenMP threads

MPI task timing breakdown:
Section |  min time  |  avg time  |  max time  |%varavg| %total
---------------------------------------------------------------
Pair    | 0.016919   | 0.72099    | 5.2497     | 139.5 |  4.34
Bond    | 0.0050521  | 0.90979    | 4.6811     | 148.6 |  5.48
Neigh   | 0.020289   | 0.022244   | 0.023547   |   0.5 |  0.13
Comm    | 5.7655     | 12.207     | 15.218     |  93.9 | 73.54
Output  | 0.0061286  | 0.011228   | 0.016431   |   3.2 |  0.07
Modify  | 0.51456    | 2.1967     | 9.3802     | 203.2 | 13.23
Other   |            | 0.5317     |            |       |  3.20

Nlocal:        10.0208 ave          50 max           0 min
Histogram: 22 13 5 0 0 0 3 1 2 2
Nghost:        1818.35 ave        2347 max        1173 min
Histogram: 8 0 0 0 24 0 0 0 0 16
Neighs:              0 ave           0 max           0 min
Histogram: 48 0 0 0 0 0 0 0 0 0

Total # of neighbors = 0
Ave neighs/atom = 0
Ave special neighs/atom = 15.567568
Neighbor list builds = 57
Dangerous builds = 0
unfix           myat1
next            cpt
jump            SELF loop
variable        zdes equal  -15+0.60*(${cpt}-1)
variable        zdes equal  -15+0.60*(13-1)
variable        zave equal xcm(H2,z)
fix             mytth2 H2 spring tether ${k1} 2.5 2.5 ${zdes} 0
fix             mytth2 H2 spring tether 2 2.5 2.5 ${zdes} 0
fix             mytth2 H2 spring tether 2 2.5 2.5 -7.8 0
run             10000
Generated 0 of 1 mixed pair_coeff terms from geometric mixing rule
Per MPI rank memory allocation (min/avg/max) = 13.32 | 13.77 | 14.98 Mbytes
   Step          Temp          E_pair         E_mol          TotEng         Press     
    740000   297.25445      393.10168      18550.229      19368.639      315.93769    
    750000   307.55937      370.22689      18528.406      19338.686     -259.05833    
Loop time of 3.39068 on 48 procs for 10000 steps with 481 atoms

Performance: 12.741 ns/day, 1.884 hours/ns, 2949.260 timesteps/s, 1.419 Matom-step/s
100.0% CPU use with 48 MPI tasks x 1 OpenMP threads

MPI task timing breakdown:
Section |  min time  |  avg time  |  max time  |%varavg| %total
---------------------------------------------------------------
Pair    | 0.0034303  | 0.14433    | 1.0675     |  62.9 |  4.26
Bond    | 0.0010216  | 0.18185    | 0.97497    |  66.9 |  5.36
Neigh   | 0.0042489  | 0.0046265  | 0.0049058  |   0.2 |  0.14
Comm    | 1.143      | 2.5164     | 3.1121     |  43.5 | 74.22
Output  | 0.0012215  | 0.0022093  | 0.0032604  |   1.4 |  0.07
Modify  | 0.10189    | 0.43538    | 1.957      |  95.9 | 12.84
Other   |            | 0.1059     |            |       |  3.12

Nlocal:        10.0208 ave          50 max           0 min
Histogram: 24 8 8 0 0 1 1 3 2 1
Nghost:        1818.35 ave        2348 max        1173 min
Histogram: 8 0 0 0 24 0 0 0 0 16
Neighs:              0 ave           0 max           0 min
Histogram: 48 0 0 0 0 0 0 0 0 0

Total # of neighbors = 0
Ave neighs/atom = 0
Ave special neighs/atom = 15.567568
Neighbor list builds = 12
Dangerous builds = 0
fix             myat1 all ave/time 1000 10 10000 v_zave v_zdes file simulation_data/abpot/${cpt}.dat
fix             myat1 all ave/time 1000 10 10000 v_zave v_zdes file simulation_data/abpot/13.dat
run             50000
Generated 0 of 1 mixed pair_coeff terms from geometric mixing rule
Per MPI rank memory allocation (min/avg/max) = 13.32 | 13.77 | 14.98 Mbytes
   Step          Temp          E_pair         E_mol          TotEng         Press     
    750000   307.55937      370.22689      18528.406      19338.686     -259.05833    
    760000   309.64019      369.01939      18518.277      19330.326     -193.03185    
    770000   289.69474      384.65884      18520.861      19320.012      103.18357    
    780000   292.89773      388.71242      18525.419      19333.206      307.70445    
    790000   294.63011      372.85087      18566.056      19360.461     -254.64681    
    800000   287.9993       370.31143      18533.596      19315.973     -150.64386    
Loop time of 17.0367 on 48 procs for 50000 steps with 481 atoms

Performance: 12.679 ns/day, 1.893 hours/ns, 2934.840 timesteps/s, 1.412 Matom-step/s
100.0% CPU use with 48 MPI tasks x 1 OpenMP threads

MPI task timing breakdown:
Section |  min time  |  avg time  |  max time  |%varavg| %total
---------------------------------------------------------------
Pair    | 0.017033   | 0.72176    | 5.4554     | 141.2 |  4.24
Bond    | 0.0050534  | 0.91046    | 4.861      | 150.0 |  5.34
Neigh   | 0.023792   | 0.02598    | 0.027441   |   0.5 |  0.15
Comm    | 5.6849     | 12.605     | 15.606     |  97.2 | 73.99
Output  | 0.0060914  | 0.011095   | 0.016262   |   3.1 |  0.07
Modify  | 0.51308    | 2.2314     | 9.8992     | 213.4 | 13.10
Other   |            | 0.5308     |            |       |  3.12

Nlocal:        10.0208 ave          49 max           0 min
Histogram: 23 11 6 0 0 0 2 4 0 2
Nghost:        1818.35 ave        2347 max        1174 min
Histogram: 8 0 0 0 24 0 0 0 0 16
Neighs:              0 ave           0 max           0 min
Histogram: 48 0 0 0 0 0 0 0 0 0

Total # of neighbors = 0
Ave neighs/atom = 0
Ave special neighs/atom = 15.567568
Neighbor list builds = 68
Dangerous builds = 0
unfix           myat1
next            cpt
jump            SELF loop
variable        zdes equal  -15+0.60*(${cpt}-1)
variable        zdes equal  -15+0.60*(14-1)
variable        zave equal xcm(H2,z)
fix             mytth2 H2 spring tether ${k1} 2.5 2.5 ${zdes} 0
fix             mytth2 H2 spring tether 2 2.5 2.5 ${zdes} 0
fix             mytth2 H2 spring tether 2 2.5 2.5 -7.2 0
run             10000
Generated 0 of 1 mixed pair_coeff terms from geometric mixing rule
Per MPI rank memory allocation (min/avg/max) = 13.32 | 13.77 | 14.98 Mbytes
   Step          Temp          E_pair         E_mol          TotEng         Press     
    800000   287.9993       370.31143      18533.596      19315.973     -150.64386    
    810000   328.1338       390.06794      18493.564      19353.123      360.89107    
Loop time of 3.53226 on 48 procs for 10000 steps with 481 atoms

Performance: 12.230 ns/day, 1.962 hours/ns, 2831.049 timesteps/s, 1.362 Matom-step/s
100.0% CPU use with 48 MPI tasks x 1 OpenMP threads

MPI task timing breakdown:
Section |  min time  |  avg time  |  max time  |%varavg| %total
---------------------------------------------------------------
Pair    | 0.0034698  | 0.14446    | 1.1526     |  64.1 |  4.09
Bond    | 0.0010286  | 0.18232    | 1.0504     |  67.9 |  5.16
Neigh   | 0.0030947  | 0.0033852  | 0.0035925  |   0.2 |  0.10
Comm    | 1.1248     | 2.6085     | 3.2412     |  44.7 | 73.85
Output  | 0.001224   | 0.0022381  | 0.0033061  |   1.4 |  0.06
Modify  | 0.1017     | 0.48474    | 2.1054     |  98.2 | 13.72
Other   |            | 0.1066     |            |       |  3.02

Nlocal:        10.0208 ave          49 max           0 min
Histogram: 21 13 5 1 0 0 2 3 2 1
Nghost:        1818.35 ave        2348 max        1174 min
Histogram: 8 0 0 0 24 0 0 0 0 16
Neighs:              0 ave           0 max           0 min
Histogram: 48 0 0 0 0 0 0 0 0 0

Total # of neighbors = 0
Ave neighs/atom = 0
Ave special neighs/atom = 15.567568
Neighbor list builds = 9
Dangerous builds = 0
fix             myat1 all ave/time 1000 10 10000 v_zave v_zdes file simulation_data/abpot/${cpt}.dat
fix             myat1 all ave/time 1000 10 10000 v_zave v_zdes file simulation_data/abpot/14.dat
run             50000
Generated 0 of 1 mixed pair_coeff terms from geometric mixing rule
Per MPI rank memory allocation (min/avg/max) = 13.32 | 13.77 | 14.98 Mbytes
   Step          Temp          E_pair         E_mol          TotEng         Press     
    810000   328.1338       390.06794      18493.564      19353.123      360.89107    
    820000   320.96472      385.60343      18521.65       19366.486      164.17324    
    830000   314.13762      376.13531      18539.926      19365.526     -168.06447    
    840000   301.13787      372.08854      18530.64       19333.593     -31.381718    
    850000   306.86063      381.447        18523.066      19343.566      153.52822    
    860000   298.03812      377.10168      18553.852      19357.383      25.025299    
Loop time of 17.1834 on 48 procs for 50000 steps with 481 atoms

Performance: 12.570 ns/day, 1.909 hours/ns, 2909.779 timesteps/s, 1.400 Matom-step/s
100.0% CPU use with 48 MPI tasks x 1 OpenMP threads

MPI task timing breakdown:
Section |  min time  |  avg time  |  max time  |%varavg| %total
---------------------------------------------------------------
Pair    | 0.017118   | 0.72177    | 5.5168     | 141.0 |  4.20
Bond    | 0.0050671  | 0.91049    | 4.8937     | 150.1 |  5.30
Neigh   | 0.021564   | 0.023662   | 0.025059   |   0.5 |  0.14
Comm    | 5.737      | 12.746     | 15.77      |  97.5 | 74.18
Output  | 0.0064005  | 0.011474   | 0.016686   |   3.1 |  0.07
Modify  | 0.51378    | 2.2376     | 10.017     | 215.7 | 13.02
Other   |            | 0.5321     |            |       |  3.10

Nlocal:        10.0208 ave          51 max           0 min
Histogram: 26 9 5 0 0 2 1 2 1 2
Nghost:        1818.35 ave        2348 max        1172 min
Histogram: 8 0 0 0 24 0 0 0 0 16
Neighs:              0 ave           0 max           0 min
Histogram: 48 0 0 0 0 0 0 0 0 0

Total # of neighbors = 0
Ave neighs/atom = 0
Ave special neighs/atom = 15.567568
Neighbor list builds = 63
Dangerous builds = 0
unfix           myat1
next            cpt
jump            SELF loop
variable        zdes equal  -15+0.60*(${cpt}-1)
variable        zdes equal  -15+0.60*(15-1)
variable        zave equal xcm(H2,z)
fix             mytth2 H2 spring tether ${k1} 2.5 2.5 ${zdes} 0
fix             mytth2 H2 spring tether 2 2.5 2.5 ${zdes} 0
fix             mytth2 H2 spring tether 2 2.5 2.5 -6.6 0
run             10000
Generated 0 of 1 mixed pair_coeff terms from geometric mixing rule
Per MPI rank memory allocation (min/avg/max) = 13.32 | 13.77 | 14.98 Mbytes
   Step          Temp          E_pair         E_mol          TotEng         Press     
    860000   298.03812      377.10168      18553.852      19357.383      25.025299    
    870000   314.23748      371.92953      18575.77       19397.307     -86.022689    
Loop time of 3.44184 on 48 procs for 10000 steps with 481 atoms

Performance: 12.551 ns/day, 1.912 hours/ns, 2905.423 timesteps/s, 1.398 Matom-step/s
100.0% CPU use with 48 MPI tasks x 1 OpenMP threads

MPI task timing breakdown:
Section |  min time  |  avg time  |  max time  |%varavg| %total
---------------------------------------------------------------
Pair    | 0.0033917  | 0.14448    | 1.0973     |  63.4 |  4.20
Bond    | 0.0010059  | 0.18207    | 0.96971    |  66.9 |  5.29
Neigh   | 0.004451   | 0.0049165  | 0.0051752  |   0.2 |  0.14
Comm    | 1.168      | 2.5478     | 3.1714     |  43.9 | 74.02
Output  | 0.0012624  | 0.0022843  | 0.0033586  |   1.4 |  0.07
Modify  | 0.10275    | 0.45416    | 2.006      |  96.9 | 13.20
Other   |            | 0.1061     |            |       |  3.08

Nlocal:        10.0208 ave          55 max           0 min
Histogram: 25 10 5 0 1 1 2 2 1 1
Nghost:        1818.35 ave        2347 max        1168 min
Histogram: 8 0 0 0 24 0 0 0 0 16
Neighs:              0 ave           0 max           0 min
Histogram: 48 0 0 0 0 0 0 0 0 0

Total # of neighbors = 0
Ave neighs/atom = 0
Ave special neighs/atom = 15.567568
Neighbor list builds = 13
Dangerous builds = 0
fix             myat1 all ave/time 1000 10 10000 v_zave v_zdes file simulation_data/abpot/${cpt}.dat
fix             myat1 all ave/time 1000 10 10000 v_zave v_zdes file simulation_data/abpot/15.dat
run             50000
Generated 0 of 1 mixed pair_coeff terms from geometric mixing rule
Per MPI rank memory allocation (min/avg/max) = 13.32 | 13.77 | 14.98 Mbytes
   Step          Temp          E_pair         E_mol          TotEng         Press     
    870000   314.23748      371.92953      18575.77       19397.307     -86.022689    
    880000   307.0219       374.80612      18564.58       19378.67      -270.09329    
    890000   295.26433      378.94588      18548.499      19349.905      68.515161    
    900000   292.95708      383.54907      18536.926      19339.635      82.80963     
    910000   304.01257      386.14423      18547.882      19369.004      104.19538    
    920000   321.01975      399.66663      18553.543      19412.521      133.80665    
Loop time of 16.6026 on 48 procs for 50000 steps with 481 atoms

Performance: 13.010 ns/day, 1.845 hours/ns, 3011.579 timesteps/s, 1.449 Matom-step/s
100.0% CPU use with 48 MPI tasks x 1 OpenMP threads

MPI task timing breakdown:
Section |  min time  |  avg time  |  max time  |%varavg| %total
---------------------------------------------------------------
Pair    | 0.016946   | 0.72641    | 5.1421     | 138.3 |  4.38
Bond    | 0.00509    | 0.9122     | 4.6563     | 148.6 |  5.49
Neigh   | 0.046074   | 0.050648   | 0.053672   |   0.7 |  0.31
Comm    | 5.9889     | 12.256     | 15.105     |  94.8 | 73.82
Output  | 0.0059379  | 0.011043   | 0.016247   |   3.2 |  0.07
Modify  | 0.5136     | 2.1157     | 9.3674     | 208.1 | 12.74
Other   |            | 0.5305     |            |       |  3.20

Nlocal:        10.0208 ave          52 max           0 min
Histogram: 26 8 5 1 0 2 1 2 2 1
Nghost:        1818.35 ave        2347 max        1171 min
Histogram: 8 0 0 0 24 0 0 0 0 16
Neighs:              0 ave           0 max           0 min
Histogram: 48 0 0 0 0 0 0 0 0 0

Total # of neighbors = 0
Ave neighs/atom = 0
Ave special neighs/atom = 15.567568
Neighbor list builds = 138
Dangerous builds = 0
unfix           myat1
next            cpt
jump            SELF loop
variable        zdes equal  -15+0.60*(${cpt}-1)
variable        zdes equal  -15+0.60*(16-1)
variable        zave equal xcm(H2,z)
fix             mytth2 H2 spring tether ${k1} 2.5 2.5 ${zdes} 0
fix             mytth2 H2 spring tether 2 2.5 2.5 ${zdes} 0
fix             mytth2 H2 spring tether 2 2.5 2.5 -6 0
run             10000
Generated 0 of 1 mixed pair_coeff terms from geometric mixing rule
Per MPI rank memory allocation (min/avg/max) = 13.32 | 13.77 | 14.98 Mbytes
   Step          Temp          E_pair         E_mol          TotEng         Press     
    920000   321.01975      399.66663      18553.543      19412.521      133.80665    
    930000   333.90709      384.48635      18545.635      19407.872     -217.47391    
Loop time of 3.37126 on 48 procs for 10000 steps with 481 atoms

Performance: 12.814 ns/day, 1.873 hours/ns, 2966.248 timesteps/s, 1.427 Matom-step/s
100.0% CPU use with 48 MPI tasks x 1 OpenMP threads

MPI task timing breakdown:
Section |  min time  |  avg time  |  max time  |%varavg| %total
---------------------------------------------------------------
Pair    | 0.0034405  | 0.14739    | 0.9815     |  61.9 |  4.37
Bond    | 0.0010176  | 0.18314    | 1.0212     |  67.3 |  5.43
Neigh   | 0.015888   | 0.017426   | 0.018368   |   0.4 |  0.52
Comm    | 1.3142     | 2.4888     | 3.0723     |  42.4 | 73.82
Output  | 0.0012622  | 0.0022921  | 0.0033703  |   1.4 |  0.07
Modify  | 0.10065    | 0.42631    | 1.9036     |  93.8 | 12.65
Other   |            | 0.1059     |            |       |  3.14

Nlocal:        10.0208 ave          49 max           0 min
Histogram: 21 15 3 1 0 0 2 3 2 1
Nghost:        1818.35 ave        2347 max        1174 min
Histogram: 8 0 0 0 24 0 0 0 0 16
Neighs:              0 ave           0 max           0 min
Histogram: 48 0 0 0 0 0 0 0 0 0

Total # of neighbors = 0
Ave neighs/atom = 0
Ave special neighs/atom = 15.567568
Neighbor list builds = 47
Dangerous builds = 0
fix             myat1 all ave/time 1000 10 10000 v_zave v_zdes file simulation_data/abpot/${cpt}.dat
fix             myat1 all ave/time 1000 10 10000 v_zave v_zdes file simulation_data/abpot/16.dat
run             50000
Generated 0 of 1 mixed pair_coeff terms from geometric mixing rule
Per MPI rank memory allocation (min/avg/max) = 13.32 | 13.77 | 14.98 Mbytes
   Step          Temp          E_pair         E_mol          TotEng         Press     
    930000   333.90709      384.48635      18545.635      19407.872     -217.47391    
    940000   295.5749       391.04715      18555.609      19369.561     -119.51085    
    950000   308.68061      402.80914      18509.121      19353.587      294.44315    
    960000   307.70245      383.42017      18512.351      19336.029     -83.774127    
    970000   303.94105      383.47807      18538.515      19356.868     -207.89946    
    980000   283.89994      398.78179      18570.789      19375.771      108.35424    
Loop time of 16.473 on 48 procs for 50000 steps with 481 atoms

Performance: 13.112 ns/day, 1.830 hours/ns, 3035.272 timesteps/s, 1.460 Matom-step/s
100.0% CPU use with 48 MPI tasks x 1 OpenMP threads

MPI task timing breakdown:
Section |  min time  |  avg time  |  max time  |%varavg| %total
---------------------------------------------------------------
Pair    | 0.01704    | 0.73388    | 4.8667     | 137.2 |  4.46
Bond    | 0.0050603  | 0.91182    | 4.743      | 148.8 |  5.54
Neigh   | 0.074708   | 0.082017   | 0.086568   |   0.9 |  0.50
Comm    | 6.3792     | 12.086     | 14.932     |  92.3 | 73.37
Output  | 0.0058835  | 0.011012   | 0.016244   |   3.2 |  0.07
Modify  | 0.50889    | 2.1201     | 9.156      | 200.9 | 12.87
Other   |            | 0.5286     |            |       |  3.21

Nlocal:        10.0208 ave          44 max           0 min
Histogram: 26 4 10 0 0 0 0 3 1 4
Nghost:        1818.35 ave        2347 max        1179 min
Histogram: 8 0 0 0 24 0 0 0 0 16
Neighs:              0 ave           0 max           0 min
Histogram: 48 0 0 0 0 0 0 0 0 0

Total # of neighbors = 0
Ave neighs/atom = 0
Ave special neighs/atom = 15.567568
Neighbor list builds = 221
Dangerous builds = 0
unfix           myat1
next            cpt
jump            SELF loop
variable        zdes equal  -15+0.60*(${cpt}-1)
variable        zdes equal  -15+0.60*(17-1)
variable        zave equal xcm(H2,z)
fix             mytth2 H2 spring tether ${k1} 2.5 2.5 ${zdes} 0
fix             mytth2 H2 spring tether 2 2.5 2.5 ${zdes} 0
fix             mytth2 H2 spring tether 2 2.5 2.5 -5.4 0
run             10000
Generated 0 of 1 mixed pair_coeff terms from geometric mixing rule
Per MPI rank memory allocation (min/avg/max) = 13.32 | 13.78 | 14.98 Mbytes
   Step          Temp          E_pair         E_mol          TotEng         Press     
    980000   283.89994      398.78179      18570.789      19375.771      108.35424    
    990000   300.77145      390.40228      18548.724      19369.467     -163.12661    
Loop time of 3.2447 on 48 procs for 10000 steps with 481 atoms

Performance: 13.314 ns/day, 1.803 hours/ns, 3081.953 timesteps/s, 1.482 Matom-step/s
100.0% CPU use with 48 MPI tasks x 1 OpenMP threads

MPI task timing breakdown:
Section |  min time  |  avg time  |  max time  |%varavg| %total
---------------------------------------------------------------
Pair    | 0.0033927  | 0.14646    | 0.99915    |  61.3 |  4.51
Bond    | 0.0010064  | 0.18191    | 0.90195    |  66.2 |  5.61
Neigh   | 0.016523   | 0.018137   | 0.019194   |   0.4 |  0.56
Comm    | 1.1832     | 2.3661     | 2.956      |  40.9 | 72.92
Output  | 0.0011546  | 0.002165   | 0.0032208  |   1.4 |  0.07
Modify  | 0.10159    | 0.42424    | 1.7833     |  87.5 | 13.07
Other   |            | 0.1057     |            |       |  3.26

Nlocal:        10.0208 ave          47 max           0 min
Histogram: 22 11 7 0 0 1 0 3 1 3
Nghost:        1818.35 ave        2347 max        1176 min
Histogram: 8 0 0 0 24 0 0 0 0 16
Neighs:              0 ave           0 max           0 min
Histogram: 48 0 0 0 0 0 0 0 0 0

Total # of neighbors = 0
Ave neighs/atom = 0
Ave special neighs/atom = 15.567568
Neighbor list builds = 51
Dangerous builds = 0
[...]

MPI task timing breakdown:
Section |  min time  |  avg time  |  max time  |%varavg| %total
---------------------------------------------------------------
Pair    | 0.0034015  | 0.1437     | 0.8812     |  60.4 |  4.41
Bond    | 0.0010201  | 0.18213    | 1.0215     |  67.2 |  5.59
Neigh   | 0.0022677  | 0.0024867  | 0.0026338  |   0.2 |  0.08
Comm    | 1.1848     | 2.4253     | 3.0046     |  41.8 | 74.46
Output  | 0.001204   | 0.0021946  | 0.0032401  |   1.4 |  0.07
Modify  | 0.10193    | 0.39494    | 1.7992     |  92.9 | 12.13
Other   |            | 0.1062     |            |       |  3.26

Nlocal:        10.0208 ave          58 max           0 min
Histogram: 24 12 4 2 1 0 1 1 2 1
Nghost:        1818.35 ave        2347 max        1165 min
Histogram: 8 0 0 0 24 0 0 0 0 16
Neighs:              0 ave           0 max           0 min
Histogram: 48 0 0 0 0 0 0 0 0 0

Total # of neighbors = 0
Ave neighs/atom = 0
Ave special neighs/atom = 15.567568
Neighbor list builds = 6
Dangerous builds = 0
fix             myat1 all ave/time 1000 10 10000 v_zave v_zdes file simulation_data/abpot/${cpt}.dat
fix             myat1 all ave/time 1000 10 10000 v_zave v_zdes file simulation_data/abpot/47.dat
run             50000
Generated 0 of 1 mixed pair_coeff terms from geometric mixing rule
Per MPI rank memory allocation (min/avg/max) = 13.32 | 13.8 | 14.98 Mbytes
   Step          Temp          E_pair         E_mol          TotEng         Press     
   2790000   298.97039      367.30451      18522.383      19317.451     -145.55424    
   2800000   292.55967      372.41535      18504.751      19295.757      142.16091    
   2810000   312.37632      373.50129      18504.286      19324.732      271.9317     
   2820000   314.50602      368.74381      18536.162      19354.898     -113.07494    
   2830000   316.10253      375.68424      18551.402      19379.362      116.46066    
   2840000   297.78423      375.52067      18497.223      19298.81       43.934804    
Loop time of 15.9095 on 48 procs for 50000 steps with 481 atoms

Performance: 13.577 ns/day, 1.768 hours/ns, 3142.778 timesteps/s, 1.512 Matom-step/s
100.0% CPU use with 48 MPI tasks x 1 OpenMP threads

MPI task timing breakdown:
Section |  min time  |  avg time  |  max time  |%varavg| %total
---------------------------------------------------------------
Pair    | 0.017151   | 0.7188     | 4.352      | 133.3 |  4.52
Bond    | 0.0050838  | 0.91179    | 5.098      | 149.8 |  5.73
Neigh   | 0.016336   | 0.017776   | 0.018719   |   0.4 |  0.11
Comm    | 5.6045     | 11.759     | 14.53      |  90.8 | 73.91
Output  | 0.0059514  | 0.010971   | 0.016121   |   3.1 |  0.07
Modify  | 0.51405    | 1.958      | 8.6493     | 197.7 | 12.31
Other   |            | 0.5333     |            |       |  3.35

Nlocal:        10.0208 ave          49 max           0 min
Histogram: 25 9 5 1 0 1 1 3 1 2
Nghost:        1818.35 ave        2346 max        1176 min
Histogram: 8 0 0 0 24 0 0 0 0 16
Neighs:              0 ave           0 max           0 min
Histogram: 48 0 0 0 0 0 0 0 0 0

Total # of neighbors = 0
Ave neighs/atom = 0
Ave special neighs/atom = 15.567568
Neighbor list builds = 45
Dangerous builds = 0
unfix           myat1
next            cpt
jump            SELF loop
variable        zdes equal  -15+0.60*(${cpt}-1)
variable        zdes equal  -15+0.60*(48-1)
variable        zave equal xcm(H2,z)
fix             mytth2 H2 spring tether ${k1} 2.5 2.5 ${zdes} 0
fix             mytth2 H2 spring tether 2 2.5 2.5 ${zdes} 0
fix             mytth2 H2 spring tether 2 2.5 2.5 13.2 0
run             10000
Generated 0 of 1 mixed pair_coeff terms from geometric mixing rule
Per MPI rank memory allocation (min/avg/max) = 13.32 | 13.8 | 14.98 Mbytes
   Step          Temp          E_pair         E_mol          TotEng         Press     
   2840000   297.78423      375.52067      18497.223      19298.81       43.934804    
   2850000   289.47192      364.15606      18543.634      19321.963     -167.95101    
Loop time of 3.16853 on 48 procs for 10000 steps with 481 atoms

Performance: 13.634 ns/day, 1.760 hours/ns, 3156.035 timesteps/s, 1.518 Matom-step/s
100.0% CPU use with 48 MPI tasks x 1 OpenMP threads

MPI task timing breakdown:
Section |  min time  |  avg time  |  max time  |%varavg| %total
---------------------------------------------------------------
Pair    | 0.0034448  | 0.14362    | 0.86085    |  60.0 |  4.53
Bond    | 0.0010141  | 0.18216    | 0.98043    |  66.6 |  5.75
Neigh   | 0.0026492  | 0.0028983  | 0.0030492  |   0.2 |  0.09
Comm    | 1.1346     | 2.3275     | 2.8961     |  40.1 | 73.46
Output  | 0.0011541  | 0.0021372  | 0.0031779  |   1.4 |  0.07
Modify  | 0.10023    | 0.40353    | 1.7211     |  86.9 | 12.74
Other   |            | 0.1067     |            |       |  3.37

Nlocal:        10.0208 ave          53 max           0 min
Histogram: 23 13 4 0 2 0 1 2 1 2
Nghost:        1818.35 ave        2347 max        1177 min
Histogram: 8 0 0 0 24 0 0 0 0 16
Neighs:              0 ave           0 max           0 min
Histogram: 48 0 0 0 0 0 0 0 0 0

Total # of neighbors = 0
Ave neighs/atom = 0
Ave special neighs/atom = 15.567568
Neighbor list builds = 7
Dangerous builds = 0
fix             myat1 all ave/time 1000 10 10000 v_zave v_zdes file simulation_data/abpot/${cpt}.dat
fix             myat1 all ave/time 1000 10 10000 v_zave v_zdes file simulation_data/abpot/48.dat
run             50000
Generated 0 of 1 mixed pair_coeff terms from geometric mixing rule
Per MPI rank memory allocation (min/avg/max) = 13.32 | 13.8 | 14.98 Mbytes
   Step          Temp          E_pair         E_mol          TotEng         Press     
   2850000   289.47192      364.15606      18543.634      19321.963     -167.95101    
   2860000   301.63661      368.85861      18523.555      19323.992     -167.34166    
   2870000   285.71002      374.81105      18505.509      19289.111      69.364943    
   2880000   277.72971      374.81087      18532.788      19304.971      31.738367    
   2890000   301.0318       367.24394      18517.463      19315.42      -41.322772    
   2900000   312.65655      371.21264      18517.41       19335.968     -82.082618    
Loop time of 16.4284 on 48 procs for 50000 steps with 481 atoms

Performance: 13.148 ns/day, 1.825 hours/ns, 3043.504 timesteps/s, 1.464 Matom-step/s
100.0% CPU use with 48 MPI tasks x 1 OpenMP threads

MPI task timing breakdown:
Section |  min time  |  avg time  |  max time  |%varavg| %total
---------------------------------------------------------------
Pair    | 0.017042   | 0.71884    | 4.3815     | 135.0 |  4.38
Bond    | 0.0051006  | 0.91269    | 5.0542     | 150.4 |  5.56
Neigh   | 0.015316   | 0.016736   | 0.017676   |   0.4 |  0.10
Comm    | 6.0377     | 12.21      | 15.129     |  93.4 | 74.33
Output  | 0.0059969  | 0.011012   | 0.016169   |   3.1 |  0.07
Modify  | 0.51783    | 2.0277     | 9.1673     | 207.2 | 12.34
Other   |            | 0.531      |            |       |  3.23

Nlocal:        10.0208 ave          50 max           0 min
Histogram: 21 13 6 0 0 1 1 2 2 2
Nghost:        1818.35 ave        2347 max        1173 min
Histogram: 8 0 0 0 24 0 0 0 0 16
Neighs:              0 ave           0 max           0 min
Histogram: 48 0 0 0 0 0 0 0 0 0

Total # of neighbors = 0
Ave neighs/atom = 0
Ave special neighs/atom = 15.567568
Neighbor list builds = 42
Dangerous builds = 0
unfix           myat1
next            cpt
jump            SELF loop
variable        zdes equal  -15+0.60*(${cpt}-1)
variable        zdes equal  -15+0.60*(49-1)
variable        zave equal xcm(H2,z)
fix             mytth2 H2 spring tether ${k1} 2.5 2.5 ${zdes} 0
fix             mytth2 H2 spring tether 2 2.5 2.5 ${zdes} 0
fix             mytth2 H2 spring tether 2 2.5 2.5 13.8 0
run             10000
Generated 0 of 1 mixed pair_coeff terms from geometric mixing rule
Per MPI rank memory allocation (min/avg/max) = 13.32 | 13.8 | 14.98 Mbytes
   Step          Temp          E_pair         E_mol          TotEng         Press     
   2900000   312.65655      371.21264      18517.41       19335.968     -82.082618    
   2910000   310.69503      370.09368      18549.366      19363.998     -100.39435    
Loop time of 3.19554 on 48 procs for 10000 steps with 481 atoms

Performance: 13.519 ns/day, 1.775 hours/ns, 3129.359 timesteps/s, 1.505 Matom-step/s
100.0% CPU use with 48 MPI tasks x 1 OpenMP threads

MPI task timing breakdown:
Section |  min time  |  avg time  |  max time  |%varavg| %total
---------------------------------------------------------------
Pair    | 0.0033622  | 0.14359    | 0.83903    |  59.6 |  4.49
Bond    | 0.0010193  | 0.18271    | 1.09       |  67.6 |  5.72
Neigh   | 0.003109   | 0.0034171  | 0.0036656  |   0.2 |  0.11
Comm    | 1.2073     | 2.3674     | 2.9332     |  41.0 | 74.08
Output  | 0.0012542  | 0.0022509  | 0.0032941  |   1.4 |  0.07
Modify  | 0.10368    | 0.38894    | 1.7286     |  89.2 | 12.17
Other   |            | 0.1073     |            |       |  3.36

Nlocal:        10.0208 ave          50 max           0 min
Histogram: 25 7 7 1 0 1 1 3 1 2
Nghost:        1818.35 ave        2347 max        1173 min
Histogram: 8 0 0 0 24 0 0 0 0 16
Neighs:              0 ave           0 max           0 min
Histogram: 48 0 0 0 0 0 0 0 0 0

Total # of neighbors = 0
Ave neighs/atom = 0
Ave special neighs/atom = 15.567568
Neighbor list builds = 9
Dangerous builds = 0
fix             myat1 all ave/time 1000 10 10000 v_zave v_zdes file simulation_data/abpot/${cpt}.dat
fix             myat1 all ave/time 1000 10 10000 v_zave v_zdes file simulation_data/abpot/49.dat
run             50000
Generated 0 of 1 mixed pair_coeff terms from geometric mixing rule
Per MPI rank memory allocation (min/avg/max) = 13.32 | 13.8 | 14.98 Mbytes
   Step          Temp          E_pair         E_mol          TotEng         Press     
   2910000   310.69503      370.09368      18549.366      19363.998     -100.39435    
   2920000   314.71198      370.97419      18506.971      19328.231      26.07108     
   2930000   306.17418      366.2248       18508.829      19313.124     -181.80744    
   2940000   310.81363      367.30881      18495.509      19307.527     -124.87552    
   2950000   306.59035      372.16727      18526.946      19337.78      -70.351842    
   2960000   322.85486      373.02172      18525.905      19360.864      102.48076    
Loop time of 16.1202 on 48 procs for 50000 steps with 481 atoms

Performance: 13.399 ns/day, 1.791 hours/ns, 3101.698 timesteps/s, 1.492 Matom-step/s
100.0% CPU use with 48 MPI tasks x 1 OpenMP threads

MPI task timing breakdown:
Section |  min time  |  avg time  |  max time  |%varavg| %total
---------------------------------------------------------------
Pair    | 0.01724    | 0.71837    | 4.2073     | 133.2 |  4.46
Bond    | 0.0051354  | 0.91222    | 5.061      | 149.6 |  5.66
Neigh   | 0.022876   | 0.025222   | 0.02681    |   0.6 |  0.16
Comm    | 6.0893     | 11.964     | 14.802     |  91.5 | 74.22
Output  | 0.0061284  | 0.011208   | 0.016384   |   3.1 |  0.07
Modify  | 0.51391    | 1.958      | 8.823      | 201.5 | 12.15
Other   |            | 0.5309     |            |       |  3.29

Nlocal:        10.0208 ave          54 max           0 min
Histogram: 24 13 3 0 1 0 3 3 0 1
Nghost:        1818.35 ave        2347 max        1182 min
Histogram: 8 0 0 0 24 0 0 0 0 16
Neighs:              0 ave           0 max           0 min
Histogram: 48 0 0 0 0 0 0 0 0 0

Total # of neighbors = 0
Ave neighs/atom = 0
Ave special neighs/atom = 15.567568
Neighbor list builds = 65
Dangerous builds = 0
unfix           myat1
next            cpt
jump            SELF loop
variable        zdes equal  -15+0.60*(${cpt}-1)
variable        zdes equal  -15+0.60*(50-1)
variable        zave equal xcm(H2,z)
fix             mytth2 H2 spring tether ${k1} 2.5 2.5 ${zdes} 0
fix             mytth2 H2 spring tether 2 2.5 2.5 ${zdes} 0
fix             mytth2 H2 spring tether 2 2.5 2.5 14.4 0
run             10000
Generated 0 of 1 mixed pair_coeff terms from geometric mixing rule
Per MPI rank memory allocation (min/avg/max) = 13.32 | 13.8 | 14.98 Mbytes
   Step          Temp          E_pair         E_mol          TotEng         Press     
   2960000   322.85486      373.02172      18525.905      19360.864      102.48076    
   2970000   294.22245      369.23234      18559.726      19349.928     -68.553667    
Loop time of 3.20652 on 48 procs for 10000 steps with 481 atoms

Performance: 13.473 ns/day, 1.781 hours/ns, 3118.641 timesteps/s, 1.500 Matom-step/s
100.0% CPU use with 48 MPI tasks x 1 OpenMP threads

MPI task timing breakdown:
Section |  min time  |  avg time  |  max time  |%varavg| %total
---------------------------------------------------------------
Pair    | 0.0034627  | 0.1439     | 0.85472    |  60.3 |  4.49
Bond    | 0.0010243  | 0.18249    | 0.98666    |  66.9 |  5.69
Neigh   | 0.005193   | 0.0057839  | 0.0061733  |   0.3 |  0.18
Comm    | 1.185      | 2.3833     | 2.9472     |  40.7 | 74.33
Output  | 0.0012055  | 0.002176   | 0.0032171  |   1.4 |  0.07
Modify  | 0.10128    | 0.38242    | 1.7511     |  89.7 | 11.93
Other   |            | 0.1065     |            |       |  3.32

Nlocal:        10.0208 ave          58 max           0 min
Histogram: 27 8 5 1 0 3 0 3 0 1
Nghost:        1818.35 ave        2347 max        1177 min
Histogram: 8 0 0 0 24 0 0 0 0 16
Neighs:              0 ave           0 max           0 min
Histogram: 48 0 0 0 0 0 0 0 0 0

Total # of neighbors = 0
Ave neighs/atom = 0
Ave special neighs/atom = 15.567568
Neighbor list builds = 15
Dangerous builds = 0
fix             myat1 all ave/time 1000 10 10000 v_zave v_zdes file simulation_data/abpot/${cpt}.dat
fix             myat1 all ave/time 1000 10 10000 v_zave v_zdes file simulation_data/abpot/50.dat
run             50000
Generated 0 of 1 mixed pair_coeff terms from geometric mixing rule
Per MPI rank memory allocation (min/avg/max) = 13.32 | 13.8 | 14.98 Mbytes
   Step          Temp          E_pair         E_mol          TotEng         Press     
   2970000   294.22245      369.23234      18559.726      19349.928     -68.553667    
   2980000   293.19301      369.29391      18520.125      19308.916     -25.431045    
   2990000   294.26516      366.57362      18510.18       19297.785     -118.73768    
   3000000   319.67547      370.65288      18561.964      19390.005     -84.330054    
   3010000   304.72034      367.82335      18520.826      19324.64      -44.596148    
   3020000   286.86035      365.66116      18534.277      19310.375     -258.9963     
Loop time of 16.1598 on 48 procs for 50000 steps with 481 atoms

Performance: 13.366 ns/day, 1.796 hours/ns, 3094.095 timesteps/s, 1.488 Matom-step/s
100.0% CPU use with 48 MPI tasks x 1 OpenMP threads

MPI task timing breakdown:
Section |  min time  |  avg time  |  max time  |%varavg| %total
---------------------------------------------------------------
Pair    | 0.017114   | 0.71916    | 4.2703     | 133.4 |  4.45
Bond    | 0.0051096  | 0.9129     | 5.2515     | 150.1 |  5.65
Neigh   | 0.024998   | 0.027553   | 0.029212   |   0.6 |  0.17
Comm    | 6.0324     | 11.959     | 14.686     |  91.3 | 74.01
Output  | 0.0061301  | 0.011217   | 0.016455   |   3.1 |  0.07
Modify  | 0.51191    | 1.9978     | 8.8751     | 200.0 | 12.36
Other   |            | 0.5319     |            |       |  3.29

Nlocal:        10.0208 ave          54 max           0 min
Histogram: 26 8 6 0 0 3 1 1 2 1
Nghost:        1818.35 ave        2346 max        1169 min
Histogram: 8 0 0 0 24 0 0 0 0 16
Neighs:              0 ave           0 max           0 min
Histogram: 48 0 0 0 0 0 0 0 0 0

Total # of neighbors = 0
Ave neighs/atom = 0
Ave special neighs/atom = 15.567568
Neighbor list builds = 71
Dangerous builds = 0
unfix           myat1
next            cpt
jump            SELF loop
variable        zdes equal  -15+0.60*(${cpt}-1)
variable        zdes equal  -15+0.60*(51-1)
variable        zave equal xcm(H2,z)
fix             mytth2 H2 spring tether ${k1} 2.5 2.5 ${zdes} 0
fix             mytth2 H2 spring tether 2 2.5 2.5 ${zdes} 0
fix             mytth2 H2 spring tether 2 2.5 2.5 15 0
run             10000
Generated 0 of 1 mixed pair_coeff terms from geometric mixing rule
Per MPI rank memory allocation (min/avg/max) = 13.32 | 13.8 | 14.98 Mbytes
   Step          Temp          E_pair         E_mol          TotEng         Press     
   3020000   286.86035      365.66116      18534.277      19310.375     -258.9963     
   3030000   294.91783      377.45097      18509.307      19308.723      83.41349     
Loop time of 3.19608 on 48 procs for 10000 steps with 481 atoms

Performance: 13.517 ns/day, 1.776 hours/ns, 3128.830 timesteps/s, 1.505 Matom-step/s
100.0% CPU use with 48 MPI tasks x 1 OpenMP threads

MPI task timing breakdown:
Section |  min time  |  avg time  |  max time  |%varavg| %total
---------------------------------------------------------------
Pair    | 0.0034094  | 0.14372    | 0.81398    |  59.0 |  4.50
Bond    | 0.001022   | 0.18272    | 1.0876     |  67.4 |  5.72
Neigh   | 0.0047587  | 0.0051988  | 0.0054982  |   0.2 |  0.16
Comm    | 1.2524     | 2.3607     | 2.907      |  40.5 | 73.86
Output  | 0.0011984  | 0.0021865  | 0.0032363  |   1.4 |  0.07
Modify  | 0.10192    | 0.39464    | 1.7367     |  88.0 | 12.35
Other   |            | 0.107      |            |       |  3.35

Nlocal:        10.0208 ave          47 max           0 min
Histogram: 23 11 5 1 0 0 1 3 2 2
Nghost:        1818.35 ave        2347 max        1176 min
Histogram: 8 0 0 0 24 0 0 0 0 16
Neighs:              0 ave           0 max           0 min
Histogram: 48 0 0 0 0 0 0 0 0 0

Total # of neighbors = 0
Ave neighs/atom = 0
Ave special neighs/atom = 15.567568
Neighbor list builds = 14
Dangerous builds = 0
fix             myat1 all ave/time 1000 10 10000 v_zave v_zdes file simulation_data/abpot/${cpt}.dat
fix             myat1 all ave/time 1000 10 10000 v_zave v_zdes file simulation_data/abpot/51.dat
run             50000
Generated 0 of 1 mixed pair_coeff terms from geometric mixing rule
Per MPI rank memory allocation (min/avg/max) = 13.32 | 13.8 | 14.98 Mbytes
   Step          Temp          E_pair         E_mol          TotEng         Press     
   3030000   294.91783      377.45097      18509.307      19308.723      83.41349     
   3040000   300.78825      380.98025      18531.409      19342.754      162.17346    
   3050000   308.53428      366.84342      18538.394      19346.685     -249.83694    
   3060000   300.95545      369.00787      18532.015      19331.626     -89.756218    
   3070000   302.59671      373.57315      18507.884      19314.409     -93.734443    
   3080000   285.65787      372.85593      18509.724      19291.297      8.8485487    
Loop time of 16.2748 on 48 procs for 50000 steps with 481 atoms

Performance: 13.272 ns/day, 1.808 hours/ns, 3072.237 timesteps/s, 1.478 Matom-step/s
100.0% CPU use with 48 MPI tasks x 1 OpenMP threads

MPI task timing breakdown:
Section |  min time  |  avg time  |  max time  |%varavg| %total
---------------------------------------------------------------
Pair    | 0.017071   | 0.71856    | 4.2763     | 132.7 |  4.42
Bond    | 0.0051203  | 0.91334    | 5.6184     | 151.9 |  5.61
Neigh   | 0.022309   | 0.024457   | 0.025988   |   0.5 |  0.15
Comm    | 6.1317     | 12.066     | 14.865     |  92.4 | 74.14
Output  | 0.0062785  | 0.011306   | 0.016454   |   3.1 |  0.07
Modify  | 0.51812    | 2.0077     | 8.9731     | 203.9 | 12.34
Other   |            | 0.5333     |            |       |  3.28

Nlocal:        10.0208 ave          51 max           0 min
Histogram: 26 9 5 0 1 0 2 2 1 2
Nghost:        1818.35 ave        2348 max        1177 min
Histogram: 8 0 0 0 24 0 0 0 0 16
Neighs:              0 ave           0 max           0 min
Histogram: 48 0 0 0 0 0 0 0 0 0

Total # of neighbors = 0
Ave neighs/atom = 0
Ave special neighs/atom = 15.567568
Neighbor list builds = 62
Dangerous builds = 0
unfix           myat1
next            cpt
jump            SELF loop

Total wall time: 0:16:39
