
     Program PWSCF v.7.3.1 starts on  7Aug2024 at 18:39:21 

     This program is part of the open-source Quantum ESPRESSO suite
     for quantum simulation of materials; please cite
         "P. Giannozzi et al., J. Phys.:Condens. Matter 21 395502 (2009);
         "P. Giannozzi et al., J. Phys.:Condens. Matter 29 465901 (2017);
         "P. Giannozzi et al., J. Chem. Phys. 152 154105 (2020);
          URL http://www.quantum-espresso.org", 
     in publications or presentations arising from this work. More details at
     http://www.quantum-espresso.org/quote

     Parallel version (MPI & OpenMP), running on       4 processor cores
     Number of MPI processes:                 2
     Threads/MPI process:                     2

     MPI processes distributed on     1 nodes
     2527 MiB available memory on the printing compute node when the environment starts

     Reading input from hydrogen_absorption7.in

     Current dimensions of program PWSCF are:
     Max number of different atomic species (ntypx) = 10
     Max number of k-points (npk) =  40000
     Max angular momentum in pseudopotentials (lmaxx) =  4

     IMPORTANT: XC functional enforced from input :
     Exchange-correlation= LDA
                           (   1   1   0   0   0   0   0)
     Any further DFT definition will be discarded
     Please, verify this is what you really want


     R & G space division:  proc/nbgrp/npool/nimage =       2
     Subspace diagonalization in iterative solution of the eigenvalue problem:
     a serial algorithm will be used


     Parallelization info
     --------------------
     sticks:   dense  smooth     PW     G-vecs:    dense   smooth      PW
     Min         882     351     84                59496    14997    1857
     Max         883     352     85                59501    15000    1858
     Sum        1765     703    169               118997    29997    3715

     Using Slab Decomposition


     Title: 
     7H2_absorption_C                                                           


     bravais-lattice index     =            4
     lattice parameter (alat)  =       8.0000  a.u.
     unit-cell volume          =     880.6989 (a.u.)^3
     number of atoms/cell      =           38
     number of atomic types    =            2
     number of electrons       =       110.00
     number of Kohn-Sham states=           66
     kinetic-energy cutoff     =      40.0000  Ry
     charge density cutoff     =     400.0000  Ry
     scf convergence threshold =      1.0E-06
     mixing beta               =       0.0500
     number of iterations used =            8  local-TF  mixing
     energy convergence thresh.=      1.0E-04
     force convergence thresh. =      1.0E-03
     press convergence thresh. =      5.0E-01
     Exchange-correlation= LDA
                           (   1   1   0   0   0   0   0)
     nstep                     =           50


     celldm(1)=   8.000004  celldm(2)=   0.000000  celldm(3)=   1.986214
     celldm(4)=   0.000000  celldm(5)=   0.000000  celldm(6)=   0.000000

     crystal axes: (cart. coord. in units of alat)
               a(1) = (   1.000000   0.000000   0.000000 )  
               a(2) = (  -0.500000   0.866025   0.000000 )  
               a(3) = (   0.000000   0.000000   1.986214 )  

     reciprocal axes: (cart. coord. in units 2 pi/alat)
               b(1) = (  1.000000  0.577350 -0.000000 )  
               b(2) = (  0.000000  1.154701  0.000000 )  
               b(3) = (  0.000000 -0.000000  0.503470 )  


     PseudoPot. # 1 for C  read from file:
     /home/edoardocabiati/.burai/.pseudopot/C.pz-n-rrkjus_psl.0.1.UPF
     MD5 check sum: a3cecbabebb5b3a1aff122f23eb09bb0
     Pseudo is Ultrasoft + core correction, Zval =  4.0
     Generated using "atomic" code by A. Dal Corso  v.5.0.2 svn rev. 9415
     Using radial grid of 1073 points,  4 beta functions with: 
                l(1) =   0
                l(2) =   0
                l(3) =   1
                l(4) =   1
     Q(r) pseudized with 0 coefficients 


     PseudoPot. # 2 for H  read from file:
     /home/edoardocabiati/.burai/.pseudopot/H.pz-rrkjus_psl.0.1.UPF
     MD5 check sum: 1467ebfaa2880178e80d097b970df8c7
     Pseudo is Ultrasoft, Zval =  1.0
     Generated using "atomic" code by A. Dal Corso  v.5.0.2 svn rev. 9415
     Using radial grid of  929 points,  2 beta functions with: 
                l(1) =   0
                l(2) =   0
     Q(r) pseudized with 0 coefficients 


     atomic species   valence    mass     pseudopotential
     C                 4.00    12.01100     C ( 1.00)
     H                 1.00     1.00784     H ( 1.00)

     No symmetry found



   Cartesian axes

     site n.     atom                  positions (alat units)
         1        C      tau(   1) = (  -0.0000468  -0.0000936   0.3631706  )
         2        C      tau(   2) = (   0.0000687   0.0001354   0.8018823  )
         3        C      tau(   3) = (  -0.0002040  -0.0004202   1.7516853  )
         4        C      tau(   4) = (  -0.0000592   0.2886695   0.3533332  )
         5        C      tau(   5) = (   0.2501009   0.1444193   0.8137936  )
         6        C      tau(   6) = (  -0.0001596   0.2887541   1.7450554  )
         7        C      tau(   7) = (   0.5000242   0.0000880   0.3577416  )
         8        C      tau(   8) = (   0.5001156   0.0000186   0.8111983  )
         9        C      tau(   9) = (   0.4999062  -0.0001986   1.7425545  )
        10        C      tau(  10) = (   0.5000051   0.2886636   0.3543503  )
        11        C      tau(  11) = (   0.7501167   0.1443876   0.8148291  )
        12        C      tau(  12) = (   0.4998618   0.2886184   1.7549178  )
        13        C      tau(  13) = (  -0.2499507   0.4329420   0.3615635  )
        14        C      tau(  14) = (  -0.2498427   0.4330593   0.8082586  )
        15        C      tau(  15) = (  -0.2500517   0.4331714   1.7579861  )
        16        C      tau(  16) = (  -0.2499705   0.7215723   0.3546479  )
        17        C      tau(  17) = (   0.0002145   0.5774404   0.8152635  )
        18        C      tau(  18) = (  -0.2500027   0.7215963   1.7577358  )
        19        C      tau(  19) = (   0.2499558   0.4329563   0.3640676  )
        20        C      tau(  20) = (   0.2501632   0.4332089   0.8017998  )
        21        C      tau(  21) = (   0.2498090   0.4331125   1.7529281  )
        22        C      tau(  22) = (   0.2499401   0.7217973   0.3523152  )
        23        C      tau(  23) = (   0.5001159   0.5773996   0.8117361  )
        24        C      tau(  24) = (   0.2497901   0.7213999   1.7531141  )
        25        H      tau(  25) = (   0.1581160   1.1586402   1.2832090  )
        26        H      tau(  26) = (   0.2519687   1.0139792   1.3306920  )
        27        H      tau(  27) = (   0.0736349   0.5787934   1.3134380  )
        28        H      tau(  28) = (   0.3016177   0.6136791   1.2719577  )
        29        H      tau(  29) = (   0.5248918   0.4657706   1.2863390  )
        30        H      tau(  30) = (   0.3281567   0.3915431   1.2792365  )
        31        H      tau(  31) = (   0.1512998   0.0549974   1.2934603  )
        32        H      tau(  32) = (   0.2277546   0.2139971   1.3177399  )
        33        H      tau(  33) = (  -0.3104924   0.6121149   1.2821077  )
        34        H      tau(  34) = (  -0.1012540   0.5920174   1.3140142  )
        35        H      tau(  35) = (   0.5204097   0.7400469   1.2763815  )
        36        H      tau(  36) = (   0.3146064   0.8249785   1.2729714  )
        37        H      tau(  37) = (   0.0400000   0.2771281   1.2115908  )
        38        H      tau(  38) = (   0.0300000   0.2944486   1.3704880  )

     number of k points=     1  Gaussian smearing, width (Ry)=  0.0100
                       cart. coord. in units 2pi/alat
        k(    1) = (   0.0000000   0.0000000   0.0000000), wk =   2.0000000

     Dense  grid:   118997 G-vectors     FFT dimensions: (  54,  54, 108)

     Smooth grid:    29997 G-vectors     FFT dimensions: (  36,  36,  64)

     Estimated max dynamical RAM per process >     150.13 MB

     Estimated total dynamical RAM >     300.26 MB

     Check: negative core charge=   -0.000002

     Initial potential from superposition of free atoms

     starting charge     109.9990, renormalised to     110.0000
     Starting wfcs are  110 randomized atomic wfcs

     total cpu time spent up to now is        1.8 secs

     Self-consistent Calculation

     iteration #  1     ecut=    40.00 Ry     beta= 0.05
     Davidson diagonalization with overlap
     ethr =  1.00E-02,  avg # of iterations =  8.0

     total cpu time spent up to now is        5.3 secs

     total energy              =    -299.13900086 Ry
     estimated scf accuracy    <       5.67859518 Ry

     iteration #  2     ecut=    40.00 Ry     beta= 0.05
     Davidson diagonalization with overlap
     ethr =  5.16E-03,  avg # of iterations =  1.0

     total cpu time spent up to now is        7.5 secs

     total energy              =    -297.47168544 Ry
     estimated scf accuracy    <       5.63451463 Ry

     iteration #  3     ecut=    40.00 Ry     beta= 0.05
     Davidson diagonalization with overlap
     ethr =  5.12E-03,  avg # of iterations =  1.0

     total cpu time spent up to now is       10.2 secs

     total energy              =    -295.96398574 Ry
     estimated scf accuracy    <       2.54227459 Ry

     iteration #  4     ecut=    40.00 Ry     beta= 0.05
     Davidson diagonalization with overlap
     ethr =  2.31E-03,  avg # of iterations =  2.0

     total cpu time spent up to now is       12.8 secs

     total energy              =    -296.42733712 Ry
     estimated scf accuracy    <       0.07946165 Ry

     iteration #  5     ecut=    40.00 Ry     beta= 0.05
     Davidson diagonalization with overlap
     ethr =  7.22E-05,  avg # of iterations = 20.0

     total cpu time spent up to now is       16.2 secs

     total energy              =    -296.50696413 Ry
     estimated scf accuracy    <       0.06674176 Ry

     iteration #  6     ecut=    40.00 Ry     beta= 0.05
     Davidson diagonalization with overlap
     ethr =  6.07E-05,  avg # of iterations =  2.0

     total cpu time spent up to now is       19.1 secs

     total energy              =    -296.45641647 Ry
     estimated scf accuracy    <       0.13773711 Ry

     iteration #  7     ecut=    40.00 Ry     beta= 0.05
     Davidson diagonalization with overlap
     ethr =  6.07E-05,  avg # of iterations =  2.0

     total cpu time spent up to now is       21.0 secs

     total energy              =    -296.45544560 Ry
     estimated scf accuracy    <       0.02092589 Ry

     iteration #  8     ecut=    40.00 Ry     beta= 0.05
     Davidson diagonalization with overlap
     ethr =  1.90E-05,  avg # of iterations =  9.0

     total cpu time spent up to now is       23.2 secs

     total energy              =    -296.45924063 Ry
     estimated scf accuracy    <       0.00650087 Ry

     iteration #  9     ecut=    40.00 Ry     beta= 0.05
     Davidson diagonalization with overlap
     ethr =  5.91E-06,  avg # of iterations =  2.0

     total cpu time spent up to now is       26.7 secs

     total energy              =    -296.45756828 Ry
     estimated scf accuracy    <       0.00601098 Ry

     iteration # 10     ecut=    40.00 Ry     beta= 0.05
     Davidson diagonalization with overlap
     ethr =  5.46E-06,  avg # of iterations =  8.0

     total cpu time spent up to now is       30.0 secs

     total energy              =    -296.45827185 Ry
     estimated scf accuracy    <       0.00090664 Ry

     iteration # 11     ecut=    40.00 Ry     beta= 0.05
     Davidson diagonalization with overlap
     ethr =  8.24E-07,  avg # of iterations = 14.0

     total cpu time spent up to now is       32.6 secs

     total energy              =    -296.45879095 Ry
     estimated scf accuracy    <       0.00065355 Ry

     iteration # 12     ecut=    40.00 Ry     beta= 0.05
     Davidson diagonalization with overlap
     ethr =  5.94E-07,  avg # of iterations =  2.0

     total cpu time spent up to now is       34.7 secs

     total energy              =    -296.45822739 Ry
     estimated scf accuracy    <       0.00130432 Ry

     iteration # 13     ecut=    40.00 Ry     beta= 0.05
     Davidson diagonalization with overlap
     ethr =  5.94E-07,  avg # of iterations =  2.0

     total cpu time spent up to now is       37.3 secs

     total energy              =    -296.45823198 Ry
     estimated scf accuracy    <       0.00017506 Ry

     iteration # 14     ecut=    40.00 Ry     beta= 0.05
     Davidson diagonalization with overlap
     ethr =  1.59E-07,  avg # of iterations =  5.0

     total cpu time spent up to now is       40.3 secs

     total energy              =    -296.45837178 Ry
     estimated scf accuracy    <       0.00015917 Ry

     iteration # 15     ecut=    40.00 Ry     beta= 0.05
     Davidson diagonalization with overlap
     ethr =  1.45E-07,  avg # of iterations =  1.0

     total cpu time spent up to now is       42.0 secs

     total energy              =    -296.45835038 Ry
     estimated scf accuracy    <       0.00017391 Ry

     iteration # 16     ecut=    40.00 Ry     beta= 0.05
     Davidson diagonalization with overlap
     ethr =  1.45E-07,  avg # of iterations =  1.0

     total cpu time spent up to now is       43.7 secs

     total energy              =    -296.45829778 Ry
     estimated scf accuracy    <       0.00012765 Ry

     iteration # 17     ecut=    40.00 Ry     beta= 0.05
     Davidson diagonalization with overlap
     ethr =  1.16E-07,  avg # of iterations =  2.0

     total cpu time spent up to now is       45.5 secs

     total energy              =    -296.45830679 Ry
     estimated scf accuracy    <       0.00002897 Ry

     iteration # 18     ecut=    40.00 Ry     beta= 0.05
     Davidson diagonalization with overlap
     ethr =  2.63E-08,  avg # of iterations =  1.0

     total cpu time spent up to now is       47.1 secs

     total energy              =    -296.45830761 Ry
     estimated scf accuracy    <       0.00002108 Ry

     iteration # 19     ecut=    40.00 Ry     beta= 0.05
     Davidson diagonalization with overlap
     ethr =  1.92E-08,  avg # of iterations =  1.0

     total cpu time spent up to now is       48.8 secs

     total energy              =    -296.45830467 Ry
     estimated scf accuracy    <       0.00001898 Ry

     iteration # 20     ecut=    40.00 Ry     beta= 0.05
     Davidson diagonalization with overlap
     ethr =  1.73E-08,  avg # of iterations =  1.0

     total cpu time spent up to now is       50.4 secs

     total energy              =    -296.45830354 Ry
     estimated scf accuracy    <       0.00001269 Ry

     iteration # 21     ecut=    40.00 Ry     beta= 0.05
     Davidson diagonalization with overlap
     ethr =  1.15E-08,  avg # of iterations =  1.0

     total cpu time spent up to now is       52.1 secs

     total energy              =    -296.45830336 Ry
     estimated scf accuracy    <       0.00000771 Ry

     iteration # 22     ecut=    40.00 Ry     beta= 0.05
     Davidson diagonalization with overlap
     ethr =  7.01E-09,  avg # of iterations =  1.0

     total cpu time spent up to now is       53.7 secs

     total energy              =    -296.45830276 Ry
     estimated scf accuracy    <       0.00000533 Ry

     iteration # 23     ecut=    40.00 Ry     beta= 0.05
     Davidson diagonalization with overlap
     ethr =  4.85E-09,  avg # of iterations =  2.0

     total cpu time spent up to now is       55.5 secs

     total energy              =    -296.45830175 Ry
     estimated scf accuracy    <       0.00000294 Ry

     iteration # 24     ecut=    40.00 Ry     beta= 0.05
     Davidson diagonalization with overlap
     ethr =  2.67E-09,  avg # of iterations =  4.0

     total cpu time spent up to now is       57.8 secs

     End of self-consistent calculation

          k = 0.0000 0.0000 0.0000 (  3715 PWs)   bands (ev):

   -10.6806  -7.9814  -7.4395  -4.7119  -3.0980  -2.9989  -2.9913  -2.8240
    -2.7913  -2.6519  -0.8186  -0.6989  -0.6605  -0.4634  -0.2717  -0.2597
     0.0360   0.1270   0.1519   0.5415   0.6243   0.6573   0.8144   2.2261
     5.0728   5.3017   6.2516   6.3483   6.4488   6.5764   6.6058   6.6177
     7.8519   7.8653   7.8732   8.3958   8.5367   8.5785   8.6156   9.0606
     9.1660   9.3182  10.5598  11.6462  11.7205  12.0460  12.0960  12.6291
    12.7531  12.7636  13.7073  13.7556  13.7623  13.8940  15.1092  17.0693
    17.2097  17.2139  18.0333  18.4070  18.4631  19.2641  19.3828  19.4364
    21.1473  24.5365

     the Fermi energy is    16.4125 ev

!    total energy              =    -296.45830311 Ry
     estimated scf accuracy    <       0.00000077 Ry
     smearing contrib. (-TS)   =      -0.00000000 Ry
     internal energy E=F+TS    =    -296.45830311 Ry

     The total energy is F=E-TS. E is the sum of the following terms:
     one-electron contribution =      13.38422221 Ry
     hartree contribution      =      82.49461653 Ry
     xc contribution           =    -121.73338139 Ry
     ewald contribution        =    -270.60376045 Ry

     convergence has been achieved in  24 iterations

     Forces acting on atoms (cartesian axes, Ry/au):

     atom    1 type  1   force =    -0.00089161   -0.00391155   -0.00936041
     atom    2 type  1   force =    -0.00088147    0.00731281   -0.01121172
     atom    3 type  1   force =     0.00943658    0.00393052    0.01237022
     atom    4 type  1   force =    -0.01130326    0.00388401   -0.06717194
     atom    5 type  1   force =     0.00985037   -0.00405732    0.08106261
     atom    6 type  1   force =     0.04093633   -0.03108519   -0.03129392
     atom    7 type  1   force =    -0.01763631    0.00805682   -0.04623442
     atom    8 type  1   force =    -0.00083191    0.00292733    0.09465498
     atom    9 type  1   force =     0.02297584   -0.00472720   -0.07960451
     atom   10 type  1   force =    -0.00117430   -0.02382210   -0.05767164
     atom   11 type  1   force =    -0.00501073    0.00045562    0.06208425
     atom   12 type  1   force =     0.01616503    0.03723934    0.04502483
     atom   13 type  1   force =     0.00083966    0.00020579   -0.02209164
     atom   14 type  1   force =     0.00782932   -0.00240575    0.00915444
     atom   15 type  1   force =    -0.04637415    0.01702802    0.03679431
     atom   16 type  1   force =     0.02028164    0.01278681   -0.05689189
     atom   17 type  1   force =    -0.00516216    0.00069736    0.06632640
     atom   18 type  1   force =    -0.03091232   -0.02331063    0.05163704
     atom   19 type  1   force =     0.00326116    0.00819820   -0.00705457
     atom   20 type  1   force =    -0.00886653   -0.00596034   -0.01368366
     atom   21 type  1   force =     0.00792038   -0.01467791    0.01778738
     atom   22 type  1   force =    -0.00805332   -0.00050726   -0.06305111
     atom   23 type  1   force =     0.00622342    0.00018253    0.06031696
     atom   24 type  1   force =     0.02216161   -0.00094795    0.05624349
     atom   25 type  2   force =    -0.07257593    0.01677978   -0.03624134
     atom   26 type  2   force =    -0.03546180   -0.06589009    0.04500889
     atom   27 type  2   force =     0.07279111    0.09332458    0.00422711
     atom   28 type  2   force =    -0.03642773    0.00670956   -0.01421210
     atom   29 type  2   force =     0.02131534   -0.02813646    0.01529163
     atom   30 type  2   force =     0.06426778   -0.01413321   -0.01944912
     atom   31 type  2   force =     0.10583706   -0.22487144    0.01023716
     atom   32 type  2   force =     0.31157420   -0.06767330    0.07149375
     atom   33 type  2   force =     0.06916629    0.01473506   -0.00991416
     atom   34 type  2   force =    -0.07950502    0.09317806    0.00458761
     atom   35 type  2   force =    -0.00692337    0.01536108   -0.00124906
     atom   36 type  2   force =    -0.07076728    0.01618756   -0.02322840
     atom   37 type  2   force =    -0.18209213    0.06153672   -0.33004396
     atom   38 type  2   force =    -0.19198179    0.09540017    0.15535653

     Total force =     0.713956     Total SCF correction =     0.002088


     Computing stress (Cartesian axis) and pressure

          total   stress  (Ry/bohr**3)                   (kbar)     P=     3499.46
   0.03265661  -0.00014759   0.00006551         4803.95      -21.71        9.64
  -0.00014759   0.03245919   0.00001487          -21.71     4774.91        2.19
   0.00006551   0.00001487   0.00625071            9.64        2.19      919.51


     BFGS Geometry Optimization
     Energy error            =      0.0E+00 Ry
     Gradient error          =      3.3E-01 Ry/Bohr
     Cell gradient error     =      4.8E+03 kbar

     number of scf cycles    =   1
     number of bfgs steps    =   0

     enthalpy           new  =    -296.4583031092 Ry

     new trust radius        =       0.5000000000 bohr
     new conv_thr            =       0.0000010000 Ry

     new unit-cell volume =   1051.52941 a.u.^3 (   155.82058 Ang^3 )
     density =      3.22232 g/cm^3

CELL_PARAMETERS (alat=  8.00000437)
   1.084240508  -0.000380711   0.000168982
  -0.542449960   0.938729162  -0.000051262
   0.000335635   0.000076210   2.018240675

ATOMIC_POSITIONS (crystal)
C               -0.0001008451       -0.0001080351        0.1827848543    0   0   1
C                0.0001469010        0.0001563448        0.4036511355    0   0   1
C               -0.0004465964       -0.0004852453        0.8820018787    0   0   1
C                0.1666042513        0.3333268596        0.1774565944    0   0   1
C                0.3334814408        0.1667610008        0.4102473098    0   0   1
C                0.1665526290        0.3334244615        0.8783803628    0   0   1
C                0.5000750124        0.0001015830        0.1798120634    0   0   1
C                0.5001263026        0.0000214590        0.4090289048    0   0   1
C                0.4997915877       -0.0002293090        0.8768075343    0   0   1
C                0.6666651532        0.3333200085        0.1780303457    0   0   1
C                0.8334788753        0.1667244398        0.4106454108    0   0   1
C                0.6664957195        0.3332677890        0.8838413645    0   0   1
C                0.0000085266        0.4999183753        0.1818930157    0   0   1
C                0.0001841961        0.5000537884        0.4069936731    0   0   1
C                0.0000399826        0.5001833028        0.8853327546    0   0   1
C                0.1666294594        0.8331999589        0.1781852719    0   0   1
C                0.3335998475        0.6667707930        0.4108916633    0   0   1
C                0.1666110989        0.8332276002        0.8853030938    0   0   1
C                0.4999232746        0.4999348981        0.1832514178    0   0   1
C                0.5002764653        0.5002265261        0.4035935468    0   0   1
C                0.4998666371        0.5001152770        0.8826627332    0   0   1
C                0.6666699544        0.8334597295        0.1769708274    0   0   1
C                0.8334777702        0.6667236590        0.4090766989    0   0   1
C                0.6662905885        0.8330008833        0.8830061107    0   0   1
H                0.8262461343        1.3381323322        0.6458222641
H                0.8364417928        1.1698610396        0.6702562084
H                0.4094352523        0.6697229035        0.6613044836
H                0.6555056073        0.7087155090        0.6403006636
H                0.7938700351        0.5374065388        0.6477327945
H                0.5549378851        0.4519045684        0.6439312840
H                0.1827431259        0.0601564696        0.6512853054
H                0.3548205841        0.2460946682        0.6639071728
H                0.0439141532        0.7070288598        0.6454387584
H                0.2402157462        0.6849904888        0.6615969444
H                0.9477010649        0.8547612775        0.6426120666
H                0.7901157024        0.9528441811        0.6407524459
H                0.1981096306        0.3209164809        0.6078567869
H                0.1982342427        0.3414208172        0.6910088418



     Writing config-only to output data dir ../results/7h2_abs/7H2abs_C.save/ :
     XML data file
     NEW-OLD atomic charge density approx. for the potential

     Check: negative core charge=   -0.000002

     total cpu time spent up to now is       62.0 secs

     Self-consistent Calculation

     iteration #  1     ecut=    40.00 Ry     beta= 0.05
     Davidson diagonalization with overlap
     ethr =  1.00E-06,  avg # of iterations = 18.0

     total cpu time spent up to now is       68.9 secs

     total energy              =    -299.88381575 Ry
     estimated scf accuracy    <       0.22754431 Ry

     iteration #  2     ecut=    40.00 Ry     beta= 0.05
     Davidson diagonalization with overlap
     ethr =  2.07E-04,  avg # of iterations =  1.0

     total cpu time spent up to now is       70.5 secs

     total energy              =    -299.76529243 Ry
     estimated scf accuracy    <       0.21287284 Ry

     iteration #  3     ecut=    40.00 Ry     beta= 0.05
     Davidson diagonalization with overlap
     ethr =  1.94E-04,  avg # of iterations =  2.0

     total cpu time spent up to now is       72.6 secs

     total energy              =    -299.79570083 Ry
     estimated scf accuracy    <       0.01153382 Ry

     iteration #  4     ecut=    40.00 Ry     beta= 0.05
     Davidson diagonalization with overlap
     ethr =  1.05E-05,  avg # of iterations = 11.0

     total cpu time spent up to now is       75.0 secs

     total energy              =    -299.79999150 Ry
     estimated scf accuracy    <       0.00880972 Ry

     iteration #  5     ecut=    40.00 Ry     beta= 0.05
     Davidson diagonalization with overlap
     ethr =  8.01E-06,  avg # of iterations =  2.0

     total cpu time spent up to now is       76.7 secs

     total energy              =    -299.79688639 Ry
     estimated scf accuracy    <       0.01072009 Ry

     iteration #  6     ecut=    40.00 Ry     beta= 0.05
     Davidson diagonalization with overlap
     ethr =  8.01E-06,  avg # of iterations =  8.0

     total cpu time spent up to now is       78.6 secs

     total energy              =    -299.79804798 Ry
     estimated scf accuracy    <       0.00275449 Ry

     iteration #  7     ecut=    40.00 Ry     beta= 0.05
     Davidson diagonalization with overlap
     ethr =  2.50E-06,  avg # of iterations =  6.0

     total cpu time spent up to now is       80.8 secs

     total energy              =    -299.79739415 Ry
     estimated scf accuracy    <       0.00316114 Ry

     iteration #  8     ecut=    40.00 Ry     beta= 0.05
     Davidson diagonalization with overlap
     ethr =  2.50E-06,  avg # of iterations =  8.0

     total cpu time spent up to now is       82.6 secs

     total energy              =    -299.79762421 Ry
     estimated scf accuracy    <       0.00104370 Ry

     iteration #  9     ecut=    40.00 Ry     beta= 0.05
     Davidson diagonalization with overlap
     ethr =  9.49E-07,  avg # of iterations = 10.0

     total cpu time spent up to now is       84.6 secs

     total energy              =    -299.79755911 Ry
     estimated scf accuracy    <       0.00109449 Ry

     iteration # 10     ecut=    40.00 Ry     beta= 0.05
     Davidson diagonalization with overlap
     ethr =  9.49E-07,  avg # of iterations =  1.0

     total cpu time spent up to now is       86.2 secs

     total energy              =    -299.79723265 Ry
     estimated scf accuracy    <       0.00065486 Ry

     iteration # 11     ecut=    40.00 Ry     beta= 0.05
     Davidson diagonalization with overlap
     ethr =  5.95E-07,  avg # of iterations =  2.0

     total cpu time spent up to now is       88.1 secs

     total energy              =    -299.79734916 Ry
     estimated scf accuracy    <       0.00009160 Ry

     iteration # 12     ecut=    40.00 Ry     beta= 0.05
     Davidson diagonalization with overlap
     ethr =  8.33E-08,  avg # of iterations =  4.0

     total cpu time spent up to now is       90.2 secs

     total energy              =    -299.79734285 Ry
     estimated scf accuracy    <       0.00012132 Ry

     iteration # 13     ecut=    40.00 Ry     beta= 0.05
     Davidson diagonalization with overlap
     ethr =  8.33E-08,  avg # of iterations =  1.0

     total cpu time spent up to now is       91.8 secs

     total energy              =    -299.79733103 Ry
     estimated scf accuracy    <       0.00005141 Ry

     iteration # 14     ecut=    40.00 Ry     beta= 0.05
     Davidson diagonalization with overlap
     ethr =  4.67E-08,  avg # of iterations =  2.0

     total cpu time spent up to now is       93.8 secs

     total energy              =    -299.79733936 Ry
     estimated scf accuracy    <       0.00001032 Ry

     iteration # 15     ecut=    40.00 Ry     beta= 0.05
     Davidson diagonalization with overlap
     ethr =  9.38E-09,  avg # of iterations =  4.0

     total cpu time spent up to now is       95.8 secs

     total energy              =    -299.79733657 Ry
     estimated scf accuracy    <       0.00001554 Ry

     iteration # 16     ecut=    40.00 Ry     beta= 0.05
     Davidson diagonalization with overlap
     ethr =  9.38E-09,  avg # of iterations =  2.0

     total cpu time spent up to now is       97.6 secs

     total energy              =    -299.79733596 Ry
     estimated scf accuracy    <       0.00000751 Ry

     iteration # 17     ecut=    40.00 Ry     beta= 0.05
     Davidson diagonalization with overlap
     ethr =  6.82E-09,  avg # of iterations =  2.0

     total cpu time spent up to now is       99.4 secs

     total energy              =    -299.79733707 Ry
     estimated scf accuracy    <       0.00000102 Ry

     iteration # 18     ecut=    40.00 Ry     beta= 0.05
     Davidson diagonalization with overlap
     ethr =  9.25E-10,  avg # of iterations =  4.0

     total cpu time spent up to now is      101.4 secs

     End of self-consistent calculation

          k = 0.0000 0.0000 0.0000 (  3715 PWs)   bands (ev):

   -11.2560  -8.4499  -8.0900  -4.8850  -4.6593  -4.5704  -4.3964  -4.2434
    -4.1207  -4.0787  -2.0127  -1.9080  -1.8943  -1.8279  -1.7966  -1.7866
    -1.7475  -1.5230  -1.4656  -1.4292  -1.4175  -1.2786   0.1209   1.2395
     3.7662   3.8979   4.2841   4.3040   4.3201   4.4996   4.6454   5.2322
     5.6376   5.6394   5.6598   6.3608   6.3880   6.4263   6.9144   7.0116
     7.1288   7.4285   8.3505   8.7434   8.7696   9.4881   9.4934   9.5094
     9.5254  10.3565  10.5659  10.5773  11.5894  11.6582  12.6635  14.3139
    14.4449  14.4575  14.8867  15.2392  15.3116  16.3727  16.4442  16.5151
    19.3066  19.5189

     the Fermi energy is    13.5522 ev

!    total energy              =    -299.79734143 Ry
     estimated scf accuracy    <       0.00000020 Ry
     smearing contrib. (-TS)   =      -0.00000000 Ry
     internal energy E=F+TS    =    -299.79734143 Ry

     The total energy is F=E-TS. E is the sum of the following terms:
     one-electron contribution =      11.64841593 Ry
     hartree contribution      =      72.31496441 Ry
     xc contribution           =    -116.04677951 Ry
     ewald contribution        =    -267.71394226 Ry

     convergence has been achieved in  18 iterations

     Forces acting on atoms (cartesian axes, Ry/au):

     atom    1 type  1   force =    -0.00040283   -0.00383770   -0.01550370
     atom    2 type  1   force =    -0.00130010    0.00603878   -0.00156788
     atom    3 type  1   force =     0.01181048    0.00478062    0.01155188
     atom    4 type  1   force =    -0.01133753    0.00479427   -0.05781267
     atom    5 type  1   force =     0.01363307   -0.00701305    0.07329362
     atom    6 type  1   force =     0.03157421   -0.02270282    0.02555036
     atom    7 type  1   force =    -0.01373136    0.00650840   -0.03310503
     atom    8 type  1   force =    -0.00161338    0.00243206    0.06338326
     atom    9 type  1   force =     0.02503515   -0.00672999   -0.02408606
     atom   10 type  1   force =    -0.00154343   -0.01890718   -0.05833804
     atom   11 type  1   force =    -0.00639475   -0.00137349    0.05873781
     atom   12 type  1   force =     0.01186093    0.02654369    0.02897036
     atom   13 type  1   force =     0.00300397   -0.00114437   -0.02217633
     atom   14 type  1   force =     0.00406636   -0.00022388    0.00323693
     atom   15 type  1   force =    -0.03580936    0.01505974    0.01462333
     atom   16 type  1   force =     0.01557644    0.01055780   -0.05919770
     atom   17 type  1   force =    -0.00390539    0.00368611    0.06110581
     atom   18 type  1   force =    -0.02376399   -0.01830565    0.02572189
     atom   19 type  1   force =     0.00331227    0.00560047   -0.01569062
     atom   20 type  1   force =    -0.00726148   -0.00337588   -0.00287955
     atom   21 type  1   force =     0.00441011   -0.01660082    0.01070281
     atom   22 type  1   force =    -0.00555370   -0.00007862   -0.05827248
     atom   23 type  1   force =     0.00778515   -0.00164484    0.05569525
     atom   24 type  1   force =     0.00773261    0.00494936    0.03923475
     atom   25 type  2   force =    -0.04682574   -0.00543794   -0.01858435
     atom   26 type  2   force =    -0.04102686   -0.03521077    0.01919824
     atom   27 type  2   force =     0.02269169    0.07338501    0.00101754
     atom   28 type  2   force =    -0.01772745    0.00591536   -0.00929220
     atom   29 type  2   force =     0.01525046   -0.01068314    0.01117439
     atom   30 type  2   force =     0.05171099   -0.00447558   -0.01243915
     atom   31 type  2   force =     0.09736974   -0.13599109    0.01256048
     atom   32 type  2   force =     0.21234022   -0.07376697    0.04182982
     atom   33 type  2   force =     0.02954865    0.01001963   -0.00722519
     atom   34 type  2   force =    -0.02683882    0.07186682   -0.00049457
     atom   35 type  2   force =    -0.00714620    0.00187786    0.00116354
     atom   36 type  2   force =    -0.04087470   -0.00158602   -0.01433941
     atom   37 type  2   force =    -0.13611471    0.04780124   -0.20907635
     atom   38 type  2   force =    -0.13954072    0.06727257    0.06132920

     Total force =     0.487042     Total SCF correction =     0.000866


     Computing stress (Cartesian axis) and pressure

          total   stress  (Ry/bohr**3)                   (kbar)     P=     1358.44
   0.01130935  -0.00005133   0.00000203         1663.66       -7.55        0.30
  -0.00005133   0.01120764   0.00002427           -7.55     1648.70        3.57
   0.00000203   0.00002427   0.00518649            0.30        3.57      762.96

     Energy error            =      3.3E+00 Ry
     Gradient error          =      2.1E-01 Ry/Bohr
     Cell gradient error     =      1.7E+03 kbar

     number of scf cycles    =   2
     number of bfgs steps    =   1

     enthalpy           old  =    -296.4583031092 Ry
     enthalpy           new  =    -299.7973414261 Ry

     CASE: enthalpy          _new < enthalpy          _old

     new trust radius        =       0.8000000000 bohr
     new conv_thr            =       0.0000010000 Ry

     new unit-cell volume =   1270.85735 a.u.^3 (   188.32163 Ang^3 )
     density =      2.66620 g/cm^3

CELL_PARAMETERS (alat=  8.00000437)
   1.125224739  -0.000436468  -0.000498749
  -0.562989892   0.973187929   0.000870425
  -0.001052166   0.001521002   2.267189841

ATOMIC_POSITIONS (crystal)
C               -0.0001013143       -0.0001081439        0.1817840615    0   0   1
C                0.0001468536        0.0001563338        0.4038295461    0   0   1
C               -0.0004462468       -0.0004851643        0.8826005952    0   0   1
C                0.1666025018        0.3333264541        0.1746036382    0   0   1
C                0.3334836588        0.1667615149        0.4139758115    0   0   1
C                0.1665534022        0.3334246407        0.8813023350    0   0   1
C                0.5000740106        0.0001013508        0.1783900420    0   0   1
C                0.5001282207        0.0000219036        0.4115844325    0   0   1
C                0.4997908588       -0.0002294780        0.8770250291    0   0   1
C                0.6666633878        0.3333195993        0.1748760485    0   0   1
C                0.8334806528        0.1667248518        0.4137118897    0   0   1
C                0.6664965962        0.3332679922        0.8849614355    0   0   1
C                0.0000078555        0.4999182197        0.1806985507    0   0   1
C                0.0001842941        0.5000538111        0.4070064924    0   0   1
C                0.0000404251        0.5001834054        0.8855149426    0   0   1
C                0.1666276680        0.8331995436        0.1749401041    0   0   1
C                0.3336016967        0.6667712216        0.4140343897    0   0   1
C                0.1666118773        0.8332277806        0.8859799285    0   0   1
C                0.4999227998        0.4999347880        0.1821726744    0   0   1
C                0.5002763782        0.5002265059        0.4037330502    0   0   1
C                0.4998669610        0.5001153521        0.8830451130    0   0   1
C                0.6666681910        0.8334593207        0.1739683766    0   0   1
C                0.8334794556        0.6667240497        0.4119448765    0   0   1
C                0.6662917758        0.8330011585        0.8846519813    0   0   1
H                0.8210730443        1.3360097514        0.6453035310
H                0.8298918272        1.1670042413        0.6705845301
H                0.4137417119        0.6784305394        0.6612722866
H                0.6548097273        0.7094694983        0.6399349292
H                0.7951557806        0.5370467358        0.6482215289
H                0.5603338500        0.4518971074        0.6434542121
H                0.1872895113        0.0472548766        0.6520247166
H                0.3692188844        0.2356927544        0.6653504580
H                0.0457748534        0.7080913549        0.6451240221
H                0.2441154166        0.6934099201        0.6614317776
H                0.9465552660        0.8541741679        0.6427402451
H                0.7862661121        0.9515213861        0.6402231657
H                0.1874042566        0.3265507694        0.5999106891
H                0.1883540529        0.3487994534        0.6917428172



     Writing config-only to output data dir ../results/7h2_abs/7H2abs_C.save/ :
     XML data file
     NEW-OLD atomic charge density approx. for the potential

     Check: negative core charge=   -0.000003

     total cpu time spent up to now is      105.5 secs

     Self-consistent Calculation

     iteration #  1     ecut=    40.00 Ry     beta= 0.05
     Davidson diagonalization with overlap
     c_bands:  1 eigenvalues not converged
     ethr =  1.00E-06,  avg # of iterations = 20.0

     total cpu time spent up to now is      112.5 secs

     total energy              =    -300.91742954 Ry
     estimated scf accuracy    <       0.10659592 Ry

     iteration #  2     ecut=    40.00 Ry     beta= 0.05
     Davidson diagonalization with overlap
     ethr =  9.69E-05,  avg # of iterations =  1.0

     total cpu time spent up to now is      114.1 secs

     total energy              =    -300.87578705 Ry
     estimated scf accuracy    <       0.10008067 Ry

     iteration #  3     ecut=    40.00 Ry     beta= 0.05
     Davidson diagonalization with overlap
     ethr =  9.10E-05,  avg # of iterations =  2.0

     total cpu time spent up to now is      116.0 secs

     total energy              =    -300.88668143 Ry
     estimated scf accuracy    <       0.01185774 Ry

     iteration #  4     ecut=    40.00 Ry     beta= 0.05
     Davidson diagonalization with overlap
     ethr =  1.08E-05,  avg # of iterations = 13.0

     total cpu time spent up to now is      118.0 secs

     total energy              =    -300.88713793 Ry
     estimated scf accuracy    <       0.01135873 Ry

     iteration #  5     ecut=    40.00 Ry     beta= 0.05
     Davidson diagonalization with overlap
     ethr =  1.03E-05,  avg # of iterations =  1.0

     total cpu time spent up to now is      119.6 secs

     total energy              =    -300.88428842 Ry
     estimated scf accuracy    <       0.00975873 Ry

     iteration #  6     ecut=    40.00 Ry     beta= 0.05
     Davidson diagonalization with overlap
     ethr =  8.87E-06,  avg # of iterations =  2.0

     total cpu time spent up to now is      121.5 secs

     total energy              =    -300.88486440 Ry
     estimated scf accuracy    <       0.00380939 Ry

     iteration #  7     ecut=    40.00 Ry     beta= 0.05
     Davidson diagonalization with overlap
     ethr =  3.46E-06,  avg # of iterations = 11.0

     total cpu time spent up to now is      123.4 secs

     total energy              =    -300.88455753 Ry
     estimated scf accuracy    <       0.00271589 Ry

     iteration #  8     ecut=    40.00 Ry     beta= 0.05
     Davidson diagonalization with overlap
     ethr =  2.47E-06,  avg # of iterations =  1.0

     total cpu time spent up to now is      125.0 secs

     total energy              =    -300.88429524 Ry
     estimated scf accuracy    <       0.00117553 Ry

     iteration #  9     ecut=    40.00 Ry     beta= 0.05
     Davidson diagonalization with overlap
     ethr =  1.07E-06,  avg # of iterations =  2.0

     total cpu time spent up to now is      126.9 secs

     total energy              =    -300.88446877 Ry
     estimated scf accuracy    <       0.00046291 Ry

     iteration # 10     ecut=    40.00 Ry     beta= 0.05
     Davidson diagonalization with overlap
     ethr =  4.21E-07,  avg # of iterations =  2.0

     total cpu time spent up to now is      128.6 secs

     total energy              =    -300.88433585 Ry
     estimated scf accuracy    <       0.00049198 Ry

     iteration # 11     ecut=    40.00 Ry     beta= 0.05
     Davidson diagonalization with overlap
     ethr =  4.21E-07,  avg # of iterations =  2.0

     total cpu time spent up to now is      130.4 secs

     total energy              =    -300.88436472 Ry
     estimated scf accuracy    <       0.00017648 Ry

     iteration # 12     ecut=    40.00 Ry     beta= 0.05
     Davidson diagonalization with overlap
     ethr =  1.60E-07,  avg # of iterations =  2.0

     total cpu time spent up to now is      132.1 secs

     total energy              =    -300.88437002 Ry
     estimated scf accuracy    <       0.00011726 Ry

     iteration # 13     ecut=    40.00 Ry     beta= 0.05
     Davidson diagonalization with overlap
     ethr =  1.07E-07,  avg # of iterations =  1.0

     total cpu time spent up to now is      133.8 secs

     total energy              =    -300.88434065 Ry
     estimated scf accuracy    <       0.00009908 Ry

     iteration # 14     ecut=    40.00 Ry     beta= 0.05
     Davidson diagonalization with overlap
     ethr =  9.01E-08,  avg # of iterations =  2.0

     total cpu time spent up to now is      135.6 secs

     total energy              =    -300.88435106 Ry
     estimated scf accuracy    <       0.00002356 Ry

     iteration # 15     ecut=    40.00 Ry     beta= 0.05
     Davidson diagonalization with overlap
     ethr =  2.14E-08,  avg # of iterations =  2.0

     total cpu time spent up to now is      137.5 secs

     total energy              =    -300.88435492 Ry
     estimated scf accuracy    <       0.00000836 Ry

     iteration # 16     ecut=    40.00 Ry     beta= 0.05
     Davidson diagonalization with overlap
     ethr =  7.60E-09,  avg # of iterations =  2.0

     total cpu time spent up to now is      139.4 secs

     total energy              =    -300.88435235 Ry
     estimated scf accuracy    <       0.00001100 Ry

     iteration # 17     ecut=    40.00 Ry     beta= 0.05
     Davidson diagonalization with overlap
     ethr =  7.60E-09,  avg # of iterations =  2.0

     total cpu time spent up to now is      141.3 secs

     total energy              =    -300.88435367 Ry
     estimated scf accuracy    <       0.00000129 Ry

     iteration # 18     ecut=    40.00 Ry     beta= 0.05
     Davidson diagonalization with overlap
     ethr =  1.17E-09,  avg # of iterations =  2.0

     total cpu time spent up to now is      143.0 secs

     End of self-consistent calculation

          k = 0.0000 0.0000 0.0000 (  3715 PWs)   bands (ev):

   -11.8052 -10.3264  -9.8852  -6.0162  -5.7635  -5.7318  -5.5906  -5.3048
    -5.2402  -5.2154  -4.4506  -4.3930  -4.3593  -4.0524  -4.0466  -4.0260
    -3.9242  -3.9198  -3.9155  -3.7402  -3.7258  -3.7203  -1.0430   0.4202
     1.8635   2.2078   2.3937   2.4875   2.5492   2.5662   2.5884   2.6939
     3.2195   3.2399   3.2576   3.4704   3.4963   3.5191   4.0408   5.1720
     5.2357   5.4035   6.1377   6.4363   6.4683   6.8588   6.8739   7.1537
     7.1922   7.2632   7.3031   7.8453   8.2852   8.3157   9.2875  11.0618
    11.1820  11.2152  11.7815  11.9949  12.0241  12.6334  12.7660  12.7997
    14.3272  16.7017

     the Fermi energy is    10.2552 ev

!    total energy              =    -300.88436268 Ry
     estimated scf accuracy    <       0.00000036 Ry
     smearing contrib. (-TS)   =      -0.00000000 Ry
     internal energy E=F+TS    =    -300.88436268 Ry

     The total energy is F=E-TS. E is the sum of the following terms:
     one-electron contribution =     -31.14873351 Ry
     hartree contribution      =      82.81761418 Ry
     xc contribution           =    -112.59527467 Ry
     ewald contribution        =    -239.95796870 Ry

     convergence has been achieved in  18 iterations

     Forces acting on atoms (cartesian axes, Ry/au):

     atom    1 type  1   force =    -0.00047785   -0.00062245   -0.00297237
     atom    2 type  1   force =     0.00033734    0.00418687    0.01034363
     atom    3 type  1   force =     0.00540008   -0.00421868    0.00816601
     atom    4 type  1   force =    -0.00573492    0.00378924    0.02072957
     atom    5 type  1   force =     0.00467607   -0.00381107   -0.02057180
     atom    6 type  1   force =     0.01292118   -0.01035633   -0.01571932
     atom    7 type  1   force =    -0.00538892    0.00125149   -0.01517924
     atom    8 type  1   force =    -0.00168815    0.00414125    0.04411483
     atom    9 type  1   force =     0.01029429   -0.00252123    0.00796872
     atom   10 type  1   force =     0.00012795   -0.01372336    0.01961002
     atom   11 type  1   force =    -0.00149421   -0.00150465   -0.02301334
     atom   12 type  1   force =     0.00555443    0.01668978    0.00114579
     atom   13 type  1   force =     0.00324980   -0.00259925   -0.00481283
     atom   14 type  1   force =    -0.00111750    0.00322582    0.00801860
     atom   15 type  1   force =    -0.02122899    0.00707159    0.00693115
     atom   16 type  1   force =     0.01224530    0.00880770    0.01902270
     atom   17 type  1   force =    -0.00223789   -0.00310274   -0.02164783
     atom   18 type  1   force =    -0.01439020   -0.00897326   -0.00169803
     atom   19 type  1   force =    -0.00095236    0.00128530   -0.00323878
     atom   20 type  1   force =    -0.00263543   -0.00121915    0.00891779
     atom   21 type  1   force =     0.00939646   -0.00615039    0.00645734
     atom   22 type  1   force =    -0.00855851    0.00432559    0.02166761
     atom   23 type  1   force =     0.00546942   -0.00363477   -0.03172946
     atom   24 type  1   force =     0.00759404    0.00213972    0.00057116
     atom   25 type  2   force =    -0.02970849   -0.01819938   -0.00350995
     atom   26 type  2   force =    -0.04014853   -0.02940512    0.00723131
     atom   27 type  2   force =     0.00976658    0.05784982    0.00137695
     atom   28 type  2   force =    -0.01118638    0.00048488   -0.00116202
     atom   29 type  2   force =     0.01299848    0.00156225    0.00569151
     atom   30 type  2   force =     0.01484986   -0.01421012   -0.00128439
     atom   31 type  2   force =     0.08355695   -0.04434824    0.01737426
     atom   32 type  2   force =     0.11821191   -0.07321584    0.02429572
     atom   33 type  2   force =     0.01315499    0.00735402   -0.00126262
     atom   34 type  2   force =    -0.00618709    0.05916030    0.00409182
     atom   35 type  2   force =    -0.00771014    0.00283054    0.00049105
     atom   36 type  2   force =    -0.03247238    0.00578169   -0.00018485
     atom   37 type  2   force =    -0.07459302    0.03077547    0.00158211
     atom   38 type  2   force =    -0.06189420    0.01910272   -0.09781281

     Total force =     0.263363     Total SCF correction =     0.001846


     Computing stress (Cartesian axis) and pressure

          total   stress  (Ry/bohr**3)                   (kbar)     P=      460.66
   0.00447423  -0.00001870   0.00005768          658.18       -2.75        8.49
  -0.00001870   0.00450788  -0.00001582           -2.75      663.13       -2.33
   0.00005768  -0.00001582   0.00041240            8.49       -2.33       60.67

     Energy error            =      1.1E+00 Ry
     Gradient error          =      1.2E-01 Ry/Bohr
     Cell gradient error     =      6.6E+02 kbar

     number of scf cycles    =   3
     number of bfgs steps    =   2

     enthalpy           old  =    -299.7973414261 Ry
     enthalpy           new  =    -300.8843626845 Ry

     CASE: enthalpy          _new < enthalpy          _old

     new trust radius        =       0.2471287605 bohr
     new conv_thr            =       0.0000010000 Ry

     new unit-cell volume =   1385.16364 a.u.^3 (   205.26007 Ang^3 )
     density =      2.44618 g/cm^3

CELL_PARAMETERS (alat=  8.00000437)
   1.159771187  -0.000396660   0.001566160
  -0.580231325   1.005314262  -0.000673663
   0.003115683   0.000166788   2.320827057

ATOMIC_POSITIONS (crystal)
C               -0.0001014333       -0.0001086252        0.1812603122    0   0   1
C                0.0001466791        0.0001578724        0.4051237319    0   0   1
C               -0.0004462489       -0.0004839181        0.8834777041    0   0   1
C                0.1666015725        0.3333294032        0.1767149254    0   0   1
C                0.3334847498        0.1667586273        0.4119879700    0   0   1
C                0.1665539129        0.3334223594        0.8811491747    0   0   1
C                0.5000738911        0.0000990058        0.1769854037    0   0   1
C                0.5001282198        0.0000286380        0.4156848915    0   0   1
C                0.4997904818       -0.0002283488        0.8790702435    0   0   1
C                0.6666624700        0.3333223802        0.1766293157    0   0   1
C                0.8334816267        0.1667215644        0.4115121970    0   0   1
C                0.6664968859        0.3332682343        0.8848252754    0   0   1
C                0.0000076938        0.4999174475        0.1800994687    0   0   1
C                0.0001842060        0.5000550148        0.4077092716    0   0   1
C                0.0000404744        0.5001844749        0.8857672103    0   0   1
C                0.1666267500        0.8332022349        0.1765895377    0   0   1
C                0.3336026749        0.6667681436        0.4119417573    0   0   1
C                0.1666121759        0.8332275906        0.8852990915    0   0   1
C                0.4999226828        0.4999342665        0.1815608938    0   0   1
C                0.5002762116        0.5002278287        0.4049015699    0   0   1
C                0.4998669760        0.5001163413        0.8835917098    0   0   1
C                0.6666672425        0.8334624087        0.1760651272    0   0   1
C                0.8334805303        0.6667194550        0.4087990350    0   0   1
C                0.6662921831        0.8330013401        0.8844793262    0   0   1
H                0.8129127794        1.3304631459        0.6452796267
H                0.8181288601        1.1613104372        0.6708008737
H                0.4203657069        0.6919194439        0.6613462958
H                0.6532856888        0.7096266169        0.6398913777
H                0.7982772034        0.5382129137        0.6487614934
H                0.5619723386        0.4490390636        0.6434319927
H                0.2013183707        0.0397818847        0.6539276956
H                0.3818854761        0.2171668489        0.6673321958
H                0.0477327568        0.7096945692        0.6450254556
H                0.2518683597        0.7071106787        0.6617358427
H                0.9448666338        0.8541240768        0.6428545015
H                0.7807671309        0.9518778676        0.6403544362
H                0.1763181958        0.3336931929        0.6020400964
H                0.1784928866        0.3526936707        0.6796480387



     Writing config-only to output data dir ../results/7h2_abs/7H2abs_C.save/ :
     XML data file
     NEW-OLD atomic charge density approx. for the potential

     Check: negative core charge=   -0.000005

     total cpu time spent up to now is      147.2 secs

     Self-consistent Calculation

     iteration #  1     ecut=    40.00 Ry     beta= 0.05
     Davidson diagonalization with overlap
     c_bands:  1 eigenvalues not converged
     ethr =  1.00E-06,  avg # of iterations = 20.0

     total cpu time spent up to now is      152.6 secs

     total energy              =    -301.20193627 Ry
     estimated scf accuracy    <       0.04484898 Ry

     iteration #  2     ecut=    40.00 Ry     beta= 0.05
     Davidson diagonalization with overlap
     ethr =  4.08E-05,  avg # of iterations =  1.0

     total cpu time spent up to now is      154.2 secs

     total energy              =    -301.17997440 Ry
     estimated scf accuracy    <       0.04177239 Ry

     iteration #  3     ecut=    40.00 Ry     beta= 0.05
     Davidson diagonalization with overlap
     ethr =  3.80E-05,  avg # of iterations =  2.0

     total cpu time spent up to now is      156.1 secs

     total energy              =    -301.18571025 Ry
     estimated scf accuracy    <       0.00318344 Ry

     iteration #  4     ecut=    40.00 Ry     beta= 0.05
     Davidson diagonalization with overlap
     ethr =  2.89E-06,  avg # of iterations = 10.0

     total cpu time spent up to now is      158.1 secs

     total energy              =    -301.18599472 Ry
     estimated scf accuracy    <       0.00304830 Ry

     iteration #  5     ecut=    40.00 Ry     beta= 0.05
     Davidson diagonalization with overlap
     ethr =  2.77E-06,  avg # of iterations =  1.0

     total cpu time spent up to now is      159.9 secs

     total energy              =    -301.18514674 Ry
     estimated scf accuracy    <       0.00271184 Ry

     iteration #  6     ecut=    40.00 Ry     beta= 0.05
     Davidson diagonalization with overlap
     ethr =  2.47E-06,  avg # of iterations =  2.0

     total cpu time spent up to now is      161.6 secs

     total energy              =    -301.18541202 Ry
     estimated scf accuracy    <       0.00104227 Ry

     iteration #  7     ecut=    40.00 Ry     beta= 0.05
     Davidson diagonalization with overlap
     ethr =  9.48E-07,  avg # of iterations =  1.0

     total cpu time spent up to now is      163.3 secs

     total energy              =    -301.18511320 Ry
     estimated scf accuracy    <       0.00097306 Ry

     iteration #  8     ecut=    40.00 Ry     beta= 0.05
     Davidson diagonalization with overlap
     ethr =  8.85E-07,  avg # of iterations =  9.0

     total cpu time spent up to now is      165.2 secs

     total energy              =    -301.18516385 Ry
     estimated scf accuracy    <       0.00038379 Ry

     iteration #  9     ecut=    40.00 Ry     beta= 0.05
     Davidson diagonalization with overlap
     ethr =  3.49E-07,  avg # of iterations =  2.0

     total cpu time spent up to now is      166.9 secs

     total energy              =    -301.18516672 Ry
     estimated scf accuracy    <       0.00018447 Ry

     iteration # 10     ecut=    40.00 Ry     beta= 0.05
     Davidson diagonalization with overlap
     ethr =  1.68E-07,  avg # of iterations =  2.0

     total cpu time spent up to now is      168.7 secs

     total energy              =    -301.18514163 Ry
     estimated scf accuracy    <       0.00012809 Ry

     iteration # 11     ecut=    40.00 Ry     beta= 0.05
     Davidson diagonalization with overlap
     ethr =  1.16E-07,  avg # of iterations =  2.0

     total cpu time spent up to now is      170.5 secs

     total energy              =    -301.18515523 Ry
     estimated scf accuracy    <       0.00004535 Ry

     iteration # 12     ecut=    40.00 Ry     beta= 0.05
     Davidson diagonalization with overlap
     ethr =  4.12E-08,  avg # of iterations =  1.0

     total cpu time spent up to now is      172.1 secs

     total energy              =    -301.18515217 Ry
     estimated scf accuracy    <       0.00004253 Ry

     iteration # 13     ecut=    40.00 Ry     beta= 0.05
     Davidson diagonalization with overlap
     ethr =  3.87E-08,  avg # of iterations =  1.0

     total cpu time spent up to now is      173.9 secs

     total energy              =    -301.18514559 Ry
     estimated scf accuracy    <       0.00003214 Ry

     iteration # 14     ecut=    40.00 Ry     beta= 0.05
     Davidson diagonalization with overlap
     ethr =  2.92E-08,  avg # of iterations =  2.0

     total cpu time spent up to now is      175.7 secs

     total energy              =    -301.18514854 Ry
     estimated scf accuracy    <       0.00001528 Ry

     iteration # 15     ecut=    40.00 Ry     beta= 0.05
     Davidson diagonalization with overlap
     ethr =  1.39E-08,  avg # of iterations =  1.0

     total cpu time spent up to now is      177.4 secs

     total energy              =    -301.18514769 Ry
     estimated scf accuracy    <       0.00001450 Ry

     iteration # 16     ecut=    40.00 Ry     beta= 0.05
     Davidson diagonalization with overlap
     ethr =  1.32E-08,  avg # of iterations =  1.0

     total cpu time spent up to now is      179.1 secs

     total energy              =    -301.18514435 Ry
     estimated scf accuracy    <       0.00001087 Ry

     iteration # 17     ecut=    40.00 Ry     beta= 0.05
     Davidson diagonalization with overlap
     ethr =  9.88E-09,  avg # of iterations =  2.0

     total cpu time spent up to now is      180.9 secs

     total energy              =    -301.18514639 Ry
     estimated scf accuracy    <       0.00000341 Ry

     iteration # 18     ecut=    40.00 Ry     beta= 0.05
     Davidson diagonalization with overlap
     ethr =  3.10E-09,  avg # of iterations =  1.0

     total cpu time spent up to now is      182.5 secs

     total energy              =    -301.18514688 Ry
     estimated scf accuracy    <       0.00000261 Ry

     iteration # 19     ecut=    40.00 Ry     beta= 0.05
     Davidson diagonalization with overlap
     ethr =  2.37E-09,  avg # of iterations =  1.0

     total cpu time spent up to now is      184.2 secs

     total energy              =    -301.18514713 Ry
     estimated scf accuracy    <       0.00000244 Ry

     iteration # 20     ecut=    40.00 Ry     beta= 0.05
     Davidson diagonalization with overlap
     ethr =  2.22E-09,  avg # of iterations =  1.0

     total cpu time spent up to now is      185.8 secs

     total energy              =    -301.18514709 Ry
     estimated scf accuracy    <       0.00000213 Ry

     iteration # 21     ecut=    40.00 Ry     beta= 0.05
     Davidson diagonalization with overlap
     ethr =  1.93E-09,  avg # of iterations =  1.0

     total cpu time spent up to now is      187.4 secs

     total energy              =    -301.18514706 Ry
     estimated scf accuracy    <       0.00000121 Ry

     iteration # 22     ecut=    40.00 Ry     beta= 0.05
     Davidson diagonalization with overlap
     ethr =  1.10E-09,  avg # of iterations =  2.0

     total cpu time spent up to now is      189.1 secs

     End of self-consistent calculation

          k = 0.0000 0.0000 0.0000 (  3715 PWs)   bands (ev):

   -12.0885 -10.6331 -10.2878  -6.4985  -6.4651  -6.3602  -5.9441  -5.8707
    -5.8580  -5.8459  -5.1640  -5.1406  -5.1198  -4.7812  -4.7620  -4.7554
    -4.4915  -4.4879  -4.4806  -4.2542  -4.2457  -4.2379  -1.3746   0.3116
     1.4221   1.6445   1.6638   1.6753   1.6782   1.7008   1.9958   2.1279
     2.3056   2.3206   2.3239   2.6407   2.6551   2.6687   3.3847   4.4100
     4.4672   4.5574   5.1216   5.2284   5.2597   5.6364   5.6434   6.1035
     6.1179   6.2704   6.2855   6.6876   7.2902   7.2976   7.6664   9.8711
    10.0115  10.0602  10.6640  10.7422  10.7639  11.3465  11.4686  11.5084
    13.6527  14.8630

     the Fermi energy is     8.8054 ev

!    total energy              =    -301.18514952 Ry
     estimated scf accuracy    <       0.00000030 Ry
     smearing contrib. (-TS)   =      -0.00000000 Ry
     internal energy E=F+TS    =    -301.18514952 Ry

     The total energy is F=E-TS. E is the sum of the following terms:
     one-electron contribution =     -38.71615741 Ry
     hartree contribution      =      82.25799676 Ry
     xc contribution           =    -110.56620521 Ry
     ewald contribution        =    -234.16078365 Ry

     convergence has been achieved in  22 iterations

     Forces acting on atoms (cartesian axes, Ry/au):

     atom    1 type  1   force =    -0.00070083    0.00456609    0.00474580
     atom    2 type  1   force =     0.00216207   -0.00286840   -0.00458836
     atom    3 type  1   force =     0.00263179    0.00016747   -0.00108556
     atom    4 type  1   force =    -0.00230688   -0.00004538    0.00727508
     atom    5 type  1   force =     0.00641520   -0.00310214   -0.00167715
     atom    6 type  1   force =     0.00323094   -0.00581414    0.00352353
     atom    7 type  1   force =    -0.00098291    0.00102955    0.00590580
     atom    8 type  1   force =    -0.00188428    0.00050128   -0.00726182
     atom    9 type  1   force =     0.00375594    0.00306713    0.01429739
     atom   10 type  1   force =     0.00219618   -0.01344369    0.00799929
     atom   11 type  1   force =    -0.00713187   -0.00067631    0.00008331
     atom   12 type  1   force =     0.00174879    0.00520700    0.00407120
     atom   13 type  1   force =     0.00425707   -0.00105156    0.00586549
     atom   14 type  1   force =    -0.00409699    0.00225902   -0.00912915
     atom   15 type  1   force =    -0.00946387    0.00390459   -0.00542467
     atom   16 type  1   force =     0.01135398    0.00410790    0.00803425
     atom   17 type  1   force =    -0.00354729    0.00652853   -0.00028469
     atom   18 type  1   force =    -0.00756063   -0.00522141    0.00270573
     atom   19 type  1   force =    -0.00359597    0.00158176    0.00459308
     atom   20 type  1   force =     0.00231493   -0.00211794   -0.00484422
     atom   21 type  1   force =     0.00519433   -0.00168141   -0.00109949
     atom   22 type  1   force =    -0.00883162    0.00319947    0.00996971
     atom   23 type  1   force =     0.00418747   -0.00086390   -0.00539671
     atom   24 type  1   force =     0.00373018    0.00009355   -0.00044059
     atom   25 type  2   force =    -0.02744672   -0.01518446    0.00103642
     atom   26 type  2   force =    -0.03806679   -0.02190764    0.00179873
     atom   27 type  2   force =     0.00194600    0.04441267    0.00059022
     atom   28 type  2   force =    -0.00226030   -0.00721126    0.00050777
     atom   29 type  2   force =     0.00646197    0.00478185    0.00102279
     atom   30 type  2   force =     0.00223515   -0.01048832    0.00202570
     atom   31 type  2   force =     0.05576805   -0.01882027    0.01047582
     atom   32 type  2   force =     0.07252535   -0.04353266    0.00806773
     atom   33 type  2   force =    -0.00252484    0.00498769   -0.00106279
     atom   34 type  2   force =     0.00290758    0.04602654    0.00223585
     atom   35 type  2   force =    -0.00477163    0.00477435    0.00090222
     atom   36 type  2   force =    -0.01238564   -0.00281491    0.00249875
     atom   37 type  2   force =    -0.02714489    0.00343665   -0.04843854
     atom   38 type  2   force =    -0.03031900    0.01221270   -0.01949792

     Total force =     0.154049     Total SCF correction =     0.001069


     Computing stress (Cartesian axis) and pressure

          total   stress  (Ry/bohr**3)                   (kbar)     P=       46.09
   0.00052312   0.00000463   0.00002226           76.95        0.68        3.27
   0.00000463   0.00037587   0.00000516            0.68       55.29        0.76
   0.00002226   0.00000516   0.00004100            3.27        0.76        6.03

     Energy error            =      3.0E-01 Ry
     Gradient error          =      7.3E-02 Ry/Bohr
     Cell gradient error     =      7.7E+01 kbar

     number of scf cycles    =   4
     number of bfgs steps    =   3

     enthalpy           old  =    -300.8843626845 Ry
     enthalpy           new  =    -301.1851495151 Ry

     CASE: enthalpy          _new < enthalpy          _old

     new trust radius        =       0.1783124569 bohr
     new conv_thr            =       0.0000007253 Ry

     new unit-cell volume =   1413.56789 a.u.^3 (   209.46915 Ang^3 )
     density =      2.39703 g/cm^3

CELL_PARAMETERS (alat=  8.00000437)
   1.170879546  -0.000113496   0.002724010
  -0.585538734   1.009733373  -0.001114970
   0.005353397   0.000454653   2.335359904

ATOMIC_POSITIONS (crystal)
C               -0.0001002547       -0.0001085871        0.1815955984    0   0   1
C                0.0001454792        0.0001579765        0.4049007000    0   0   1
C               -0.0004465123       -0.0004837701        0.8835056725    0   0   1
C                0.1666032345        0.3333299526        0.1776404821    0   0   1
C                0.3334845621        0.1667582184        0.4116114642    0   0   1
C                0.1665549166        0.3334221373        0.8816169316    0   0   1
C                0.5000753442        0.0000988120        0.1773394835    0   0   1
C                0.5001264418        0.0000294062        0.4155549849    0   0   1
C                0.4997940590       -0.0002278769        0.8807776121    0   0   1
C                0.6666643183        0.3333229230        0.1775473011    0   0   1
C                0.8334818551        0.1667211370        0.4112663277    0   0   1
C                0.6664980040        0.3332683685        0.8851672008    0   0   1
C                0.0000091447        0.4999174697        0.1805363596    0   0   1
C                0.0001818619        0.5000549714        0.4069544456    0   0   1
C                0.0000391115        0.5001845010        0.8852613584    0   0   1
C                0.1666286062        0.8332027661        0.1774917592    0   0   1
C                0.3336028126        0.6667677370        0.4116741266    0   0   1
C                0.1666129417        0.8332276340        0.8854140697    0   0   1
C                0.4999238224        0.4999342956        0.1818638138    0   0   1
C                0.5002749456        0.5002278972        0.4046396560    0   0   1
C                0.4998667102        0.5001164538        0.8835571127    0   0   1
C                0.6666695910        0.8334630381        0.1772243852    0   0   1
C                0.8334793660        0.6667187242        0.4079153205    0   0   1
C                0.6662921756        0.8330013663        0.8844088807    0   0   1
H                0.8051983942        1.3263933568        0.6453950637
H                0.8072700653        1.1560389744        0.6709438671
H                0.4261042320        0.7031228202        0.6614040536
H                0.6519733246        0.7081502178        0.6399355298
H                0.8004118985        0.5394431982        0.6489295866
H                0.5615802728        0.4464993707        0.6436213677
H                0.2116107615        0.0349767021        0.6551725005
H                0.3920635479        0.2053077369        0.6683155598
H                0.0479334617        0.7109553453        0.6449142819
H                0.2584937510        0.7186688351        0.6619700647
H                0.9442194270        0.8550445403        0.6429594057
H                0.7774864253        0.9512326874        0.6406092543
H                0.1701864632        0.3354303594        0.5979871515
H                0.1728867955        0.3557955339        0.6760320542



     Writing config-only to output data dir ../results/7h2_abs/7H2abs_C.save/ :
     XML data file
     NEW-OLD atomic charge density approx. for the potential

     Check: negative core charge=   -0.000006

     total cpu time spent up to now is      193.2 secs

     Self-consistent Calculation

     iteration #  1     ecut=    40.00 Ry     beta= 0.05
     Davidson diagonalization with overlap
     c_bands:  1 eigenvalues not converged
     ethr =  1.00E-06,  avg # of iterations = 20.0

     total cpu time spent up to now is      201.3 secs

     total energy              =    -301.22729276 Ry
     estimated scf accuracy    <       0.00450679 Ry

     iteration #  2     ecut=    40.00 Ry     beta= 0.05
     Davidson diagonalization with overlap
     ethr =  4.10E-06,  avg # of iterations =  1.0

     total cpu time spent up to now is      203.2 secs

     total energy              =    -301.22570399 Ry
     estimated scf accuracy    <       0.00419130 Ry

     iteration #  3     ecut=    40.00 Ry     beta= 0.05
     Davidson diagonalization with overlap
     ethr =  3.81E-06,  avg # of iterations =  2.0

     total cpu time spent up to now is      205.0 secs

     total energy              =    -301.22598526 Ry
     estimated scf accuracy    <       0.00031763 Ry

     iteration #  4     ecut=    40.00 Ry     beta= 0.05
     Davidson diagonalization with overlap
     ethr =  2.89E-07,  avg # of iterations =  3.0

     total cpu time spent up to now is      207.0 secs

     total energy              =    -301.22601623 Ry
     estimated scf accuracy    <       0.00023481 Ry

     iteration #  5     ecut=    40.00 Ry     beta= 0.05
     Davidson diagonalization with overlap
     ethr =  2.13E-07,  avg # of iterations =  1.0

     total cpu time spent up to now is      208.7 secs

     total energy              =    -301.22597076 Ry
     estimated scf accuracy    <       0.00019276 Ry

     iteration #  6     ecut=    40.00 Ry     beta= 0.05
     Davidson diagonalization with overlap
     ethr =  1.75E-07,  avg # of iterations =  2.0

     total cpu time spent up to now is      210.5 secs

     total energy              =    -301.22598322 Ry
     estimated scf accuracy    <       0.00008754 Ry

     iteration #  7     ecut=    40.00 Ry     beta= 0.05
     Davidson diagonalization with overlap
     ethr =  7.96E-08,  avg # of iterations =  2.0

     total cpu time spent up to now is      212.2 secs

     total energy              =    -301.22597630 Ry
     estimated scf accuracy    <       0.00007395 Ry

     iteration #  8     ecut=    40.00 Ry     beta= 0.05
     Davidson diagonalization with overlap
     ethr =  6.72E-08,  avg # of iterations =  1.0

     total cpu time spent up to now is      213.9 secs

     total energy              =    -301.22596708 Ry
     estimated scf accuracy    <       0.00004595 Ry

     iteration #  9     ecut=    40.00 Ry     beta= 0.05
     Davidson diagonalization with overlap
     ethr =  4.18E-08,  avg # of iterations =  2.0

     total cpu time spent up to now is      215.7 secs

     total energy              =    -301.22597063 Ry
     estimated scf accuracy    <       0.00001387 Ry

     iteration # 10     ecut=    40.00 Ry     beta= 0.05
     Davidson diagonalization with overlap
     ethr =  1.26E-08,  avg # of iterations =  1.0

     total cpu time spent up to now is      217.3 secs

     total energy              =    -301.22596752 Ry
     estimated scf accuracy    <       0.00001168 Ry

     iteration # 11     ecut=    40.00 Ry     beta= 0.05
     Davidson diagonalization with overlap
     ethr =  1.06E-08,  avg # of iterations =  2.0

     total cpu time spent up to now is      219.3 secs

     total energy              =    -301.22596833 Ry
     estimated scf accuracy    <       0.00000307 Ry

     iteration # 12     ecut=    40.00 Ry     beta= 0.05
     Davidson diagonalization with overlap
     ethr =  2.79E-09,  avg # of iterations =  2.0

     total cpu time spent up to now is      221.1 secs

     total energy              =    -301.22596909 Ry
     estimated scf accuracy    <       0.00000210 Ry

     iteration # 13     ecut=    40.00 Ry     beta= 0.05
     Davidson diagonalization with overlap
     ethr =  1.91E-09,  avg # of iterations =  1.0

     total cpu time spent up to now is      222.8 secs

     total energy              =    -301.22596896 Ry
     estimated scf accuracy    <       0.00000202 Ry

     iteration # 14     ecut=    40.00 Ry     beta= 0.05
     Davidson diagonalization with overlap
     ethr =  1.83E-09,  avg # of iterations =  2.0

     total cpu time spent up to now is      224.6 secs

     total energy              =    -301.22596910 Ry
     estimated scf accuracy    <       0.00000143 Ry

     iteration # 15     ecut=    40.00 Ry     beta= 0.05
     Davidson diagonalization with overlap
     ethr =  1.30E-09,  avg # of iterations =  1.0

     total cpu time spent up to now is      226.4 secs

     total energy              =    -301.22596895 Ry
     estimated scf accuracy    <       0.00000107 Ry

     iteration # 16     ecut=    40.00 Ry     beta= 0.05
     Davidson diagonalization with overlap
     ethr =  9.72E-10,  avg # of iterations =  1.0

     total cpu time spent up to now is      228.0 secs

     total energy              =    -301.22596876 Ry
     estimated scf accuracy    <       0.00000080 Ry

     iteration # 17     ecut=    40.00 Ry     beta= 0.05
     Davidson diagonalization with overlap
     ethr =  7.24E-10,  avg # of iterations =  2.0

     total cpu time spent up to now is      229.9 secs

     End of self-consistent calculation

          k = 0.0000 0.0000 0.0000 (  3715 PWs)   bands (ev):

   -12.1766 -10.7156 -10.3828  -6.6855  -6.6505  -6.5299  -6.0853  -6.0377
    -6.0034  -5.7879  -5.3472  -5.3407  -5.2769  -4.9505  -4.9256  -4.9022
    -4.6283  -4.6217  -4.6126  -4.3815  -4.3722  -4.3634  -1.4716   0.5037
     1.1799   1.4152   1.4674   1.4922   1.4990   1.6722   2.0178   2.0674
     2.1247   2.1342   2.2568   2.4069   2.4703   2.4839   3.2389   4.2047
     4.2728   4.2934   4.7443   4.9635   5.0008   5.3525   5.3722   5.8424
     5.8557   6.0497   6.0924   6.3269   7.0308   7.0777   7.2856   9.6026
     9.7630   9.8023  10.4074  10.4682  10.4783  11.0652  11.1632  11.2011
    13.4561  14.3419

     the Fermi energy is     8.3926 ev

!    total energy              =    -301.22596954 Ry
     estimated scf accuracy    <       0.00000019 Ry
     smearing contrib. (-TS)   =      -0.00000000 Ry
     internal energy E=F+TS    =    -301.22596954 Ry

     The total energy is F=E-TS. E is the sum of the following terms:
     one-electron contribution =     -41.91010217 Ry
     hartree contribution      =      82.86290175 Ry
     xc contribution           =    -110.09955847 Ry
     ewald contribution        =    -232.07921065 Ry

     convergence has been achieved in  17 iterations

     Forces acting on atoms (cartesian axes, Ry/au):

     atom    1 type  1   force =    -0.00086595    0.00172359    0.00756379
     atom    2 type  1   force =     0.00284709   -0.00007162   -0.00386635
     atom    3 type  1   force =     0.00147095   -0.00546080   -0.00106382
     atom    4 type  1   force =    -0.00072214    0.00370467    0.00229359
     atom    5 type  1   force =     0.00694451   -0.00797366   -0.00095516
     atom    6 type  1   force =     0.00157278    0.00095990    0.00103974
     atom    7 type  1   force =    -0.00000829   -0.00365070    0.00981325
     atom    8 type  1   force =    -0.00221737    0.00454748   -0.01196418
     atom    9 type  1   force =     0.00119470   -0.00087173    0.01234919
     atom   10 type  1   force =     0.00270198   -0.00895996    0.00333606
     atom   11 type  1   force =    -0.00839073   -0.00532388    0.00058497
     atom   12 type  1   force =     0.00103311    0.00757280    0.00371902
     atom   13 type  1   force =     0.00470393   -0.00565620    0.00904777
     atom   14 type  1   force =    -0.00441102    0.00659043   -0.00783268
     atom   15 type  1   force =    -0.00768916   -0.00205353   -0.00377135
     atom   16 type  1   force =     0.01164901    0.00828527    0.00349940
     atom   17 type  1   force =    -0.00390470    0.00373085   -0.00047433
     atom   18 type  1   force =    -0.00558230    0.00133128    0.00342412
     atom   19 type  1   force =    -0.00486451   -0.00347579    0.00765844
     atom   20 type  1   force =     0.00413591    0.00257157   -0.00442607
     atom   21 type  1   force =     0.00415251   -0.00591529   -0.00032155
     atom   22 type  1   force =    -0.00880653    0.00794377    0.00443565
     atom   23 type  1   force =     0.00289071   -0.00477284   -0.00116737
     atom   24 type  1   force =     0.00341837    0.00513269    0.00053574
     atom   25 type  2   force =    -0.02442207   -0.00933539    0.00102197
     atom   26 type  2   force =    -0.03234817   -0.01820759    0.00103127
     atom   27 type  2   force =     0.00072120    0.03334341   -0.00011601
     atom   28 type  2   force =    -0.00095642   -0.01197722    0.00083979
     atom   29 type  2   force =     0.00500854    0.00165559   -0.00065947
     atom   30 type  2   force =    -0.00347542   -0.00702409    0.00217180
     atom   31 type  2   force =     0.03341891   -0.01268651    0.00544085
     atom   32 type  2   force =     0.05076873   -0.02303134    0.00256922
     atom   33 type  2   force =    -0.00444050    0.00224623   -0.00087770
     atom   34 type  2   force =     0.00280093    0.03571069    0.00096167
     atom   35 type  2   force =    -0.00305017    0.01131611    0.00105935
     atom   36 type  2   force =    -0.00195016   -0.00432060    0.00200065
     atom   37 type  2   force =    -0.01004652   -0.00273799   -0.02448094
     atom   38 type  2   force =    -0.01328174    0.00514037   -0.02442032

     Total force =     0.107693     Total SCF correction =     0.000820


     Computing stress (Cartesian axis) and pressure

          total   stress  (Ry/bohr**3)                   (kbar)     P=      -39.50
  -0.00051040   0.00000052   0.00000129          -75.08        0.08        0.19
   0.00000052  -0.00019535   0.00000787            0.08      -28.74        1.16
   0.00000129   0.00000787  -0.00009989            0.19        1.16      -14.69

     Energy error            =      4.1E-02 Ry
     Gradient error          =      5.1E-02 Ry/Bohr
     Cell gradient error     =      7.5E+01 kbar

     number of scf cycles    =   5
     number of bfgs steps    =   4

     enthalpy           old  =    -301.1851495151 Ry
     enthalpy           new  =    -301.2259695400 Ry

     CASE: enthalpy          _new < enthalpy          _old

     new trust radius        =       0.2481764844 bohr
     new conv_thr            =       0.0000005077 Ry

     new unit-cell volume =   1425.67031 a.u.^3 (   211.26254 Ang^3 )
     density =      2.37668 g/cm^3

CELL_PARAMETERS (alat=  8.00000437)
   1.167147752  -0.000007825   0.003599833
  -0.583581142   1.019406693  -0.001102046
   0.007171118   0.001458873   2.340351391

ATOMIC_POSITIONS (crystal)
C               -0.0000949950       -0.0001080645        0.1826913434    0   0   1
C                0.0001424485        0.0001578448        0.4043441867    0   0   1
[...]
     atom   30 type  2   force =    -0.00055112    0.00125444   -0.00052281
     atom   31 type  2   force =    -0.00046815   -0.00153714   -0.00032996
     atom   32 type  2   force =     0.00080528   -0.00099342    0.00044247
     atom   33 type  2   force =     0.00039185    0.00041704   -0.00174189
     atom   34 type  2   force =    -0.00360523    0.00140843   -0.00068488
     atom   35 type  2   force =    -0.00415077   -0.00050049   -0.00021113
     atom   36 type  2   force =     0.00082002   -0.00151312    0.00044007
     atom   37 type  2   force =    -0.00140311   -0.00041547    0.00031173
     atom   38 type  2   force =     0.00423119    0.00048198    0.00038797

     Total force =     0.010187     Total SCF correction =     0.000252


     Computing stress (Cartesian axis) and pressure

          total   stress  (Ry/bohr**3)                   (kbar)     P=       -2.46
  -0.00002531   0.00000644  -0.00000437           -3.72        0.95       -0.64
   0.00000644  -0.00002114   0.00000501            0.95       -3.11        0.74
  -0.00000437   0.00000501  -0.00000368           -0.64        0.74       -0.54

     Energy error            =      4.6E-04 Ry
     Gradient error          =      4.2E-03 Ry/Bohr
     Cell gradient error     =      3.7E+00 kbar

     number of scf cycles    =  49
     number of bfgs steps    =  48

     enthalpy           old  =    -301.3946178496 Ry
     enthalpy           new  =    -301.3950774796 Ry

     CASE: enthalpy          _new < enthalpy          _old

     new trust radius        =       0.0440182595 bohr
     new conv_thr            =       0.0000000423 Ry

     new unit-cell volume =   1400.41385 a.u.^3 (   207.51992 Ang^3 )
     density =      2.41954 g/cm^3

CELL_PARAMETERS (alat=  8.00000437)
   1.161715760  -0.000083951   0.000610387
  -0.580890348   1.005949076  -0.000686743
   0.002969715  -0.000702558   2.340605974

ATOMIC_POSITIONS (crystal)
C               -0.0001035881       -0.0001035160        0.1850528615    0   0   1
C                0.0001601546        0.0001457664        0.4024021911    0   0   1
C               -0.0004187464       -0.0005135398        0.8870388517    0   0   1
C                0.1665923182        0.3333450931        0.1803188107    0   0   1
C                0.3334738904        0.1667362441        0.4076292603    0   0   1
C                0.1665406456        0.3333902075        0.8881712922    0   0   1
C                0.5001005390        0.0001524212        0.1839988884    0   0   1
C                0.5001157322       -0.0000489741        0.4037726763    0   0   1
C                0.4998953695       -0.0002448837        0.8880104478    0   0   1
C                0.6667084792        0.3333135651        0.1802713325    0   0   1
C                0.8334393167        0.1667118642        0.4075514179    0   0   1
C                0.6665655837        0.3332543133        0.8892688783    0   0   1
C                0.0000203478        0.4999153007        0.1839532134    0   0   1
C                0.0001949149        0.5000599844        0.4041408003    0   0   1
C                0.0000805219        0.5001865769        0.8883226581    0   0   1
C                0.1666576431        0.8332053593        0.1802206550    0   0   1
C                0.3335426486        0.6667747372        0.4078722165    0   0   1
C                0.1666769468        0.8332110396        0.8886406866    0   0   1
C                0.4999458092        0.4999141105        0.1849832706    0   0   1
C                0.5002718327        0.5002445010        0.4028521382    0   0   1
C                0.4999201457        0.5000769795        0.8878874236    0   0   1
C                0.6666828863        0.8334686278        0.1801740210    0   0   1
C                0.8335464750        0.6666863122        0.4079625179    0   0   1
C                0.6663782440        0.8329614825        0.8879786195    0   0   1
H                0.8427013698        1.3333199288        0.6500919673
H                0.6085854594        1.1240783659        0.6481275637
H                0.5630679500        0.8837110048        0.6447840317
H                0.6594056020        0.5901961323        0.6489132030
H                0.8620867586        0.5548440910        0.6511843468
H                0.4361737965        0.3992773129        0.6489752186
H                0.1857796290       -0.0453923196        0.6455604762
H                0.4157048232        0.1666156350        0.6525382847
H                0.1159179020        0.7103558302        0.6470669100
H                0.3265839556        0.6933355542        0.6541877953
H                1.0069789780        1.0170788097        0.6432757301
H                0.7608209283        0.8515946155        0.6409377402
H                0.0095814884        0.2370779224        0.6447632611
H                0.2321332339        0.4360830095        0.6447232546



     Writing config-only to output data dir ../results/7h2_abs/7H2abs_C.save/ :
     XML data file
     NEW-OLD atomic charge density approx. for the potential

     Check: negative core charge=   -0.000006

     total cpu time spent up to now is     1807.6 secs

     Self-consistent Calculation

     iteration #  1     ecut=    40.00 Ry     beta= 0.05
     Davidson diagonalization with overlap
     ethr =  1.00E-06,  avg # of iterations =  3.0

     Threshold (ethr) on eigenvalues was too large:
     Diagonalizing with lowered threshold

     Davidson diagonalization with overlap
     ethr =  9.18E-08,  avg # of iterations =  2.0

     total cpu time spent up to now is     1811.7 secs

     total energy              =    -301.39531979 Ry
     estimated scf accuracy    <       0.00011143 Ry

     iteration #  2     ecut=    40.00 Ry     beta= 0.05
     Davidson diagonalization with overlap
     ethr =  1.01E-07,  avg # of iterations =  1.0

     total cpu time spent up to now is     1813.3 secs

     total energy              =    -301.39528748 Ry
     estimated scf accuracy    <       0.00010624 Ry

     iteration #  3     ecut=    40.00 Ry     beta= 0.05
     Davidson diagonalization with overlap
     ethr =  9.66E-08,  avg # of iterations =  2.0

     total cpu time spent up to now is     1815.3 secs

     total energy              =    -301.39529270 Ry
     estimated scf accuracy    <       0.00000153 Ry

     iteration #  4     ecut=    40.00 Ry     beta= 0.05
     Davidson diagonalization with overlap
     ethr =  1.39E-09,  avg # of iterations =  5.0

     total cpu time spent up to now is     1817.8 secs

     total energy              =    -301.39529385 Ry
     estimated scf accuracy    <       0.00000076 Ry

     iteration #  5     ecut=    40.00 Ry     beta= 0.05
     Davidson diagonalization with overlap
     ethr =  6.93E-10,  avg # of iterations =  1.0

     total cpu time spent up to now is     1819.5 secs

     total energy              =    -301.39529405 Ry
     estimated scf accuracy    <       0.00000076 Ry

     iteration #  6     ecut=    40.00 Ry     beta= 0.05
     Davidson diagonalization with overlap
     ethr =  6.89E-10,  avg # of iterations =  1.0

     total cpu time spent up to now is     1821.2 secs

     total energy              =    -301.39529392 Ry
     estimated scf accuracy    <       0.00000052 Ry

     iteration #  7     ecut=    40.00 Ry     beta= 0.05
     Davidson diagonalization with overlap
     ethr =  4.77E-10,  avg # of iterations =  2.0

     total cpu time spent up to now is     1823.0 secs

     total energy              =    -301.39529403 Ry
     estimated scf accuracy    <       0.00000021 Ry

     iteration #  8     ecut=    40.00 Ry     beta= 0.05
     Davidson diagonalization with overlap
     ethr =  1.89E-10,  avg # of iterations =  1.0

     total cpu time spent up to now is     1824.8 secs

     total energy              =    -301.39529391 Ry
     estimated scf accuracy    <       0.00000019 Ry

     iteration #  9     ecut=    40.00 Ry     beta= 0.05
     Davidson diagonalization with overlap
     ethr =  1.71E-10,  avg # of iterations =  2.0

     total cpu time spent up to now is     1826.6 secs

     total energy              =    -301.39529395 Ry
     estimated scf accuracy    <       0.00000008 Ry

     iteration # 10     ecut=    40.00 Ry     beta= 0.05
     Davidson diagonalization with overlap
     ethr =  7.62E-11,  avg # of iterations =  1.0

     total cpu time spent up to now is     1828.3 secs

     total energy              =    -301.39529394 Ry
     estimated scf accuracy    <       0.00000007 Ry

     iteration # 11     ecut=    40.00 Ry     beta= 0.05
     Davidson diagonalization with overlap
     ethr =  6.72E-11,  avg # of iterations =  1.0

     total cpu time spent up to now is     1829.9 secs

     End of self-consistent calculation

          k = 0.0000 0.0000 0.0000 (  3715 PWs)   bands (ev):

   -12.3720 -10.5925 -10.2897  -6.7428  -6.7243  -6.7120  -6.1177  -6.1134
    -6.1067  -5.6682  -5.1384  -5.1253  -5.1147  -4.8445  -4.8355  -4.8300
    -4.5477  -4.5454  -4.5380  -4.2192  -4.2127  -4.2059  -1.5298   1.4550
     1.4604   1.4643   1.5463   1.8310   1.9001   1.9599   2.1477   2.1611
     2.1889   2.1960   2.2056   2.2292   2.6620   2.6702   2.6823   3.5578
     4.2782   4.3039   4.3186   5.0767   5.0882   5.4642   5.4695   6.1158
     6.1185   6.1620   6.1736   6.1784   7.1969   7.2073   7.2091   9.9882
    10.0093  10.0326  10.6549  10.6580  10.6705  11.3732  11.3818  11.3866
    13.8939  14.5943

     the Fermi energy is     8.5330 ev

!    total energy              =    -301.39529401 Ry
     estimated scf accuracy    <       0.00000002 Ry
     smearing contrib. (-TS)   =      -0.00000000 Ry
     internal energy E=F+TS    =    -301.39529401 Ry

     The total energy is F=E-TS. E is the sum of the following terms:
     one-electron contribution =     -56.57423656 Ry
     hartree contribution      =      90.63167842 Ry
     xc contribution           =    -110.37582239 Ry
     ewald contribution        =    -225.07691348 Ry

     convergence has been achieved in  11 iterations

     Forces acting on atoms (cartesian axes, Ry/au):

     atom    1 type  1   force =    -0.00032089    0.00044414   -0.00107508
     atom    2 type  1   force =     0.00180884   -0.00107708    0.00102485
     atom    3 type  1   force =     0.00071623    0.00439792    0.00064099
     atom    4 type  1   force =     0.00006060    0.00043843   -0.00055330
     atom    5 type  1   force =     0.00143367   -0.00002598    0.00107117
     atom    6 type  1   force =    -0.00109879   -0.00232701    0.00058670
     atom    7 type  1   force =     0.00027496   -0.00241741    0.00000091
     atom    8 type  1   force =    -0.00182123    0.00207915    0.00049623
     atom    9 type  1   force =    -0.00177062    0.00233474    0.00046052
     atom   10 type  1   force =     0.00149076    0.00005701   -0.00015219
     atom   11 type  1   force =    -0.00191532    0.00174261    0.00068352
     atom   12 type  1   force =    -0.00007899    0.00057499    0.00043328
     atom   13 type  1   force =     0.00047640    0.00042682   -0.00031632
     atom   14 type  1   force =    -0.00131303    0.00000728    0.00003879
     atom   15 type  1   force =    -0.00013006   -0.00368446    0.00021619
     atom   16 type  1   force =     0.00194722   -0.00034117   -0.00058203
     atom   17 type  1   force =    -0.00219367    0.00032338    0.00082621
     atom   18 type  1   force =    -0.00056746    0.00151774   -0.00009230
     atom   19 type  1   force =    -0.00110639    0.00216075   -0.00130304
     atom   20 type  1   force =     0.00137037   -0.00262613    0.00147295
     atom   21 type  1   force =     0.00124397   -0.00328381    0.00045208
     atom   22 type  1   force =    -0.00096335   -0.00128434   -0.00027533
     atom   23 type  1   force =     0.00133953   -0.00013509   -0.00081402
     atom   24 type  1   force =     0.00073675    0.00180581    0.00050648
     atom   25 type  2   force =     0.00168826   -0.00329066   -0.00195964
     atom   26 type  2   force =     0.00018507   -0.00098958    0.00002098
     atom   27 type  2   force =    -0.00291273    0.00224847   -0.00000490
     atom   28 type  2   force =     0.00144141    0.00267386    0.00022071
     atom   29 type  2   force =     0.00034353    0.00047194   -0.00044643
     atom   30 type  2   force =    -0.00086660    0.00004557   -0.00056906
     atom   31 type  2   force =    -0.00189444    0.00128420   -0.00007296
     atom   32 type  2   force =     0.00123355   -0.00126912    0.00029467
     atom   33 type  2   force =     0.00142536   -0.00069300   -0.00154232
     atom   34 type  2   force =    -0.00307635    0.00145843   -0.00068110
     atom   35 type  2   force =    -0.00247906   -0.00132952   -0.00032708
     atom   36 type  2   force =     0.00182128   -0.00232092    0.00060492
     atom   37 type  2   force =    -0.00026656    0.00043698   -0.00004545
     atom   38 type  2   force =     0.00373778    0.00016504    0.00076038

     Total force =     0.010588     Total SCF correction =     0.000556


     Computing stress (Cartesian axis) and pressure

          total   stress  (Ry/bohr**3)                   (kbar)     P=       -1.80
  -0.00002047   0.00000486  -0.00000309           -3.01        0.71       -0.45
   0.00000486  -0.00001624   0.00000361            0.71       -2.39        0.53
  -0.00000309   0.00000361  -0.00000004           -0.45        0.53       -0.01

     Energy error            =      2.2E-04 Ry
     Gradient error          =      3.7E-03 Ry/Bohr
     Cell gradient error     =      3.0E+00 kbar

     number of scf cycles    =  50
     number of bfgs steps    =  49

     enthalpy           old  =    -301.3950774796 Ry
     enthalpy           new  =    -301.3952940125 Ry

     CASE: enthalpy          _new < enthalpy          _old

     new trust radius        =       0.0302307196 bohr

     The maximum number of steps has been reached.

     End of BFGS Geometry Optimization
     new unit-cell volume =   1399.71972 a.u.^3 (   207.41706 Ang^3 )
     density =      2.42074 g/cm^3

CELL_PARAMETERS (alat=  8.00000437)
   1.161521389  -0.000036679   0.000141795
  -0.580751248   1.005879533   0.000013501
   0.002069222   0.000351886   2.339942550

ATOMIC_POSITIONS (crystal)
C               -0.0001046752       -0.0001040866        0.1850645531    0   0   1
C                0.0001607497        0.0001458675        0.4024210590    0   0   1
C               -0.0004173669       -0.0005155658        0.8871702540    0   0   1
C                0.1665906467        0.3333448950        0.1802898505    0   0   1
C                0.3334748912        0.1667361689        0.4077082500    0   0   1
C                0.1665431081        0.3333880454        0.8882080155    0   0   1
C                0.5000991479        0.0001536353        0.1841261657    0   0   1
C                0.5001180650       -0.0000501121        0.4036855742    0   0   1
C                0.4998944384       -0.0002449626        0.8881978270    0   0   1
C                0.6667082143        0.3333134601        0.1803469760    0   0   1
C                0.8334398776        0.1667120399        0.4075530023    0   0   1
C                0.6665657129        0.3332541680        0.8893587865    0   0   1
C                0.0000190949        0.4999143849        0.1841280493    0   0   1
C                0.0001957492        0.5000613198        0.4039092417    0   0   1
C                0.0000813736        0.5001865187        0.8883020731    0   0   1
C                0.1666567644        0.8332053227        0.1802423568    0   0   1
C                0.3335434473        0.6667752863        0.4078362083    0   0   1
C                0.1666769960        0.8332106044        0.8886968190    0   0   1
C                0.4999453593        0.4999131562        0.1849846547    0   0   1
C                0.5002725049        0.5002451795        0.4029074710    0   0   1
C                0.4999220162        0.5000750638        0.8879954297    0   0   1
C                0.6666823323        0.8334684423        0.1802100669    0   0   1
C                0.8335472888        0.6666860781        0.4078616144    0   0   1
C                0.6663793005        0.8329595305        0.8881958566    0   0   1
H                0.8428460473        1.3325377205        0.6496266175
H                0.6060696418        1.1241784676        0.6480008786
H                0.5641309078        0.8866014484        0.6446990504
H                0.6618600713        0.5894747744        0.6492853695
H                0.8642522442        0.5549024527        0.6509787521
H                0.4371360711        0.3993015299        0.6490860050
H                0.1821071673       -0.0474071215        0.6452346671
H                0.4129443941        0.1648809004        0.6525520572
H                0.1185572716        0.7113557561        0.6465941830
H                0.3277269921        0.6918943009        0.6540065375
H                1.0052839437        1.0189776063        0.6432984019
H                0.7595197461        0.8491577447        0.6411123465
H                0.0087826691        0.2378839623        0.6448226151
H                0.2340700409        0.4365502113        0.6449075616



     Writing config-only to output data dir ../results/7h2_abs/7H2abs_C.save/ :
     XML data file
     NEW-OLD atomic charge density approx. for the potential

     Check: negative core charge=   -0.000006

     Writing all to output data dir ../results/7h2_abs/7H2abs_C.save/ :
     XML data file, charge density, pseudopotentials, collected wavefunctions

     init_run     :      2.02s CPU      1.78s WALL (       1 calls)
     electrons    :   1948.19s CPU   1606.88s WALL (      50 calls)
     update_pot   :      8.24s CPU      6.05s WALL (      50 calls)
     forces       :     74.94s CPU     64.96s WALL (      50 calls)
     stress       :    204.24s CPU    136.05s WALL (      50 calls)

     Called by init_run:
     wfcinit      :      0.95s CPU      0.76s WALL (       1 calls)
     potinit      :      0.14s CPU      0.12s WALL (       1 calls)
     hinit0       :      0.60s CPU      0.57s WALL (       1 calls)

     Called by electrons:
     c_bands      :   1145.03s CPU    931.76s WALL (     783 calls)
     sum_band     :    451.37s CPU    398.78s WALL (     783 calls)
     v_of_rho     :     31.96s CPU     17.93s WALL (     825 calls)
     newd         :    230.67s CPU    211.03s WALL (     825 calls)
     mix_rho      :     89.61s CPU     52.96s WALL (     783 calls)

     Called by c_bands:
     init_us_2    :     11.02s CPU      8.01s WALL (    1567 calls)
     cegterg      :   1121.30s CPU    918.07s WALL (     783 calls)

     Called by *egterg:
     cdiaghg      :     24.51s CPU     24.65s WALL (    2563 calls)
     h_psi        :    726.21s CPU    531.39s WALL (    2622 calls)
     s_psi        :    124.18s CPU    119.80s WALL (    2622 calls)
     g_psi        :      3.25s CPU      2.06s WALL (    1838 calls)

     Called by h_psi:
     h_psi:calbec :    122.35s CPU    117.32s WALL (    2622 calls)
     vloc_psi     :    483.59s CPU    294.39s WALL (    2622 calls)
     add_vuspsi   :    117.51s CPU    118.14s WALL (    2622 calls)

     General routines
     calbec       :    205.36s CPU    199.66s WALL (    3655 calls)
     fft          :     70.20s CPU     42.39s WALL (    5309 calls)
     ffts         :     33.73s CPU     20.76s WALL (   15496 calls)
     fftw         :    402.66s CPU    251.10s WALL (  295360 calls)
     interpolate  :     13.98s CPU      8.57s WALL (     825 calls)

     Parallel routines

     PWSCF        :  37m37.48s CPU  30m34.31s WALL


   This run was terminated on:  19: 9:55   7Aug2024            

=------------------------------------------------------------------------------=
   JOB DONE.
=------------------------------------------------------------------------------=
