
     Program PWSCF v.7.2 starts on  2Sep2024 at 19:28:38 

     This program is part of the open-source Quantum ESPRESSO suite
     for quantum simulation of materials; please cite
         "P. Giannozzi et al., J. Phys.:Condens. Matter 21 395502 (2009);
         "P. Giannozzi et al., J. Phys.:Condens. Matter 29 465901 (2017);
         "P. Giannozzi et al., J. Chem. Phys. 152 154105 (2020);
          URL http://www.quantum-espresso.org", 
     in publications or presentations arising from this work. More details at
     http://www.quantum-espresso.org/quote

     Parallel version (MPI & OpenMP), running on      96 processor cores
     Number of MPI processes:                96
     Threads/MPI process:                     1

     MPI processes distributed on     2 nodes
     366335 MiB available memory on the printing compute node when the environment starts
 
     Reading input from hydrogen_absorption2.in
     Message from routine read_cards :
     DEPRECATED: no units specified in CELL_PARAMETERS card

     Current dimensions of program PWSCF are:
     Max number of different atomic species (ntypx) = 10
     Max number of k-points (npk) =  40000
     Max angular momentum in pseudopotentials (lmaxx) =  4

     IMPORTANT: XC functional enforced from input :
     Exchange-correlation= LDA
                           (   1   1   0   0   0   0   0)
     Any further DFT definition will be discarded
     Please, verify this is what you really want

 
     K-points division:     npool     =       3
     R & G space division:  proc/nbgrp/npool/nimage =      32
     Subspace diagonalization in iterative solution of the eigenvalue problem:
     a serial algorithm will be used

 
     Parallelization info
     --------------------
     sticks:   dense  smooth     PW     G-vecs:    dense   smooth      PW
     Min          72      29      8                 5773     1455     234
     Max          73      31      9                 5781     1465     241
     Sum        2335     931    283               184931    46765    7583
 
     Using Slab Decomposition
 

     Title: 
     2H2_absorption_C                                                           


     bravais-lattice index     =            0
     lattice parameter (alat)  =       8.0000  a.u.
     unit-cell volume          =    1367.9607 (a.u.)^3
     number of atoms/cell      =           28
     number of atomic types    =            2
     number of electrons       =       100.00
     number of Kohn-Sham states=           60
     kinetic-energy cutoff     =      40.0000  Ry
     charge density cutoff     =     400.0000  Ry
     scf convergence threshold =      1.0E-06
     mixing beta               =       0.0500
     number of iterations used =            8  local-TF  mixing
     energy convergence thresh.=      1.0E-04
     force convergence thresh. =      1.0E-03
     press convergence thresh. =      5.0E-01
     Exchange-correlation= LDA
                           (   1   1   0   0   0   0   0)
     nstep                     =           50


     celldm(1)=   8.000004  celldm(2)=   0.000000  celldm(3)=   0.000000
     celldm(4)=   0.000000  celldm(5)=   0.000000  celldm(6)=   0.000000

     crystal axes: (cart. coord. in units of alat)
               a(1) = (   1.147665   0.000203  -0.001136 )  
               a(2) = (  -0.573657   0.993643   0.000961 )  
               a(3) = (  -0.003587   0.001193   2.342685 )  

     reciprocal axes: (cart. coord. in units 2 pi/alat)
               b(1) = (  0.871246  0.502993  0.001078 )  
               b(2) = ( -0.000178  1.006296 -0.000513 )  
               b(3) = (  0.000423 -0.000169  0.426861 )  


     PseudoPot. # 1 for C  read from file:
     ../../potentials/C.pz-n-rrkjus_psl.0.1.UPF
     MD5 check sum: a3cecbabebb5b3a1aff122f23eb09bb0
     Pseudo is Ultrasoft + core correction, Zval =  4.0
     Generated using "atomic" code by A. Dal Corso  v.5.0.2 svn rev. 9415
     Using radial grid of 1073 points,  4 beta functions with: 
                l(1) =   0
                l(2) =   0
                l(3) =   1
                l(4) =   1
     Q(r) pseudized with 0 coefficients 


     PseudoPot. # 2 for H  read from file:
     ../../potentials/H.pz-rrkjus_psl.0.1.UPF
     MD5 check sum: 1467ebfaa2880178e80d097b970df8c7
     Pseudo is Ultrasoft, Zval =  1.0
     Generated using "atomic" code by A. Dal Corso  v.5.0.2 svn rev. 9415
     Using radial grid of  929 points,  2 beta functions with: 
                l(1) =   0
                l(2) =   0
     Q(r) pseudized with 0 coefficients 


     atomic species   valence    mass     pseudopotential
        C              4.00    12.01100     C ( 1.00)
        H              1.00     1.00784     H ( 1.00)

     No symmetry found



   Cartesian axes

     site n.     atom                  positions (alat units)
         1           C   tau(   1) = (  -0.0009762   0.0002706   0.3997150  )
         2           C   tau(   2) = (   0.0028624  -0.0005938   1.0769265  )
         3           C   tau(   3) = (  -0.0046158   0.0010774   2.0201586  )
         4           C   tau(   4) = (  -0.0008035   0.3315263   0.3987580  )
         5           C   tau(   5) = (   0.2893763   0.1648126   1.0816881  )
         6           C   tau(   6) = (  -0.0044153   0.3321980   2.0124734  )
         7           C   tau(   7) = (   0.5729588   0.0003708   0.3991284  )
         8           C   tau(   8) = (   0.5760954  -0.0008668   1.0782649  )
         9           C   tau(   9) = (   0.5693353   0.0010207   2.0182948  )
        10           C   tau(  10) = (   0.5729834   0.3316231   0.3982415  )
        11           C   tau(  11) = (   0.8634311   0.1650456   1.0784116  )
        12           C   tau(  12) = (   0.5691175   0.3323676   2.0113707  )
        13           C   tau(  13) = (  -0.2877366   0.4971280   0.3994508  )
        14           C   tau(  14) = (  -0.2843735   0.4959971   1.0815709  )
        15           C   tau(  15) = (  -0.2914836   0.4978923   2.0081531  )
        16           C   tau(  16) = (  -0.2876517   0.8283819   0.3992339  )
        17           C   tau(  17) = (   0.0021523   0.6613766   1.0785038  )
        18           C   tau(  18) = (  -0.2914517   0.8292976   2.0126418  )
        19           C   tau(  19) = (   0.2860778   0.4972873   0.3996265  )
        20           C   tau(  20) = (   0.2892333   0.4959593   1.0781300  )
        21           C   tau(  21) = (   0.2823098   0.4980781   2.0195537  )
        22           C   tau(  22) = (   0.2861873   0.8284576   0.3996010  )
        23           C   tau(  23) = (   0.5766165   0.6618375   1.0783655  )
        24           C   tau(  24) = (   0.2824414   0.8292679   2.0304037  )
        25           H   tau(  25) = (   0.3417824   0.7481922   1.5287918  )
        26           H   tau(  26) = (   0.2496402   0.9033229   1.5288374  )
        27           H   tau(  27) = (  -0.0883588   0.6765299   1.5699514  )
        28           H   tau(  28) = (   0.0906320   0.6248988   1.5931806  )

     number of k points=    36  Gaussian smearing, width (Ry)=  0.0100
                       cart. coord. in units 2pi/alat
        k(    1) = (   0.0726947   0.1257318   0.1067625), wk =   0.0555556
        k(    2) = (   0.0724834   0.1258163  -0.1066682), wk =   0.0555556
        k(    3) = (   0.0726649   0.2934477   0.1066770), wk =   0.0555556
        k(    4) = (   0.0724537   0.2935322  -0.1067537), wk =   0.0555556
        k(    5) = (   0.0726352   0.4611637   0.1065916), wk =   0.0555556
        k(    6) = (   0.0724239   0.4612481  -0.1068391), wk =   0.0555556
        k(    7) = (   0.0727838  -0.3774160   0.1070188), wk =   0.0555556
        k(    8) = (   0.0725725  -0.3773315  -0.1064119), wk =   0.0555556
        k(    9) = (   0.0727541  -0.2097000   0.1069333), wk =   0.0555556
        k(   10) = (   0.0725428  -0.2096156  -0.1064973), wk =   0.0555556
        k(   11) = (   0.0727244  -0.0419841   0.1068479), wk =   0.0555556
        k(   12) = (   0.0725131  -0.0418997  -0.1065828), wk =   0.0555556
        k(   13) = (   0.2179024   0.2095640   0.1069421), wk =   0.0555556
        k(   14) = (   0.2176911   0.2096484  -0.1064885), wk =   0.0555556
        k(   15) = (   0.2178727   0.3772799   0.1068567), wk =   0.0555556
        k(   16) = (   0.2176614   0.3773644  -0.1065740), wk =   0.0555556
        k(   17) = (   0.2178430   0.5449958   0.1067713), wk =   0.0555556
        k(   18) = (   0.2176317   0.5450803  -0.1066594), wk =   0.0555556
        k(   19) = (   0.2179915  -0.2935838   0.1071984), wk =   0.0555556
        k(   20) = (   0.2177802  -0.2934993  -0.1062322), wk =   0.0555556
        k(   21) = (   0.2179618  -0.1258679   0.1071130), wk =   0.0555556
        k(   22) = (   0.2177505  -0.1257834  -0.1063177), wk =   0.0555556
        k(   23) = (   0.2179321   0.0418481   0.1070276), wk =   0.0555556
        k(   24) = (   0.2177208   0.0419325  -0.1064031), wk =   0.0555556
        k(   25) = (   0.3631101   0.2933961   0.1071218), wk =   0.0555556
        k(   26) = (   0.3628988   0.2934806  -0.1063089), wk =   0.0555556
        k(   27) = (   0.3630804   0.4611121   0.1070364), wk =   0.0555556
        k(   28) = (   0.3628691   0.4611965  -0.1063943), wk =   0.0555556
        k(   29) = (   0.3630507   0.6288280   0.1069509), wk =   0.0555556
        k(   30) = (   0.3628394   0.6289125  -0.1064797), wk =   0.0555556
        k(   31) = (   0.3631992  -0.2097516   0.1073781), wk =   0.0555556
        k(   32) = (   0.3629879  -0.2096672  -0.1060526), wk =   0.0555556
        k(   33) = (   0.3631695  -0.0420357   0.1072927), wk =   0.0555556
        k(   34) = (   0.3629582  -0.0419513  -0.1061380), wk =   0.0555556
        k(   35) = (   0.3631398   0.1256802   0.1072073), wk =   0.0555556
        k(   36) = (   0.3629285   0.1257647  -0.1062234), wk =   0.0555556

     Dense  grid:   184931 G-vectors     FFT dimensions: (  60,  60, 120)

     Smooth grid:    46765 G-vectors     FFT dimensions: (  40,  40,  75)

     Estimated max dynamical RAM per process >      11.48 MB

     Estimated total dynamical RAM >    1011.63 MB

     Check: negative core charge=   -0.000002

     Initial potential from superposition of free atoms

     starting charge      99.9991, renormalised to     100.0000
     Starting wfcs are  100 randomized atomic wfcs

     total cpu time spent up to now is        0.8 secs

     Self-consistent Calculation

     iteration #  1     ecut=    40.00 Ry     beta= 0.05
     Davidson diagonalization with overlap
     ethr =  1.00E-02,  avg # of iterations =  3.7

     total cpu time spent up to now is        1.7 secs

     total energy              =    -292.37348729 Ry
     estimated scf accuracy    <       1.85041308 Ry

     iteration #  2     ecut=    40.00 Ry     beta= 0.05
     Davidson diagonalization with overlap
     ethr =  1.85E-03,  avg # of iterations =  3.2

     total cpu time spent up to now is        2.5 secs

     total energy              =    -293.34500729 Ry
     estimated scf accuracy    <       2.27698739 Ry

     iteration #  3     ecut=    40.00 Ry     beta= 0.05
     Davidson diagonalization with overlap
     ethr =  1.85E-03,  avg # of iterations =  1.0

     total cpu time spent up to now is        2.9 secs

     total energy              =    -291.31538010 Ry
     estimated scf accuracy    <       3.69188159 Ry

     iteration #  4     ecut=    40.00 Ry     beta= 0.05
     Davidson diagonalization with overlap
     ethr =  1.85E-03,  avg # of iterations =  2.7

     total cpu time spent up to now is        3.6 secs

     total energy              =    -291.52636389 Ry
     estimated scf accuracy    <       0.27300698 Ry

     iteration #  5     ecut=    40.00 Ry     beta= 0.05
     Davidson diagonalization with overlap
     ethr =  2.73E-04,  avg # of iterations =  5.7

     total cpu time spent up to now is        4.6 secs

     total energy              =    -291.45470910 Ry
     estimated scf accuracy    <       0.20838720 Ry

     iteration #  6     ecut=    40.00 Ry     beta= 0.05
     Davidson diagonalization with overlap
     ethr =  2.08E-04,  avg # of iterations =  4.1

     total cpu time spent up to now is        5.5 secs

     total energy              =    -291.53407781 Ry
     estimated scf accuracy    <       0.01400504 Ry

     iteration #  7     ecut=    40.00 Ry     beta= 0.05
     Davidson diagonalization with overlap
     ethr =  1.40E-05,  avg # of iterations = 13.0

     total cpu time spent up to now is        7.3 secs

     total energy              =    -291.56204089 Ry
     estimated scf accuracy    <       0.05830203 Ry

     iteration #  8     ecut=    40.00 Ry     beta= 0.05
     Davidson diagonalization with overlap
     ethr =  1.40E-05,  avg # of iterations =  1.3

     total cpu time spent up to now is        8.0 secs

     total energy              =    -291.51880406 Ry
     estimated scf accuracy    <       0.07250078 Ry

     iteration #  9     ecut=    40.00 Ry     beta= 0.05
     Davidson diagonalization with overlap
     ethr =  1.40E-05,  avg # of iterations =  5.3

     total cpu time spent up to now is        9.1 secs

     total energy              =    -291.52648606 Ry
     estimated scf accuracy    <       0.00142427 Ry

     iteration # 10     ecut=    40.00 Ry     beta= 0.05
     Davidson diagonalization with overlap
     ethr =  1.42E-06,  avg # of iterations =  9.6

     total cpu time spent up to now is       10.7 secs

     total energy              =    -291.52746169 Ry
     estimated scf accuracy    <       0.00025826 Ry

     iteration # 11     ecut=    40.00 Ry     beta= 0.05
     Davidson diagonalization with overlap
     ethr =  2.58E-07,  avg # of iterations =  3.8

     total cpu time spent up to now is       11.5 secs

     total energy              =    -291.52754013 Ry
     estimated scf accuracy    <       0.00017543 Ry

     iteration # 12     ecut=    40.00 Ry     beta= 0.05
     Davidson diagonalization with overlap
     ethr =  1.75E-07,  avg # of iterations =  3.6

     total cpu time spent up to now is       12.5 secs

     total energy              =    -291.52766763 Ry
     estimated scf accuracy    <       0.00018331 Ry

     iteration # 13     ecut=    40.00 Ry     beta= 0.05
     Davidson diagonalization with overlap
     ethr =  1.75E-07,  avg # of iterations =  2.0

     total cpu time spent up to now is       13.0 secs

     total energy              =    -291.52759880 Ry
     estimated scf accuracy    <       0.00033932 Ry

     iteration # 14     ecut=    40.00 Ry     beta= 0.05
     Davidson diagonalization with overlap
     ethr =  1.75E-07,  avg # of iterations =  1.0

     total cpu time spent up to now is       13.6 secs

     total energy              =    -291.52746414 Ry
     estimated scf accuracy    <       0.00021579 Ry

     iteration # 15     ecut=    40.00 Ry     beta= 0.05
     Davidson diagonalization with overlap
     ethr =  1.75E-07,  avg # of iterations =  2.9

     total cpu time spent up to now is       14.3 secs

     total energy              =    -291.52750420 Ry
     estimated scf accuracy    <       0.00001439 Ry

     iteration # 16     ecut=    40.00 Ry     beta= 0.05
     Davidson diagonalization with overlap
     ethr =  1.44E-08,  avg # of iterations =  4.0

     total cpu time spent up to now is       15.1 secs

     total energy              =    -291.52751002 Ry
     estimated scf accuracy    <       0.00001286 Ry

     iteration # 17     ecut=    40.00 Ry     beta= 0.05
     Davidson diagonalization with overlap
     ethr =  1.29E-08,  avg # of iterations =  1.0

     total cpu time spent up to now is       15.5 secs

     total energy              =    -291.52752393 Ry
     estimated scf accuracy    <       0.00001585 Ry

     iteration # 18     ecut=    40.00 Ry     beta= 0.05
     Davidson diagonalization with overlap
     ethr =  1.29E-08,  avg # of iterations =  3.1

     total cpu time spent up to now is       16.3 secs

     total energy              =    -291.52749801 Ry
     estimated scf accuracy    <       0.00005700 Ry

     iteration # 19     ecut=    40.00 Ry     beta= 0.05
     Davidson diagonalization with overlap
     ethr =  1.29E-08,  avg # of iterations =  5.0

     total cpu time spent up to now is       17.5 secs

     total energy              =    -291.52750631 Ry
     estimated scf accuracy    <       0.00000454 Ry

     iteration # 20     ecut=    40.00 Ry     beta= 0.05
     Davidson diagonalization with overlap
     ethr =  4.54E-09,  avg # of iterations =  1.2

     total cpu time spent up to now is       17.9 secs

     total energy              =    -291.52750623 Ry
     estimated scf accuracy    <       0.00000318 Ry

     iteration # 21     ecut=    40.00 Ry     beta= 0.05
     Davidson diagonalization with overlap
     ethr =  3.18E-09,  avg # of iterations =  2.0

     total cpu time spent up to now is       18.5 secs

     total energy              =    -291.52750575 Ry
     estimated scf accuracy    <       0.00000334 Ry

     iteration # 22     ecut=    40.00 Ry     beta= 0.05
     Davidson diagonalization with overlap
     ethr =  3.18E-09,  avg # of iterations =  1.0

     total cpu time spent up to now is       18.9 secs

     total energy              =    -291.52750579 Ry
     estimated scf accuracy    <       0.00000152 Ry

     iteration # 23     ecut=    40.00 Ry     beta= 0.05
     Davidson diagonalization with overlap
     ethr =  1.52E-09,  avg # of iterations =  2.0

     total cpu time spent up to now is       19.5 secs

     total energy              =    -291.52750609 Ry
     estimated scf accuracy    <       0.00000102 Ry

     iteration # 24     ecut=    40.00 Ry     beta= 0.05
     Davidson diagonalization with overlap
     ethr =  1.02E-09,  avg # of iterations =  2.2

     total cpu time spent up to now is       20.1 secs

     End of self-consistent calculation

          k = 0.0727 0.1257 0.1068 (  5839 PWs)   bands (ev):

   -12.2271 -11.9850 -11.6749  -7.7916  -7.7597  -7.6136  -7.5611  -7.3572
    -7.3403  -6.6316  -6.5199  -6.3487  -5.8206  -5.7443  -5.5885  -4.8586
    -4.8240  -4.7059  -4.6647  -4.5096  -4.4900  -2.6555  -1.0362   0.4893
     0.5493   0.5771   0.6495   0.9878   0.9965   1.0524   1.0606   1.1293
     1.1355   1.7015   3.2948   3.6588   4.0685   4.1032   4.1254   4.1775
     4.3078   4.3327   4.3874   4.4992   4.5505   4.8721   5.2078   5.4766
     5.8638   6.4271   8.5214   9.1142   9.1628   9.4233   9.8237   9.8940
     9.9985  10.7146  11.0080  13.0846

          k = 0.0725 0.1258-0.1067 (  5842 PWs)   bands (ev):

   -12.2269 -11.9855 -11.6746  -7.7932  -7.7598  -7.6105  -7.5610  -7.3588
    -7.3403  -6.6316  -6.5200  -6.3485  -5.8200  -5.7453  -5.5881  -4.8519
    -4.8238  -4.7192  -4.6641  -4.5034  -4.4900  -2.6598  -1.0120   0.4693
     0.5123   0.5674   0.6503   0.9878   0.9966   1.0526   1.0607   1.1292
     1.1355   1.7711   3.3672   3.6625   3.8620   4.0972   4.1201   4.1779
     4.2715   4.3095   4.3809   4.4627   4.5871   5.0196   5.4232   5.4688
     5.8051   6.3111   8.5153   9.0826   9.1597   9.2579   9.7906   9.9315
    10.3868  10.7245  10.8216  13.0758

          k = 0.0727 0.2934 0.1067 (  5844 PWs)   bands (ev):

   -11.8031 -11.5658 -11.2629  -9.2999  -9.0943  -8.8298  -8.3302  -8.1353
    -7.8887  -6.9364  -6.7660  -6.5434  -4.9289  -4.7935  -4.6007  -3.6296
    -3.4898  -3.3227  -2.7531  -2.6046  -2.4649  -2.2946  -0.8037  -0.7203
    -0.5961  -0.5838   0.1717   0.2482   0.3475   0.8400   1.4052   1.4665
     1.5419   1.6038   2.2791   2.6910   2.7314   2.8185   3.0059   3.3187
     3.5098   3.5379   3.6119   3.8125   4.2282   4.6070   4.8949   5.3077
     6.0903   6.6189   8.7178   9.2433  10.0271  10.1450  10.6352  11.2165
    11.5222  11.8157  12.4511  12.7901

          k = 0.0725 0.2935-0.1068 (  5844 PWs)   bands (ev):

   -11.8026 -11.5669 -11.2622  -9.3010  -9.0922  -8.8309  -8.3309  -8.1341
    -7.8894  -6.9381  -6.7621  -6.5456  -4.9329  -4.7862  -4.6040  -3.6285
    -3.4924  -3.3207  -2.7331  -2.6457  -2.4300  -2.3150  -0.8047  -0.7093
    -0.6020  -0.5422   0.1710   0.2488   0.3473   0.7097   1.4053   1.4671
     1.5418   1.7105   2.2960   2.6896   2.7407   2.8193   2.9882   3.3521
     3.5118   3.5457   3.6135   3.6643   4.2413   4.5935   5.0244   5.3627
     6.0118   6.5776   8.6745   9.3170   9.9730  10.0431  10.8535  11.2207
    11.4617  11.8390  12.4072  12.7884

          k = 0.0726 0.4612 0.1066 (  5857 PWs)   bands (ev):

   -11.0458 -10.8193 -10.5524 -10.5128 -10.3152 -10.0349  -8.5734  -8.3747
    -8.1248  -7.1592  -6.9799  -6.7532  -3.6705  -3.5748  -3.4157  -2.4264
    -2.3427  -2.3075  -2.1981  -2.1214  -1.9444  -1.9225  -0.9017  -0.8444
    -0.7328  -0.4544  -0.3582  -0.2332   0.1222   0.6456   0.6834   0.7581
     0.8526   1.2958   2.0017   2.1163   2.1668   2.2446   2.4290   2.5572
     2.6111   2.6791   2.8812   3.3665   3.7154   4.4906   4.8193   5.3457
     6.1581   6.7633   8.9575   9.5176  10.2035  10.7077  11.0750  11.8669
    12.0318  13.7532  13.9339  14.2665

          k = 0.0724 0.4612-0.1068 (  5847 PWs)   bands (ev):

   -11.0450 -10.8214 -10.5506 -10.5135 -10.3143 -10.0357  -8.5736  -8.3745
    -8.1249  -7.1595  -6.9792  -6.7536  -3.6762  -3.5636  -3.4216  -2.4282
    -2.3443  -2.3103  -2.2007  -2.0637  -2.0334  -1.8826  -0.9093  -0.8334
    -0.7374  -0.4572  -0.3577  -0.2319   0.1654   0.6290   0.6642   0.7553
     0.8574   1.2409   2.0253   2.1159   2.1679   2.2436   2.4658   2.5610
     2.6137   2.6816   2.9131   3.3494   3.6395   4.5314   4.8557   5.3502
     6.0809   6.7943   8.9840   9.4613  10.2436  10.6454  11.2048  11.7138
    12.1183  13.7429  13.9361  14.3217

          k = 0.0728-0.3774 0.1070 (  5853 PWs)   bands (ev):

   -11.4646 -11.2335 -10.9336  -9.9593  -9.7425  -9.4712  -8.4919  -8.2935
    -8.0457  -7.0848  -6.9057  -6.6822  -4.2715  -4.1331  -3.9633  -2.9941
    -2.8647  -2.7090  -2.3096  -1.5847  -1.5162  -1.4582  -1.4085  -1.3286
    -1.2973  -0.4234  -0.3363  -0.2356  -0.1899   0.8218   1.5031   1.7218
     1.7277   1.7845   1.7951   1.8607   1.8809   2.0325   2.5074   3.0308
     3.0677   3.1306   3.1457   3.4318   4.0522   4.5282   4.8100   5.3129
     6.2256   6.5506   8.8476   9.6625  10.1495  10.3908  10.9369  11.6142
    11.9464  12.4627  13.0990  13.8002

          k = 0.0726-0.3773-0.1064 (  5851 PWs)   bands (ev):

   -11.4652 -11.2320 -10.9345  -9.9583  -9.7443  -9.4702  -8.4916  -8.2943
    -8.0452  -7.0841  -6.9070  -6.6815  -4.2707  -4.1346  -3.9627  -2.9879
    -2.8767  -2.7020  -2.3104  -1.5776  -1.5150  -1.4639  -1.4124  -1.3248
    -1.2954  -0.4218  -0.3501  -0.2302  -0.2216   0.9075   1.5303   1.7156
     1.7257   1.7520   1.7883   1.8600   1.8850   1.9632   2.5028   3.0305
     3.0540   3.1384   3.1746   3.4919   3.9747   4.5071   4.9468   5.3615
     5.8617   6.7888   9.0230   9.3805  10.2561  10.3981  10.9115  11.6464
    11.9251  12.4903  13.0396  13.8210

          k = 0.0728-0.2097 0.1069 (  5839 PWs)   bands (ev):

   -12.0569 -11.8177 -11.5093  -8.5707  -8.3718  -8.1269  -8.0829  -7.8939
    -7.6547  -6.7447  -6.5827  -6.3809  -5.5151  -5.3825  -5.2012  -4.2615
    -4.1150  -3.9336  -3.8001  -3.6754  -3.4832  -2.5398  -0.8320  -0.0931
    -0.0118   0.0883   0.6330   0.6762   0.7368   0.8189   1.1569   1.2199
     1.2958   1.8128   2.7333   3.2187   3.4963   3.5224   3.6011   3.6927
     3.9519   3.9704   4.0407   4.2056   4.6219   4.7762   5.0035   5.3583
     5.9634   6.3125   8.6188   9.4980   9.6019  10.0435  10.1325  10.2501
    10.7444  11.0964  11.6258  12.2599

          k = 0.0725-0.2096-0.1065 (  5839 PWs)   bands (ev):

   -12.0572 -11.8169 -11.5098  -8.5696  -8.3741  -8.1242  -8.0832  -7.8962
    -7.6535  -6.7426  -6.5871  -6.3783  -5.5145  -5.3834  -5.2012  -4.2581
    -4.1216  -3.9303  -3.8073  -3.6612  -3.4909  -2.5358  -0.8506  -0.0926
    -0.0124   0.0887   0.6569   0.6970   0.7357   0.8187   1.1567   1.2205
     1.2955   1.7695   2.7487   3.1715   3.5083   3.5529   3.6125   3.7309
     3.9519   3.9765   4.0406   4.1352   4.5867   4.8052   5.2260   5.2968
     5.6302   6.5076   8.7462   9.3617   9.5526  10.0201  10.1067  10.3545
    10.7536  11.0950  11.6215  12.2729

          k = 0.0727-0.0420 0.1068 (  5846 PWs)   bands (ev):

   -12.3120 -12.0693 -11.7573  -7.3930  -7.2132  -6.9938  -6.9617  -6.9515
    -6.8027  -6.7963  -6.5911  -6.5856  -5.7436  -5.7280  -5.6215  -5.5959
    -5.4168  -5.4099  -5.3381  -5.1869  -4.9994  -2.7273  -1.1183   0.4682
     0.9028   0.9113   0.9676   0.9763   1.0449   1.0507   1.0776   1.1413
     1.2098   1.7989   3.3896   3.9995   4.2867   4.4094   4.4280   4.4850
     4.4951   4.5085   4.5598   4.6267   4.7833   4.9745   5.2904   5.6173
     5.8038   6.3367   8.5888   8.7091   8.8815   9.2420   9.4733   9.5985
    10.1031  10.3007  10.6005  12.8684

          k = 0.0725-0.0419-0.1066 (  5849 PWs)   bands (ev):

   -12.3121 -12.0691 -11.7574  -7.3906  -7.2185  -6.9915  -6.9636  -6.9522
    -6.7984  -6.7916  -6.5935  -6.5893  -5.7483  -5.7324  -5.6111  -5.5895
    -5.4203  -5.4130  -5.3361  -5.1921  -4.9967  -2.7276  -1.1158   0.4568
     0.9026   0.9114   0.9677   0.9762   1.0447   1.0509   1.0776   1.1413
     1.2098   1.8151   3.4111   4.0344   4.2548   4.3412   4.4149   4.4543
     4.4914   4.5018   4.5435   4.5817   4.7697   5.0352   5.5287   5.6261
     5.7753   6.2269   8.5681   8.6552   8.8175   9.2950   9.4478   9.7865
    10.0817  10.3334  10.5109  12.9069

          k = 0.2179 0.2096 0.1069 (  5845 PWs)   bands (ev):

   -11.8031 -11.5660 -11.2629  -9.3014  -9.0947  -8.8314  -8.3287  -8.1340
    -7.8867  -6.9372  -6.7606  -6.5445  -4.9340  -4.7863  -4.6062  -3.6359
    -3.4927  -3.3271  -2.7216  -2.5837  -2.4461  -2.3258  -0.8041  -0.7203
    -0.5956  -0.5883   0.1634   0.2434   0.3420   0.8016   1.4117   1.4702
     1.4914   1.5475   2.2747   2.6881   2.7284   2.8197   2.9932   3.3226
     3.5152   3.5465   3.6177   4.0485   4.2037   4.5411   5.1295   5.2915
     5.9296   6.4639   8.6899   9.3325   9.9873  10.0356  10.6707  11.2937
    11.4357  11.8369  12.7296  13.2222

          k = 0.2177 0.2096-0.1065 (  5845 PWs)   bands (ev):

   -11.8028 -11.5667 -11.2624  -9.3018  -9.0937  -8.8320  -8.3293  -8.1326
    -7.8875  -6.9349  -6.7657  -6.5416  -4.9291  -4.7954  -4.6021  -3.6275
    -3.5086  -3.3190  -2.7170  -2.5974  -2.4276  -2.3423  -0.8047  -0.7093
    -0.6023  -0.5362   0.1621   0.2435   0.3408   0.6438   1.4118   1.4717
     1.5475   1.6218   2.2561   2.6861   2.7313   2.8139   3.0019   3.3476
     3.5154   3.5557   3.6184   4.0642   4.1464   4.6026   5.0659   5.2114
     6.0946   6.3740   8.7185   9.2802   9.9830  10.0871  10.6244  11.2133
    11.4551  12.0011  12.6917  13.1874

          k = 0.2179 0.3773 0.1069 (  5838 PWs)   bands (ev):

   -11.2131 -10.9831 -10.6897  -9.7306  -9.6948  -9.5283  -9.4690  -9.2401
    -9.2194  -5.7816  -5.6777  -5.5183  -5.0063  -4.9421  -4.7998  -2.4698
    -2.4223  -2.2180  -2.0859  -1.5059  -1.4903  -1.4090  -1.3804  -1.2631
    -1.2561  -0.0288   0.7764   0.7862   0.8384   0.8507   0.9392   0.9455
     0.9671   1.3851   1.4127   1.5054   1.5726   1.8983   2.0370   2.3713
     2.4085   2.4735   2.5629   3.2716   3.7881   4.2182   5.3866   5.9971
     6.4037   7.1419   8.0349   8.5682   9.1274  12.0499  12.2831  12.3849
    12.7733  12.9161  13.4420  13.5493

          k = 0.2177 0.3774-0.1066 (  5840 PWs)   bands (ev):

   -11.2125 -10.9847 -10.6887  -9.7316  -9.6948  -9.5264  -9.4690  -9.2411
    -9.2194  -5.7809  -5.6791  -5.5174  -5.0051  -4.9443  -4.7991  -2.4989
    -2.3623  -2.2626  -2.0739  -1.5112  -1.4951  -1.4006  -1.3780  -1.2656
    -1.2571   0.0425   0.7518   0.7821   0.8196   0.8473   0.8728   0.9418
     0.9490   1.3805   1.4212   1.4990   1.5912   1.8424   2.1736   2.3753
     2.4013   2.4775   2.5397   3.3317   3.7884   4.1490   5.4173   5.8533
     6.6308   7.0381   7.9999   8.5715   9.1513  12.0502  12.2690  12.3745
    12.7915  12.9453  13.4752  13.5273

          k = 0.2178 0.5450 0.1068 (  5830 PWs)   bands (ev):

   -10.7937 -10.5738 -10.3043 -10.2677 -10.0705  -9.8100  -9.7779  -9.5772
    -9.3109  -5.6695  -5.5268  -5.3407  -4.6819  -4.5783  -4.4282  -3.1118
    -3.0279  -2.8854  -2.0672  -1.0034  -0.9279  -0.8131  -0.4507  -0.3644
    -0.2516   0.4027   0.4584   0.4748   0.5270   0.5546   0.5888   0.6815
     0.8605   1.2216   1.2722   1.3516   1.3694   1.6143   1.7581   1.8049
     1.8798   2.1072   2.4736   3.0131   3.4897   4.1960   5.4518   6.0748
     6.9493   7.4461   7.6508   8.3994   8.8972  11.6480  12.5847  13.0195
    13.4338  13.6663  13.9000  14.4304

          k = 0.2176 0.5451-0.1067 (  5829 PWs)   bands (ev):

   -10.7947 -10.5715 -10.3059 -10.2672 -10.0718  -9.8068  -9.7795  -9.5779
    -9.3106  -5.6692  -5.5274  -5.3403  -4.6776  -4.5856  -4.4252  -3.1120
    -3.0272  -2.8860  -2.0667  -1.0046  -0.9265  -0.8135  -0.4487  -0.3646
    -0.2521   0.4003   0.4214   0.4900   0.5324   0.5577   0.5826   0.6858
     0.9136   1.1969   1.2557   1.3223   1.3877   1.6341   1.7601   1.8043
     1.8845   2.0577   2.5240   3.0136   3.4942   4.1717   5.4293   6.2137
     6.7091   7.5193   7.8657   8.1773   8.9634  11.6449  12.5839  13.0440
    13.4474  13.6551  13.8488  14.4457

          k = 0.2180-0.2936 0.1072 (  5842 PWs)   bands (ev):

   -11.5488 -11.3163 -11.0156  -9.5480  -9.3394  -9.0793  -9.0475  -8.8483
    -8.5939  -6.3055  -6.1569  -5.9562  -5.0986  -4.9788  -4.8038  -2.6248
    -2.5278  -2.3161  -2.2496  -2.0735  -1.9666  -1.8253  -1.6181  -1.5151
    -1.3971  -0.2920   0.4263   0.5004   0.5989   0.9587   1.1652   1.2339
     1.3121   1.6722   2.0595   2.1005   2.1111   2.2186   2.3086   2.8487
     2.9932   3.0384   3.0958   3.5485   4.0986   4.4958   5.0813   5.6958
     5.9156   6.9478   8.4894   8.9644   9.6750  11.0701  11.4052  11.7658
    11.9465  12.3489  12.4604  13.1757

          k = 0.2178-0.2935-0.1062 (  5850 PWs)   bands (ev):

   -11.5494 -11.3151 -11.0162  -9.5478  -9.3396  -9.0807  -9.0457  -8.8493
    -8.5932  -6.3078  -6.1522  -5.9589  -5.1005  -4.9754  -4.8052  -2.6434
    -2.4850  -2.3591  -2.2245  -2.0860  -1.9548  -1.8289  -1.6211  -1.5106
    -1.3988  -0.3016   0.4242   0.5021   0.5963   0.9576   1.1679   1.2298
     1.3151   1.7140   1.9939   2.0979   2.1474   2.2290   2.3365   2.8333
     2.9919   3.0436   3.0959   3.4796   4.1172   4.5372   5.2152   5.2802
     6.4066   6.7246   8.3460   9.1790   9.6025  11.0284  11.5702  11.7247
    11.8004  12.4186  12.4945  13.1409

          k = 0.2180-0.1259 0.1071 (  5837 PWs)   bands (ev):

   -11.9721 -11.7338 -11.4270  -8.9740  -8.7705  -8.5132  -7.5433  -7.5420
    -7.3606  -7.3551  -7.1259  -7.1242  -4.6427  -4.6333  -4.5076  -4.4884
    -4.3077  -4.3042  -3.2924  -3.1516  -2.9840  -2.4701  -0.7561  -0.0138
    -0.0045   0.0659   0.0779   0.1690   0.1750   0.7379   1.4113   1.4719
     1.5412   1.6597   2.5861   3.1060   3.1841   3.2616   3.3114   3.6741
     3.8370   3.8716   3.9322   4.1245   4.4100   4.5705   4.8965   5.3730
     5.8342   6.5809   9.1096   9.3007   9.6669   9.7946  10.5362  10.6005
    10.7440  11.2746  12.0975  12.3271

          k = 0.2178-0.1258-0.1063 (  5840 PWs)   bands (ev):

   -11.9723 -11.7332 -11.4272  -8.9733  -8.7720  -8.5123  -7.5442  -7.5421
    -7.3593  -7.3541  -7.1270  -7.1244  -4.6464  -4.6366  -4.4990  -4.4840
    -4.3105  -4.3075  -3.2872  -3.1611  -2.9788  -2.4716  -0.7469  -0.0153
    -0.0037   0.0663   0.0775   0.1677   0.1756   0.6919   1.4114   1.4729
     1.5413   1.7162   2.6018   3.1480   3.1929   3.2371   3.3069   3.6267
     3.8379   3.8654   3.9311   4.0791   4.2602   4.6103   5.0021   5.6010
     5.7849   6.4400   9.0574   9.1042   9.7597  10.1247  10.5177  10.5713
    10.6392  11.2850  12.0775  12.3522

          k = 0.2179 0.0418 0.1070 (  5839 PWs)   bands (ev):

   -12.0572 -11.8173 -11.5097  -8.5709  -8.3755  -8.1260  -8.0831  -7.8932
    -7.6541  -6.7412  -6.5768  -6.3773  -5.5217  -5.3839  -5.2077  -4.2604
    -4.1126  -3.9332  -3.8030  -3.6589  -3.4877  -2.5215  -0.8568  -0.1010
    -0.0181   0.0824   0.6598   0.6812   0.7440   0.8189   1.1639   1.2261
     1.3017   1.5677   2.8723   3.3952   3.4771   3.5122   3.5962   3.6533
     3.9562   3.9729   4.0436   4.2842   4.4028   4.7469   5.1998   5.2643
     5.8889   6.5213   8.5931   9.2164   9.5440   9.9296  10.2332  10.2475
    10.7538  11.0888  11.7539  13.0281

          k = 0.2177 0.0419-0.1064 (  5840 PWs)   bands (ev):

   -12.0571 -11.8174 -11.5096  -8.5718  -8.3733  -8.1281  -8.0814  -7.8955
    -7.6527  -6.7392  -6.5819  -6.3737  -5.5118  -5.4014  -5.2004  -4.2566
    -4.1195  -3.9296  -3.8025  -3.6610  -3.4860  -2.5262  -0.8252  -0.1020
    -0.0175   0.0815   0.5753   0.6694   0.7377   0.8198   1.1640   1.2261
     1.3021   1.6756   2.8649   3.4047   3.4744   3.5209   3.5589   3.6176
     3.9524   3.9706   4.0423   4.2383   4.5023   4.7756   5.0863   5.3311
     5.9768   6.4289   8.5868   9.2149   9.5594   9.9451  10.0685  10.2156
    11.0478  11.1004  11.6474  13.0686

          k = 0.3631 0.2934 0.1071 (  5847 PWs)   bands (ev):

   -11.0458 -10.8189 -10.5529 -10.5141 -10.3156 -10.0361  -8.5717  -8.3745
    -8.1227  -7.1583  -6.9767  -6.7519  -3.6776  -3.5705  -3.4236  -2.4533
    -2.3484  -2.2380  -2.1697  -2.1182  -1.9431  -1.8913  -0.9174  -0.8362
    -0.7390  -0.4666  -0.3637  -0.2388   0.0389   0.6047   0.6556   0.7431
     0.8478   1.1946   1.8999   2.1216   2.1723   2.2488   2.5109   2.5632
     2.6108   2.6835   2.9224   3.3100   4.0472   4.5757   5.0508   5.4321
     5.7547   6.4231   8.9723   9.5480  10.2433  10.6593  11.2120  11.8347
    12.8886  13.7074  14.2023  14.4760

          k = 0.3629 0.2935-0.1063 (  5854 PWs)   bands (ev):

   -11.0451 -10.8210 -10.5494 -10.5158 -10.3159 -10.0363  -8.5726  -8.3726
    -8.1237  -7.1571  -6.9793  -6.7505  -3.6747  -3.5758  -3.4213  -2.4404
    -2.3722  -2.2295  -2.1838  -2.0714  -1.9975  -1.8697  -0.9099  -0.8479
    -0.7349  -0.4655  -0.3647  -0.2354   0.0934   0.5272   0.6630   0.7453
     0.8517   1.1511   1.9465   2.1221   2.1726   2.2492   2.5470   2.5716
     2.6116   2.6842   2.9143   3.2773   4.0398   4.6079   5.0591   5.3409
     5.8066   6.4274   8.9841   9.5284  10.2469  10.6857  11.1614  11.8694
    12.8693  13.7514  14.1625  14.5752

          k = 0.3631 0.4611 0.1070 (  5830 PWs)   bands (ev):

   -10.7944 -10.5728 -10.3034 -10.2702 -10.0720  -9.8101  -9.7765  -9.5771
    -9.3094  -5.6656  -5.5227  -5.3351  -4.6814  -4.5971  -4.4316  -3.1014
    -3.0124  -2.8888  -2.0291  -1.0054  -0.9364  -0.8166  -0.4594  -0.3714
    -0.2562   0.3229   0.4295   0.4665   0.5300   0.5631   0.5888   0.6848
     0.8253   1.2266   1.2704   1.3242   1.3801   1.6001   1.7628   1.8024
     1.8834   2.1940   2.5394   2.9699   3.5246   4.2145   5.5276   6.0477
     6.8345   7.4406   7.6936   8.2524   8.9412  12.0382  12.5747  13.0727
    13.4547  13.6579  13.9002  14.4739

          k = 0.3629 0.4612-0.1064 (  5829 PWs)   bands (ev):

   -10.7945 -10.5720 -10.3062 -10.2682 -10.0727  -9.8085  -9.7776  -9.5762
    -9.3101  -5.6663  -5.5204  -5.3370  -4.6901  -4.5831  -4.4365  -3.0858
    -3.0375  -2.8791  -2.0287  -1.0081  -0.9313  -0.8193  -0.4589  -0.3725
    -0.2566   0.2897   0.4164   0.4719   0.5283   0.5608   0.5907   0.6862
     0.9043   1.2278   1.2716   1.3518   1.3756   1.5563   1.7639   1.8138
     1.8846   2.1393   2.5278   2.9854   3.5451   4.2177   5.4973   6.1505
     6.6974   7.4610   7.7355   8.2887   8.9015  12.0319  12.6050  13.0269
    13.4414  13.6834  13.9293  14.4018

          k = 0.3631 0.6288 0.1070 (  5841 PWs)   bands (ev):

   -10.7310 -10.6891 -10.5184 -10.4504 -10.2103 -10.1860  -9.2211  -9.0122
    -8.7543  -6.4132  -6.2458  -6.0336  -4.0927  -4.0042  -3.8622  -2.8035
    -2.6992  -2.5940  -2.0695  -1.6328  -1.5564  -1.4487  -0.3332  -0.2769
    -0.1870   0.0967   0.0999   0.1727   0.1841   0.2814   0.3012   0.3806
     0.6967   1.3066   1.7394   1.9667   1.9774   2.0189   2.0388   2.1019
     2.1065   2.3654   2.7077   2.8831   3.7930   4.2188   5.1561   5.7748
     6.4168   7.2474   8.2769   8.7338   9.5171  11.4253  11.8301  12.1127
    12.8025  14.2074  14.2777  14.4955

          k = 0.3628 0.6289-0.1065 (  5841 PWs)   bands (ev):

   -10.7315 -10.6892 -10.5174 -10.4505 -10.2109 -10.1860  -9.2203  -9.0137
    -8.7535  -6.4139  -6.2444  -6.0342  -4.0902  -4.0077  -3.8612  -2.7818
    -2.7372  -2.5759  -2.0712  -1.6259  -1.5648  -1.4465  -0.3222  -0.2908
    -0.1830   0.0953   0.1001   0.1719   0.1833   0.2796   0.3019   0.3811
     0.6626   1.3292   1.8380   1.9641   1.9746   2.0184   2.0396   2.0988
     2.1053   2.3292   2.6744   2.8471   3.7821   4.2673   5.2053   5.6105
     6.6366   7.1368   8.2120   8.8440   9.4632  11.4863  11.7013  12.2313
    12.7491  14.2053  14.2758  14.5516

          k = 0.3632-0.2098 0.1074 (  5848 PWs)   bands (ev):

   -11.2961 -11.0669 -10.7702 -10.2899 -10.0706  -9.7931  -7.8580  -7.8572
    -7.6706  -7.6641  -7.4301  -7.4289  -3.3403  -3.3347  -3.2412  -3.2205
    -3.0645  -3.0628  -2.2477  -1.3007  -1.2829  -1.2162  -1.1879  -1.0937
    -1.0829  -1.0258  -0.9225  -0.7862  -0.0762   0.7472   1.2121   1.2554
     1.3693   1.4303   1.8635   2.0507   2.1070   2.1744   2.7203   2.9150
     2.9453   3.0258   3.1614   3.4505   3.9462   4.1954   4.8514   5.3999
     5.8159   6.7461   9.6663   9.7735  10.1791  10.2207  10.8923  10.9964
    11.8306  13.1372  13.6639  14.3725

          k = 0.3630-0.2097-0.1061 (  5857 PWs)   bands (ev):

   -11.2966 -11.0659 -10.7707 -10.2896 -10.0715  -9.7926  -7.8584  -7.8570
    -7.6703  -7.6639  -7.4305  -7.4288  -3.3494  -3.3383  -3.2211  -3.2161
    -3.0737  -3.0663  -2.2461  -1.3021  -1.2813  -1.2139  -1.1902  -1.0938
    -1.0824  -1.0293  -0.9212  -0.7864  -0.0586   0.6966   1.2137   1.2694
     1.3705   1.4016   1.9617   2.0505   2.1058   2.1742   2.7089   2.9117
     2.9403   3.0221   3.0998   3.4885   3.9280   4.1594   4.8872   5.4741
     5.7957   6.6989   9.6418   9.7049  10.1892  10.3565  10.8889  10.9700
    11.8266  13.1177  13.7082  14.3622

          k = 0.3632-0.0420 0.1073 (  5844 PWs)   bands (ev):

   -11.5492 -11.3159 -11.0161  -9.5480  -9.3387  -9.0811  -9.0457  -8.8495
    -8.5938  -6.3034  -6.1521  -5.9531  -5.0966  -4.9949  -4.8031  -2.5831
    -2.4544  -2.3463  -2.2677  -2.0752  -1.9701  -1.8276  -1.6377  -1.5258
    -1.4092  -0.3361   0.4349   0.5073   0.6044   0.8646   1.1673   1.2373
     1.3159   1.6951   1.9279   2.0950   2.1461   2.2272   2.4386   2.9772
     3.0012   3.0752   3.1098   3.4192   4.1335   4.3025   5.1179   5.5928
     6.2915   6.8943   8.3736   8.8701   9.5275  11.1342  11.6012  11.7727
    12.0868  12.4120  12.6226  13.1812

          k = 0.3630-0.0420-0.1061 (  5851 PWs)   bands (ev):

   -11.5493 -11.3157 -11.0162  -9.5473  -9.3405  -9.0796  -9.0465  -8.8485
    -8.5945  -6.3052  -6.1474  -5.9562  -5.1067  -4.9773  -4.8104  -2.5781
    -2.4692  -2.3182  -2.2837  -2.0881  -1.9598  -1.8306  -1.6303  -1.5369
    -1.4051  -0.2963   0.4347   0.5039   0.6048   0.7511   1.1689   1.2362
     1.3158   1.7607   1.9927   2.0955   2.1566   2.2278   2.4011   2.9792
     3.0130   3.0356   3.0941   3.4419   4.1021   4.3488   5.0707   5.6122
     6.3765   6.8047   8.3138   8.9440   9.5208  11.0847  11.6527  11.7982
    12.0933  12.4473  12.5987  13.1630

          k = 0.3631 0.1257 0.1072 (  5851 PWs)   bands (ev):

   -11.4652 -11.2325 -10.9346  -9.9594  -9.7447  -9.4712  -8.4912  -8.2921
    -8.0448  -7.0821  -6.9042  -6.6789  -4.2770  -4.1361  -3.9688  -2.9887
    -2.8613  -2.7067  -2.1968  -1.5920  -1.5319  -1.4770  -1.4196  -1.3333
    -1.3068  -0.4245  -0.3521  -0.2563  -0.2265   0.7328   1.5193   1.7060
     1.7342   1.7504   1.7942   1.8369   1.8668   1.8956   2.6104   3.0358
     3.0571   3.1431   3.1884   3.5871   4.1069   4.5516   5.0599   5.3754
     5.8148   6.4749   8.8429   9.5035  10.1369  10.3984  10.9973  11.7002
    12.4401  12.8405  13.1499  13.8309

          k = 0.3629 0.1258-0.1062 (  5851 PWs)   bands (ev):

   -11.4650 -11.2331 -10.9342  -9.9599  -9.7436  -9.4719  -8.4902  -8.2942
    -8.0436  -7.0825  -6.9034  -6.6793  -4.2697  -4.1495  -3.9625  -2.9837
    -2.8703  -2.7022  -2.2015  -1.5948  -1.5228  -1.4746  -1.4321  -1.3343
    -1.3024  -0.4246  -0.3369  -0.2425  -0.1884   0.6013   1.4716   1.7198
     1.7345   1.7854   1.7940   1.8663   1.8835   1.9159   2.6595   3.0350
     3.0595   3.1459   3.2362   3.5238   4.0494   4.6019   5.1202   5.1433
     6.0427   6.3838   8.9029   9.3953  10.1821  10.4306  10.9513  11.7224
    12.4340  12.8097  13.2397  13.8373

     the Fermi energy is     7.5884 ev

!    total energy              =    -291.52750594 Ry
     estimated scf accuracy    <       0.00000080 Ry
     smearing contrib. (-TS)   =      -0.00055162 Ry
     internal energy E=F+TS    =    -291.52695431 Ry

     The total energy is F=E-TS. E is the sum of the following terms:
     one-electron contribution =     -63.79971070 Ry
     hartree contribution      =      84.95762876 Ry
     xc contribution           =    -103.10468355 Ry
     ewald contribution        =    -209.58018883 Ry

     convergence has been achieved in  24 iterations

     Forces acting on atoms (cartesian axes, Ry/au):

     atom    1 type  1   force =     0.00170262   -0.00144530    0.00030339
     atom    2 type  1   force =     0.00750633    0.00397784   -0.00522868
     atom    3 type  1   force =     0.00065169    0.00557131    0.00147431
     atom    4 type  1   force =    -0.00167799    0.00209540   -0.00012787
     atom    5 type  1   force =    -0.00655182   -0.00308262    0.00211613
     atom    6 type  1   force =    -0.00540894   -0.01110919    0.01680387
     atom    7 type  1   force =     0.00165911   -0.00153493   -0.00014176
     atom    8 type  1   force =     0.00396078   -0.00431477    0.00107352
     atom    9 type  1   force =     0.00119109   -0.00202090   -0.00162186
     atom   10 type  1   force =    -0.00146753    0.00143728   -0.00016930
     atom   11 type  1   force =     0.00324052    0.00397115    0.00238240
     atom   12 type  1   force =     0.01444206    0.00449327    0.00062909
     atom   13 type  1   force =     0.00267704   -0.00109432    0.00015568
     atom   14 type  1   force =    -0.00629664   -0.00305917   -0.01317761
     atom   15 type  1   force =    -0.01502564   -0.01091867    0.02431175
     atom   16 type  1   force =    -0.00109289    0.00093191   -0.00012485
     atom   17 type  1   force =     0.00397222    0.00216480   -0.01797856
     atom   18 type  1   force =    -0.00461405   -0.00132055    0.00804471
     atom   19 type  1   force =     0.00150598   -0.00175621   -0.00025824
     atom   20 type  1   force =    -0.00132281    0.00485778   -0.00245328
     atom   21 type  1   force =    -0.00513965    0.00292572    0.00056873
     atom   22 type  1   force =    -0.00132163    0.00165146   -0.00006739
     atom   23 type  1   force =     0.00503264   -0.00029170    0.00027385
     atom   24 type  1   force =     0.00011540    0.00085662    0.00543936
     atom   25 type  2   force =     0.05921280    0.03311799   -0.01451465
     atom   26 type  2   force =     0.04576888    0.02984277   -0.01008983
     atom   27 type  2   force =    -0.01010881   -0.03498256    0.00459577
     atom   28 type  2   force =    -0.09261078   -0.02096440   -0.00221867
     The non-local contrib.  to forces
     atom    1 type  1   force =     0.00150619   -0.00009958    0.00567514
     atom    2 type  1   force =     0.00417275    0.00245239   -0.02188381
     atom    3 type  1   force =     0.00561374    0.00176897    0.00461030
     atom    4 type  1   force =    -0.00022899    0.00126061    0.00234512
     atom    5 type  1   force =     0.00427321    0.00190133    0.01119244
     atom    6 type  1   force =     0.00366997   -0.00875346    0.01198828
     atom    7 type  1   force =    -0.00142706    0.00071768    0.00452035
     atom    8 type  1   force =     0.00636912    0.00194912    0.01117033
     atom    9 type  1   force =     0.00009696    0.00322994   -0.00630625
     atom   10 type  1   force =     0.00025012    0.00076561    0.00266552
     atom   11 type  1   force =    -0.00849658    0.00082614    0.01190489
     atom   12 type  1   force =     0.00023906    0.00115322   -0.02252839
     atom   13 type  1   force =    -0.00019855   -0.00066528    0.00262977
     atom   14 type  1   force =    -0.01092952   -0.00684717   -0.01770848
     atom   15 type  1   force =    -0.01567554   -0.00619954    0.02060774
     atom   16 type  1   force =     0.00041548    0.00023003    0.00208427
     atom   17 type  1   force =     0.00590922    0.00716329   -0.02180427
     atom   18 type  1   force =    -0.00247125    0.00428421   -0.00964669
     atom   19 type  1   force =     0.00072581   -0.00283232    0.00423346
     atom   20 type  1   force =     0.00528827    0.00187584    0.00192239
     atom   21 type  1   force =     0.00282451    0.00098509   -0.01063471
     atom   22 type  1   force =     0.00001755    0.00094805    0.00488376
     atom   23 type  1   force =    -0.00237422   -0.00730869    0.00650393
     atom   24 type  1   force =    -0.00175194   -0.00240007    0.02508500
     atom   25 type  2   force =    -0.03622981    0.05480980    0.00040574
     atom   26 type  2   force =     0.03526904   -0.05649843   -0.00065098
     atom   27 type  2   force =     0.05483297   -0.01753277    0.00791065
     atom   28 type  2   force =    -0.05333965    0.01823656   -0.00737316
     The ionic contribution  to forces
     atom    1 type  1   force =     0.01555113    0.00986697   -0.86132977
     atom    2 type  1   force =     0.19106733    0.11970323    3.21724990
     atom    3 type  1   force =     0.15582339    0.10482330   -2.40655817
     atom    4 type  1   force =    -0.00492522    0.00033809   -0.90895080
     atom    5 type  1   force =     0.01250629   -0.00280993    3.62870589
     atom    6 type  1   force =    -0.02987029   -0.28307353   -2.52870990
     atom    7 type  1   force =    -0.02075360    0.01570499   -0.86056394
     atom    8 type  1   force =    -0.18201365    0.29014878    3.12082235
     atom    9 type  1   force =    -0.17243854    0.34602775   -2.24781590
     atom   10 type  1   force =     0.00783173    0.00363328   -0.90621297
     atom   11 type  1   force =    -0.00556805    0.21669052    3.26462916
     atom   12 type  1   force =     0.01916393   -0.03046572   -2.77321217
     atom   13 type  1   force =    -0.00879390   -0.00538037   -0.90360858
     atom   14 type  1   force =    -0.15233581   -0.11035949    3.42821878
     atom   15 type  1   force =    -0.23271303   -0.14845311   -2.62232368
     atom   16 type  1   force =    -0.00133340   -0.00117171   -0.91020278
     atom   17 type  1   force =    -0.18027405   -0.09882599    2.78366195
     atom   18 type  1   force =    -0.21085754    0.14885669   -2.54362778
     atom   19 type  1   force =     0.00253259   -0.02627869   -0.85976401
     atom   20 type  1   force =     0.15313409   -0.31901943    3.06166264
     atom   21 type  1   force =     0.21982018   -0.33605415   -2.10430926
     atom   22 type  1   force =     0.00320671    0.00608551   -0.85268833
     atom   23 type  1   force =     0.19208863   -0.11273115    3.21455646
     atom   24 type  1   force =     0.19319475    0.16334940   -1.50868457
     atom   25 type  2   force =     0.87576329   -0.61387258    0.23736703
     atom   26 type  2   force =    -0.22547069    1.07632237    0.25955631
     atom   27 type  2   force =    -1.00473206    0.15598320   -0.22269214
     atom   28 type  2   force =     0.39039578   -0.56903826   -0.19517573
     The local contribution  to forces
     atom    1 type  1   force =    -0.01534661   -0.01121977    0.85655697
     atom    2 type  1   force =    -0.18777241   -0.11820584   -3.20119971
     atom    3 type  1   force =    -0.16078382   -0.10106870    2.40339503
     atom    4 type  1   force =     0.00350331    0.00051523    0.90682402
     atom    5 type  1   force =    -0.02318376   -0.00209160   -3.63700235
     atom    6 type  1   force =     0.02085502    0.28062815    2.53284607
     atom    7 type  1   force =     0.02378496   -0.01796034    0.85647745
     atom    8 type  1   force =     0.17978133   -0.29635670   -3.13082184
     atom    9 type  1   force =     0.17351727   -0.35117575    2.25224355
     atom   10 type  1   force =    -0.00951766   -0.00294060    0.90373167
     atom   11 type  1   force =     0.01706579   -0.21361679   -3.27380756
     atom   12 type  1   force =    -0.00499914    0.03382133    2.79516490
     atom   13 type  1   force =     0.01162988    0.00494029    0.90162100
     atom   14 type  1   force =     0.15681020    0.11402111   -3.42354134
     atom   15 type  1   force =     0.23315699    0.14364920    2.62530680
     atom   16 type  1   force =    -0.00014439    0.00188442    0.90833878
     atom   17 type  1   force =     0.17843544    0.09395303   -2.78021874
     atom   18 type  1   force =     0.20870104   -0.15437005    2.56027379
     atom   19 type  1   force =    -0.00176856    0.02730717    0.85584857
     atom   20 type  1   force =    -0.15958347    0.32206494   -3.06620395
     atom   21 type  1   force =    -0.22763063    0.33796035    2.11543785
     atom   22 type  1   force =    -0.00452608   -0.00536813    0.84821860
     atom   23 type  1   force =    -0.18486625    0.11959818   -3.22061427
     atom   24 type  1   force =    -0.19122651   -0.16007535    1.49070205
     atom   25 type  2   force =    -0.78038161    0.59220801   -0.25238549
     atom   26 type  2   force =     0.23597261   -0.99005415   -0.26909391
     atom   27 type  2   force =     0.93985564   -0.17344800    0.21926481
     atom   28 type  2   force =    -0.42967412    0.52988359    0.20019698
     The core correction contribution to forces
     atom    1 type  1   force =    -0.00001195   -0.00000330   -0.00019812
     atom    2 type  1   force =     0.00001549    0.00001346    0.00071336
     atom    3 type  1   force =    -0.00003810    0.00002015   -0.00029653
     atom    4 type  1   force =    -0.00002427   -0.00001802    0.00006081
     atom    5 type  1   force =    -0.00014556   -0.00007839   -0.00072940
     atom    6 type  1   force =    -0.00007385    0.00009603    0.00032018
     atom    7 type  1   force =     0.00005875   -0.00001227   -0.00017266
     atom    8 type  1   force =    -0.00015182   -0.00011644    0.00000803
     atom    9 type  1   force =     0.00004399   -0.00013084   -0.00007974
     atom   10 type  1   force =    -0.00003005   -0.00001777    0.00005160
     atom   11 type  1   force =     0.00023665    0.00006231   -0.00024178
     atom   12 type  1   force =     0.00005208    0.00001321    0.00091425
     atom   13 type  1   force =     0.00004085    0.00001882   -0.00007837
     atom   14 type  1   force =     0.00020598    0.00015965   -0.00005233
     atom   15 type  1   force =     0.00020682    0.00009269    0.00033583
     atom   16 type  1   force =    -0.00002810   -0.00001260    0.00006102
     atom   17 type  1   force =    -0.00009925   -0.00012922    0.00054677
     atom   18 type  1   force =     0.00000128   -0.00011422    0.00069341
     atom   19 type  1   force =     0.00001473    0.00006155   -0.00017145
     atom   20 type  1   force =    -0.00019786   -0.00001079    0.00027595
     atom   21 type  1   force =    -0.00015316    0.00007601   -0.00027318
     atom   22 type  1   force =    -0.00001836   -0.00001794   -0.00007465
     atom   23 type  1   force =     0.00017445    0.00014591   -0.00006552
     atom   24 type  1   force =    -0.00007506   -0.00002113   -0.00205733
     atom   25 type  2   force =     0.00000000    0.00000000    0.00000000
     atom   26 type  2   force =     0.00000000    0.00000000    0.00000000
     atom   27 type  2   force =     0.00000000    0.00000000    0.00000000
     atom   28 type  2   force =     0.00000000    0.00000000    0.00000000
     The Hubbard contrib.    to forces
     atom    1 type  1   force =     0.00000000    0.00000000    0.00000000
     atom    2 type  1   force =     0.00000000    0.00000000    0.00000000
     atom    3 type  1   force =     0.00000000    0.00000000    0.00000000
     atom    4 type  1   force =     0.00000000    0.00000000    0.00000000
     atom    5 type  1   force =     0.00000000    0.00000000    0.00000000
     atom    6 type  1   force =     0.00000000    0.00000000    0.00000000
     atom    7 type  1   force =     0.00000000    0.00000000    0.00000000
     atom    8 type  1   force =     0.00000000    0.00000000    0.00000000
     atom    9 type  1   force =     0.00000000    0.00000000    0.00000000
     atom   10 type  1   force =     0.00000000    0.00000000    0.00000000
     atom   11 type  1   force =     0.00000000    0.00000000    0.00000000
     atom   12 type  1   force =     0.00000000    0.00000000    0.00000000
     atom   13 type  1   force =     0.00000000    0.00000000    0.00000000
     atom   14 type  1   force =     0.00000000    0.00000000    0.00000000
     atom   15 type  1   force =     0.00000000    0.00000000    0.00000000
     atom   16 type  1   force =     0.00000000    0.00000000    0.00000000
     atom   17 type  1   force =     0.00000000    0.00000000    0.00000000
     atom   18 type  1   force =     0.00000000    0.00000000    0.00000000
     atom   19 type  1   force =     0.00000000    0.00000000    0.00000000
     atom   20 type  1   force =     0.00000000    0.00000000    0.00000000
     atom   21 type  1   force =     0.00000000    0.00000000    0.00000000
     atom   22 type  1   force =     0.00000000    0.00000000    0.00000000
     atom   23 type  1   force =     0.00000000    0.00000000    0.00000000
     atom   24 type  1   force =     0.00000000    0.00000000    0.00000000
     atom   25 type  2   force =     0.00000000    0.00000000    0.00000000
     atom   26 type  2   force =     0.00000000    0.00000000    0.00000000
     atom   27 type  2   force =     0.00000000    0.00000000    0.00000000
     atom   28 type  2   force =     0.00000000    0.00000000    0.00000000
     The SCF correction term to forces
     atom    1 type  1   force =     0.00000432    0.00000996   -0.00040090
     atom    2 type  1   force =     0.00002363    0.00001417   -0.00010850
     atom    3 type  1   force =     0.00003695    0.00002717    0.00032361
     atom    4 type  1   force =    -0.00000235   -0.00000093   -0.00040708
     atom    5 type  1   force =    -0.00000153   -0.00000445   -0.00005052
     atom    6 type  1   force =     0.00001068   -0.00000680    0.00035917
     atom    7 type  1   force =    -0.00000347    0.00001459   -0.00040303
     atom    8 type  1   force =    -0.00002373    0.00006005   -0.00010543
     atom    9 type  1   force =    -0.00002813    0.00002757    0.00033641
     atom   10 type  1   force =    -0.00000119   -0.00000366   -0.00040520
     atom   11 type  1   force =     0.00000318    0.00000855   -0.00010238
     atom   12 type  1   force =    -0.00001340   -0.00002918    0.00029043
     atom   13 type  1   force =    -0.00000076   -0.00000820   -0.00040822
     atom   14 type  1   force =    -0.00004702   -0.00003370   -0.00009431
     atom   15 type  1   force =    -0.00000041   -0.00000833    0.00038498
     atom   16 type  1   force =    -0.00000202    0.00000135   -0.00040622
     atom   17 type  1   force =     0.00000134    0.00000326   -0.00016434
     atom   18 type  1   force =     0.00001288    0.00002239    0.00035191
     atom   19 type  1   force =     0.00000187   -0.00001434   -0.00040489
     atom   20 type  1   force =     0.00003662   -0.00005320   -0.00011037
     atom   21 type  1   force =    -0.00000008   -0.00004200    0.00034796
     atom   22 type  1   force =    -0.00000099    0.00000354   -0.00040684
     atom   23 type  1   force =     0.00001051    0.00000363   -0.00010681
     atom   24 type  1   force =    -0.00002537    0.00000335    0.00039414
     atom   25 type  2   force =     0.00006140   -0.00002766    0.00009800
     atom   26 type  2   force =    -0.00000163    0.00007256    0.00009867
     atom   27 type  2   force =    -0.00006490    0.00001459    0.00011238
     atom   28 type  2   force =     0.00000767   -0.00004670    0.00013318

     Total force =     0.144753     Total SCF correction =     0.001574


     Computing stress (Cartesian axis) and pressure

          total   stress  (Ry/bohr**3)                   (kbar)     P=      116.57
   0.00077367   0.00017952  -0.00010418          113.81       26.41      -15.32
   0.00017952   0.00065033  -0.00005316           26.41       95.67       -7.82
  -0.00010418  -0.00005316   0.00095321          -15.32       -7.82      140.22


     BFGS Geometry Optimization
     Energy error            =      0.0E+00 Ry
     Gradient error          =      9.3E-02 Ry/Bohr
     Cell gradient error     =      1.4E+02 kbar

     number of scf cycles    =   1
     number of bfgs steps    =   0

     enthalpy           new  =    -291.5275059372 Ry

     new trust radius        =       0.1775984686 bohr
     new conv_thr            =       0.0000010000 Ry

     new unit-cell volume =   1450.81967 a.u.^3 (   214.98929 Ang^3 )
     density =      2.25764 g/cm^3

CELL_PARAMETERS (alat=  8.00000437)
   1.169867019   0.005358390  -0.004152386
  -0.580295140   1.007221654   0.001157347
  -0.009752719  -0.001917611   2.398519389

ATOMIC_POSITIONS (crystal)
C            -0.0001888974       -0.0001142670        0.1706387313
C             0.0044230622       -0.0006495962        0.4594209357
C            -0.0008802587        0.0007501100        0.8624040921
C             0.1664341947        0.3336727913        0.1701510775
C             0.3352767135        0.1648564122        0.4619379571
C             0.1641307435        0.3318601421        0.8598857583
C             0.4998892716       -0.0001266573        0.1706070913
C             0.5028076058       -0.0020706325        0.4605708027
C             0.4987229666       -0.0003631175        0.8616860626
C             0.6663735980        0.3335853553        0.1701708784
C             0.8370434701        0.1658772643        0.4607964527
C             0.6670439057        0.3338923176        0.8587950338
C             0.0000158486        0.4999665048        0.1703130311
C             0.0020098009        0.4982321163        0.4607734920
C            -0.0036723581        0.4986746899        0.8582923769
C             0.1664247238        0.8335609158        0.1701493015
C             0.3362719796        0.6652604853        0.4593016773
C             0.1647899644        0.8333721968        0.8592848262
C             0.4998605985        0.4999411842        0.1706083451
C             0.5027808119        0.4990886891        0.4601194277
C             0.4982926658        0.5004962629        0.8621346468
C             0.6664386787        0.8336251437        0.1705515418
C             0.8369669566        0.6653117399        0.4604593163
C             0.6654480784        0.8335048834        0.8669704100
H             0.6842891189        0.7562232898        0.6518281977
H             0.6803708031        0.9119350334        0.6520179444
H             0.2617002148        0.6755995832        0.6702454239
H             0.3835957384        0.6253651593        0.6798771678



     Writing config-only to output data dir ../../results/server/2h2_abs/2H2abs_C.save/
     NEW-OLD atomic charge density approx. for the potential

     Check: negative core charge=   -0.000002
     extrapolated charge  105.71113, renormalised to  100.00000

     total cpu time spent up to now is       22.5 secs

     Self-consistent Calculation

     iteration #  1     ecut=    40.00 Ry     beta= 0.05
     Davidson diagonalization with overlap
     c_bands:  3 eigenvalues not converged
     c_bands:  2 eigenvalues not converged
     c_bands:  2 eigenvalues not converged
     c_bands:  3 eigenvalues not converged
     c_bands:  2 eigenvalues not converged
     c_bands:  2 eigenvalues not converged
     c_bands:  2 eigenvalues not converged
     c_bands:  4 eigenvalues not converged
     c_bands:  2 eigenvalues not converged
     c_bands:  2 eigenvalues not converged
     ethr =  1.00E-06,  avg # of iterations = 20.9

     total cpu time spent up to now is       26.7 secs

     total energy              =    -291.23241505 Ry
     estimated scf accuracy    <       0.64581369 Ry

     iteration #  2     ecut=    40.00 Ry     beta= 0.05
     Davidson diagonalization with overlap
     ethr =  6.46E-04,  avg # of iterations =  4.8

     total cpu time spent up to now is       27.7 secs

     total energy              =    -291.55558220 Ry
     estimated scf accuracy    <       0.00945463 Ry

     iteration #  3     ecut=    40.00 Ry     beta= 0.05
     Davidson diagonalization with overlap
     ethr =  9.45E-06,  avg # of iterations = 16.6

     total cpu time spent up to now is       30.5 secs

     total energy              =    -291.56977609 Ry
     estimated scf accuracy    <       0.00476220 Ry

     iteration #  4     ecut=    40.00 Ry     beta= 0.05
     Davidson diagonalization with overlap
     ethr =  4.76E-06,  avg # of iterations =  3.0

     total cpu time spent up to now is       31.2 secs

     total energy              =    -291.56795379 Ry
     estimated scf accuracy    <       0.00464872 Ry

     iteration #  5     ecut=    40.00 Ry     beta= 0.05
     Davidson diagonalization with overlap
     ethr =  4.65E-06,  avg # of iterations =  2.0

     total cpu time spent up to now is       31.8 secs

     total energy              =    -291.56808465 Ry
     estimated scf accuracy    <       0.00039421 Ry

     iteration #  6     ecut=    40.00 Ry     beta= 0.05
     Davidson diagonalization with overlap
     ethr =  3.94E-07,  avg # of iterations =  4.9

     total cpu time spent up to now is       32.7 secs

     total energy              =    -291.56825747 Ry
     estimated scf accuracy    <       0.00007900 Ry

     iteration #  7     ecut=    40.00 Ry     beta= 0.05
     Davidson diagonalization with overlap
     ethr =  7.90E-08,  avg # of iterations =  3.9

     total cpu time spent up to now is       33.6 secs

     total energy              =    -291.56827770 Ry
     estimated scf accuracy    <       0.00007741 Ry

     iteration #  8     ecut=    40.00 Ry     beta= 0.05
     Davidson diagonalization with overlap
     ethr =  7.74E-08,  avg # of iterations =  1.1

     total cpu time spent up to now is       34.1 secs

     total energy              =    -291.56827810 Ry
     estimated scf accuracy    <       0.00007842 Ry

     iteration #  9     ecut=    40.00 Ry     beta= 0.05
     Davidson diagonalization with overlap
     ethr =  7.74E-08,  avg # of iterations =  1.0

     total cpu time spent up to now is       34.6 secs

     total energy              =    -291.56825890 Ry
     estimated scf accuracy    <       0.00006882 Ry

     iteration # 10     ecut=    40.00 Ry     beta= 0.05
     Davidson diagonalization with overlap
     ethr =  6.88E-08,  avg # of iterations =  2.0

     total cpu time spent up to now is       35.1 secs

     total energy              =    -291.56826735 Ry
     estimated scf accuracy    <       0.00001727 Ry

     iteration # 11     ecut=    40.00 Ry     beta= 0.05
     Davidson diagonalization with overlap
     ethr =  1.73E-08,  avg # of iterations =  2.0

     total cpu time spent up to now is       35.6 secs

     total energy              =    -291.56827231 Ry
     estimated scf accuracy    <       0.00001904 Ry

     iteration # 12     ecut=    40.00 Ry     beta= 0.05
     Davidson diagonalization with overlap
     ethr =  1.73E-08,  avg # of iterations =  1.0

     total cpu time spent up to now is       36.1 secs

     total energy              =    -291.56827848 Ry
     estimated scf accuracy    <       0.00002893 Ry

     iteration # 13     ecut=    40.00 Ry     beta= 0.05
     Davidson diagonalization with overlap
     ethr =  1.73E-08,  avg # of iterations =  1.6

     total cpu time spent up to now is       36.8 secs

     total energy              =    -291.56828412 Ry
     estimated scf accuracy    <       0.00003960 Ry

     iteration # 14     ecut=    40.00 Ry     beta= 0.05
     Davidson diagonalization with overlap
     ethr =  1.73E-08,  avg # of iterations =  1.0

     total cpu time spent up to now is       37.3 secs

     total energy              =    -291.56831124 Ry
     estimated scf accuracy    <       0.00005114 Ry

     iteration # 15     ecut=    40.00 Ry     beta= 0.05
     Davidson diagonalization with overlap
     ethr =  1.73E-08,  avg # of iterations =  4.0

     total cpu time spent up to now is       38.1 secs

     total energy              =    -291.56831273 Ry
     estimated scf accuracy    <       0.00014268 Ry

     iteration # 16     ecut=    40.00 Ry     beta= 0.05
     Davidson diagonalization with overlap
     ethr =  1.73E-08,  avg # of iterations =  1.0

     total cpu time spent up to now is       38.7 secs

     total energy              =    -291.56825223 Ry
     estimated scf accuracy    <       0.00013616 Ry

     iteration # 17     ecut=    40.00 Ry     beta= 0.05
     Davidson diagonalization with overlap
     ethr =  1.73E-08,  avg # of iterations =  5.0

     total cpu time spent up to now is       39.6 secs

     total energy              =    -291.56826439 Ry
     estimated scf accuracy    <       0.00001394 Ry

     iteration # 18     ecut=    40.00 Ry     beta= 0.05
     Davidson diagonalization with overlap
     ethr =  1.39E-08,  avg # of iterations =  1.0

     total cpu time spent up to now is       40.1 secs

     total energy              =    -291.56826452 Ry
     estimated scf accuracy    <       0.00000909 Ry

     iteration # 19     ecut=    40.00 Ry     beta= 0.05
     Davidson diagonalization with overlap
     ethr =  9.09E-09,  avg # of iterations =  1.4

     total cpu time spent up to now is       40.8 secs

     total energy              =    -291.56826501 Ry
     estimated scf accuracy    <       0.00000888 Ry

     iteration # 20     ecut=    40.00 Ry     beta= 0.05
     Davidson diagonalization with overlap
     ethr =  8.88E-09,  avg # of iterations =  1.0

     total cpu time spent up to now is       41.3 secs

     total energy              =    -291.56826369 Ry
     estimated scf accuracy    <       0.00000816 Ry

     iteration # 21     ecut=    40.00 Ry     beta= 0.05
     Davidson diagonalization with overlap
     ethr =  8.16E-09,  avg # of iterations =  1.0

     total cpu time spent up to now is       41.8 secs

     total energy              =    -291.56826345 Ry
     estimated scf accuracy    <       0.00000509 Ry

     iteration # 22     ecut=    40.00 Ry     beta= 0.05
     Davidson diagonalization with overlap
     ethr =  5.09E-09,  avg # of iterations =  1.0

     total cpu time spent up to now is       42.3 secs

     total energy              =    -291.56826281 Ry
     estimated scf accuracy    <       0.00000379 Ry

     iteration # 23     ecut=    40.00 Ry     beta= 0.05
     Davidson diagonalization with overlap
     ethr =  3.79E-09,  avg # of iterations =  2.0

     total cpu time spent up to now is       42.8 secs

     total energy              =    -291.56826244 Ry
     estimated scf accuracy    <       0.00000195 Ry

     iteration # 24     ecut=    40.00 Ry     beta= 0.05
     Davidson diagonalization with overlap
     ethr =  1.95E-09,  avg # of iterations =  5.5

     total cpu time spent up to now is       44.1 secs

     total energy              =    -291.56826181 Ry
     estimated scf accuracy    <       0.00000502 Ry

     iteration # 25     ecut=    40.00 Ry     beta= 0.05
     Davidson diagonalization with overlap
     ethr =  1.95E-09,  avg # of iterations =  4.0

     total cpu time spent up to now is       44.9 secs

     End of self-consistent calculation

          k = 0.0710 0.1235 0.1046 (  5839 PWs)   bands (ev):

   -12.4572 -12.2396 -11.9743  -8.2128  -8.1365  -8.0476  -7.9607  -7.8424
    -7.7667  -7.0563  -6.9566  -6.8037  -6.1749  -6.0975  -5.9761  -5.2944
    -5.2539  -5.1723  -5.1162  -4.9972  -4.9616  -2.7563  -1.3005  -0.0902
    -0.0400   0.0499   0.1864   0.4229   0.4869   0.5401   0.5541   0.6245
     0.6742   1.2876   2.7010   3.1903   3.3748   3.4070   3.4703   3.5098
     3.6187   3.6541   3.7028   3.9226   4.0512   4.2909   4.6338   4.8455
     5.2479   5.5883   7.8626   8.4379   8.4505   8.6907   9.0602   9.1462
     9.2110   9.8880  10.1427  12.4106

          k = 0.0703 0.1234-0.1038 (  5842 PWs)   bands (ev):

   -12.4574 -12.2393 -11.9745  -8.2128  -8.1359  -8.0474  -7.9624  -7.8421
    -7.7660  -7.0568  -6.9555  -6.8042  -6.1751  -6.0974  -5.9761  -5.2944
    -5.2519  -5.1732  -5.1187  -4.9986  -4.9587  -2.7588  -1.2830  -0.0915
    -0.0397   0.0482   0.1327   0.4230   0.4866   0.5402   0.5541   0.6247
     0.6741   1.3565   2.7275   3.1735   3.3255   3.3918   3.4172   3.4773
     3.6177   3.6489   3.6771   3.9484   4.0549   4.4556   4.7337   4.8412
     5.1727   5.5127   7.8563   8.3964   8.4620   8.5466   9.0486   9.1401
     9.5766   9.8976   9.9785  12.4107

          k = 0.0703 0.2886 0.1047 (  5844 PWs)   bands (ev):

   -12.0465 -11.8334 -11.5741  -9.6113  -9.4249  -9.2005  -8.7233  -8.5457
    -8.3380  -7.3457  -7.1943  -7.0035  -5.3175  -5.1822  -5.0356  -4.1438
    -4.0289  -3.8768  -3.2182  -3.0978  -2.9636  -2.4627  -1.3382  -1.2675
    -1.1558  -0.8729  -0.2600  -0.1803  -0.1082   0.4757   0.8292   0.8888
     0.9423   1.1399   1.8728   2.0576   2.0952   2.1761   2.5167   2.8009
     2.8297   2.8854   2.9117   3.1998   3.6620   4.0589   4.3008   4.7205
     5.3574   5.8133   8.0305   8.5224   9.2147   9.3758   9.8440  10.4443
    10.6482  10.9946  11.6977  11.9534

          k = 0.0695 0.2884-0.1037 (  5844 PWs)   bands (ev):

   -12.0467 -11.8332 -11.5742  -9.6115  -9.4247  -9.2005  -8.7226  -8.5473
    -8.3372  -7.3480  -7.1895  -7.0061  -5.3196  -5.1780  -5.0377  -4.1455
    -4.0259  -3.8778  -3.2090  -3.1149  -2.9541  -2.4686  -1.3375  -1.2675
    -1.1560  -0.8352  -0.2608  -0.1792  -0.1087   0.3441   0.8292   0.8888
     0.9423   1.2600   1.8937   2.0569   2.0967   2.1764   2.4799   2.8235
     2.8439   2.8873   2.9194   3.1005   3.6654   4.0869   4.3430   4.7505
     5.3315   5.7683   7.9975   8.5803   9.1803   9.2749  10.0369  10.4462
    10.5865  11.0245  11.6564  11.9541

          k = 0.0695 0.4536 0.1049 (  5857 PWs)   bands (ev):

   -11.3118 -11.1073 -10.8611 -10.8109 -10.6140 -10.3736  -8.9418  -8.7606
    -8.5497  -7.5757  -7.4149  -7.2220  -4.1558  -4.0609  -3.9409  -2.9959
    -2.9122  -2.7992  -2.5740  -2.5465  -2.3808  -2.1857  -1.3240  -1.2712
    -1.1748  -1.0180  -0.9314  -0.8245  -0.1947   0.0870   0.1487   0.2572
     0.3692   0.8853   1.5184   1.5542   1.5726   1.6233   1.9072   1.9323
     1.9926   2.0122   2.3967   2.8734   3.1149   3.9238   4.2261   4.7166
     5.3806   5.9451   8.2539   8.7752   9.3939   9.9100  10.2882  10.9772
    11.3853  12.8429  13.1675  13.3088

          k = 0.0688 0.4534-0.1036 (  5847 PWs)   bands (ev):

   -11.3119 -11.1073 -10.8605 -10.8114 -10.6140 -10.3737  -8.9407  -8.7628
    -8.5485  -7.5769  -7.4122  -7.2234  -4.1579  -4.0563  -3.9434  -2.9991
    -2.9067  -2.8014  -2.6020  -2.4945  -2.4107  -2.1799  -1.3325  -1.2577
    -1.1805  -1.0210  -0.9297  -0.8246  -0.1489   0.0880   0.1522   0.2474
     0.3218   0.8435   1.5185   1.5706   1.6003   1.6251   1.9031   1.9460
     1.9805   2.0298   2.4249   2.8746   3.0671   3.9663   4.2064   4.7097
     5.3471   5.9676   8.2764   8.7314   9.4204   9.8622  10.3823  10.9050
    11.4166  12.8311  13.1746  13.3422

          k = 0.0733-0.3716 0.1042 (  5853 PWs)   bands (ev):

   -11.7131 -11.5038 -11.2489 -10.2600 -10.0665  -9.8329  -8.8482  -8.6675
    -8.4582  -7.5296  -7.3694  -7.1817  -4.7572  -4.6395  -4.4938  -3.4377
    -3.3146  -3.1976  -2.4269  -2.0903  -1.9702  -1.8968  -1.8683  -1.7885
    -1.7108  -0.9691  -0.9054  -0.8003  -0.4885   0.4580   1.0717   1.0943
     1.1227   1.1620   1.1887   1.2318   1.2491   1.5818   2.0452   2.4011
     2.4404   2.4895   2.6222   2.9015   3.4902   3.9509   4.2035   4.6756
     5.4350   5.7215   8.1597   8.8991   9.3466   9.6537  10.1541  10.7938
    11.2753  11.6353  12.2000  12.8267

          k = 0.0726-0.3718-0.1042 (  5851 PWs)   bands (ev):

   -11.7133 -11.5033 -11.2492 -10.2601 -10.0662  -9.8331  -8.8469  -8.6703
    -8.4567  -7.5301  -7.3685  -7.1821  -4.7542  -4.6450  -4.4913  -3.4352
    -3.3198  -3.1946  -2.4292  -2.0753  -1.9891  -1.8971  -1.8536  -1.7963
    -1.7079  -0.9689  -0.9075  -0.7997  -0.5222   0.5566   1.0781   1.0972
     1.1183   1.1451   1.1868   1.2318   1.2504   1.4742   2.0409   2.4003
     2.4364   2.4887   2.6592   2.9907   3.4329   3.9208   4.2890   4.7190
     5.1137   5.9433   8.3058   8.6607   9.4377   9.6547  10.1422  10.8050
    11.2663  11.6606  12.1556  12.8425

          k = 0.0725-0.2065 0.1044 (  5839 PWs)   bands (ev):

   -12.2896 -12.0738 -11.8109  -8.9158  -8.7382  -8.5232  -8.4451  -8.2694
    -8.0661  -7.2618  -7.1214  -6.9610  -5.8844  -5.7808  -5.6277  -4.6681
    -4.5256  -4.3853  -4.2381  -4.1256  -3.9608  -2.6437  -1.1044  -0.5139
    -0.4295  -0.3571   0.0666   0.1174   0.2051   0.2890   0.5726   0.6362
     0.6891   1.4037   2.2228   2.7430   2.8314   2.8738   2.9174   3.1606
     3.2798   3.3024   3.3470   3.6554   4.0292   4.1606   4.3986   4.7550
     5.2060   5.4801   7.9509   8.7975   8.8667   9.3252   9.3382   9.5098
     9.9753  10.2538  10.7727  11.6256

          k = 0.0718-0.2067-0.1041 (  5839 PWs)   bands (ev):

   -12.2897 -12.0734 -11.8111  -8.9162  -8.7372  -8.5239  -8.4437  -8.2725
    -8.0643  -7.2607  -7.1241  -6.9592  -5.8809  -5.7868  -5.6254  -4.6666
    -4.5284  -4.3839  -4.2435  -4.1156  -3.9657  -2.6407  -1.1200  -0.5136
    -0.4298  -0.3568   0.0677   0.1173   0.2065   0.3254   0.5725   0.6364
     0.6890   1.3609   2.2452   2.6795   2.8313   2.8914   2.9325   3.2000
     3.2828   3.3164   3.3503   3.6223   4.0060   4.2046   4.5652   4.6410
     4.9405   5.6710   8.0563   8.6414   8.8621   9.2985   9.3563   9.5713
     9.9775  10.2525  10.7731  11.6374

          k = 0.0718-0.0415 0.1045 (  5846 PWs)   bands (ev):

   -12.5385 -12.3200 -12.0535  -7.7618  -7.5993  -7.4846  -7.4070  -7.3851
    -7.3468  -7.2375  -7.1722  -7.0654  -6.1010  -6.0728  -6.0065  -5.9602
    -5.8280  -5.8013  -5.7276  -5.5790  -5.4325  -2.8268  -1.3807   0.0948
     0.3338   0.3930   0.4483   0.4721   0.4825   0.5231   0.5461   0.5941
     0.5972   1.4052   2.7397   3.5414   3.6851   3.7161   3.7565   3.7798
     3.7960   3.8519   3.8712   4.0128   4.2670   4.3320   4.6513   5.0231
     5.1547   5.5187   7.9400   8.0447   8.2030   8.5301   8.7623   8.8592
     9.3160   9.4860   9.7474  12.2152

          k = 0.0711-0.0417-0.1040 (  5849 PWs)   bands (ev):

   -12.5387 -12.3197 -12.0537  -7.7590  -7.6057  -7.4854  -7.4035  -7.3874
    -7.3436  -7.2325  -7.1742  -7.0687  -6.1030  -6.0805  -6.0013  -5.9484
    -5.8292  -5.8072  -5.7256  -5.5831  -5.4305  -2.8265  -1.3800   0.0854
     0.3338   0.3931   0.4483   0.4721   0.4824   0.5231   0.5459   0.5942
     0.5973   1.4226   2.7463   3.5674   3.6675   3.7146   3.7563   3.7748
     3.7869   3.8086   3.8627   3.9213   4.2388   4.4369   4.8520   5.0445
     5.0795   5.4307   7.9184   7.9923   8.1565   8.5777   8.7389   9.0290
     9.2953   9.5147   9.6680  12.2510

          k = 0.2131 0.2054 0.1053 (  5845 PWs)   bands (ev):

   -12.0506 -11.8380 -11.5780  -9.6555  -9.4676  -9.2443  -8.6599  -8.4836
    -8.2741  -7.3024  -7.1454  -6.9618  -5.3744  -5.2324  -5.0957  -4.1235
    -3.9997  -3.8568  -3.2682  -3.1587  -3.0149  -2.4471  -1.3224  -1.2520
    -1.1407  -0.8819  -0.3587  -0.2831  -0.2088   0.4311   0.9457   1.0007
     1.0183   1.0625   1.8334   1.9891   2.0208   2.1092   2.4716   2.8602
     2.8973   2.9548   2.9926   3.4714   3.6646   4.0540   4.5181   4.7065
     5.2091   5.7232   7.9908   8.5751   9.1668   9.2715   9.8658  10.4685
    10.5505  10.9873  11.7920  12.5815

          k = 0.2124 0.2052-0.1032 (  5845 PWs)   bands (ev):

   -12.0510 -11.8370 -11.5785  -9.6547  -9.4691  -9.2436  -8.6602  -8.4831
    -8.2744  -7.3001  -7.1503  -6.9591  -5.3717  -5.2378  -5.0930  -4.1185
    -4.0089  -3.8523  -3.2689  -3.1580  -3.0143  -2.4518  -1.3214  -1.2529
    -1.1409  -0.8359  -0.3582  -0.2848  -0.2082   0.2672   0.9457   1.0139
     1.0623   1.1492   1.8080   1.9905   2.0179   2.1096   2.5154   2.8802
     2.8985   2.9568   2.9997   3.4387   3.6150   4.1143   4.4586   4.6432
     5.3230   5.6774   8.0137   8.5299   9.1716   9.3089   9.8288  10.3976
    10.5630  11.1301  11.7594  12.5551

          k = 0.2124 0.3704 0.1054 (  5838 PWs)   bands (ev):

   -11.4811 -11.2750 -11.0231 -10.0478  -9.9975  -9.8622  -9.7962  -9.6226
    -9.5784  -6.2296  -6.1382  -5.9941  -5.4549  -5.3978  -5.2813  -2.8816
    -2.8317  -2.6779  -2.2387  -2.1005  -2.0487  -2.0163  -1.9625  -1.8905
    -1.8559  -0.3462   0.2564   0.3152   0.3212   0.3842   0.3909   0.4582
     0.5608   0.7531   0.7829   0.8737   1.1832   1.4703   1.5533   1.7621
     1.8118   1.8603   2.0991   2.7736   3.2231   3.6459   4.6128   5.3553
     5.7775   6.4767   7.3298   7.8052   8.3197  11.3370  11.4116  11.5907
    11.8692  12.0329  12.4665  12.5508

          k = 0.2116 0.3703-0.1031 (  5840 PWs)   bands (ev):

   -11.4816 -11.2741 -11.0235 -10.0472  -9.9978  -9.8630  -9.7964  -9.6215
    -9.5789  -6.2304  -6.1369  -5.9946  -5.4570  -5.3949  -5.2822  -2.8949
    -2.8094  -2.6877  -2.2317  -2.1096  -2.0680  -2.0033  -1.9451  -1.8943
    -1.8635  -0.2746   0.2543   0.3057   0.3190   0.3764   0.3909   0.4196
     0.4661   0.7519   0.7844   0.8740   1.1898   1.4333   1.7056   1.7644
     1.8063   1.8594   2.0978   2.8263   3.1914   3.5718   4.6408   5.2662
     5.9342   6.4017   7.2985   7.8220   8.3320  11.3225  11.4114  11.5998
    11.8839  12.0362  12.4858  12.5427

          k = 0.2116 0.5355 0.1055 (  5830 PWs)   bands (ev):

   -11.0550 -10.8542 -10.6133 -10.5849 -10.3948 -10.1567 -10.1085  -9.9141
    -9.6870  -6.1985  -6.0728  -5.9249  -5.1445  -5.0597  -4.9381  -3.4063
    -3.3418  -3.2266  -2.1475  -1.5539  -1.4790  -1.3939  -0.9850  -0.9187
    -0.8105  -0.1500  -0.1255  -0.0852  -0.0495  -0.0016   0.0243   0.1718
     0.4599   0.6210   0.6929   0.7424   0.9872   1.1915   1.2178   1.2545
     1.3150   1.6487   1.9985   2.4768   2.9515   3.6411   4.5643   5.4471
     6.2079   6.6976   7.0225   7.6805   8.1592  11.0645  11.7093  12.1182
    12.5305  12.6822  12.9446  13.4618

          k = 0.2109 0.5353-0.1029 (  5829 PWs)   bands (ev):

   -11.0556 -10.8529 -10.6148 -10.5848 -10.3934 -10.1576 -10.1076  -9.9162
    -9.6857  -6.1983  -6.0736  -5.9242  -5.1388  -5.0690  -4.9346  -3.4072
    -3.3404  -3.2273  -2.1470  -1.5547  -1.4778  -1.3943  -0.9830  -0.9194
    -0.8110  -0.1476  -0.1287  -0.0887  -0.0502   0.0003   0.0272   0.1469
     0.5333   0.6191   0.6845   0.7380   0.9185   1.1925   1.2187   1.2647
     1.3204   1.6188   2.0670   2.4935   2.9314   3.6054   4.5709   5.5364
     6.0203   6.7862   7.1577   7.5154   8.2096  11.0611  11.7138  12.1329
    12.5401  12.6742  12.9123  13.4660

          k = 0.2154-0.2897 0.1049 (  5842 PWs)   bands (ev):

   -11.7925 -11.5826 -11.3264  -9.8580  -9.6655  -9.4423  -9.3988  -9.2151
    -8.9945  -6.8410  -6.7095  -6.5496  -5.4797  -5.3935  -5.2375  -3.0377
    -2.9559  -2.7925  -2.6091  -2.4875  -2.3944  -2.2987  -2.0006  -1.8958
    -1.8089  -0.5779  -0.1507  -0.0731  -0.0035   0.5448   0.5883   0.6297
     0.6850   1.2397   1.4412   1.4937   1.5440   1.6394   1.8302   2.3338
     2.3776   2.4168   2.4642   3.0540   3.5229   3.8812   4.4208   4.9354
     5.2110   6.1347   7.8110   8.2646   8.9033  10.3191  10.7151  10.9791
    11.1973  11.5063  11.5712  12.2257

          k = 0.2147-0.2899-0.1036 (  5850 PWs)   bands (ev):

[...]
    10.2846  10.5004  10.6702  11.1918

          k = 0.3635 0.1258 0.1006 (  6840 PWs)   bands (ev):

   -12.9591 -12.7928 -12.6402 -11.4815 -11.3260 -11.1909 -10.0386  -9.8972
    -9.7750  -8.6581  -8.5320  -8.4233  -5.8860  -5.7929  -5.7139  -4.6178
    -4.5307  -4.4624  -3.2474  -3.1680  -3.1618  -3.1026  -3.0898  -3.0411
    -2.0758  -2.0243  -2.0071  -1.9659  -1.2685  -0.4650  -0.3370   0.0079
     0.0372   0.0536   0.0799   0.0919   0.1030   0.1365   0.6114   1.2302
     1.3157   1.3510   1.3694   1.6550   1.7966   2.4506   3.1156   3.1955
     3.7629   4.3861   7.3295   7.7465   8.1940   8.8665   9.2831   9.7380
    10.3384  10.9038  11.3374  11.4686

          k = 0.3590 0.1244-0.0838 (  6857 PWs)   bands (ev):

   -12.9598 -12.7910 -12.6412 -11.4806 -11.3283 -11.1896 -10.0382  -9.8982
    -9.7744  -8.6583  -8.5318  -8.4235  -5.8864  -5.7920  -5.7144  -4.6183
    -4.5295  -4.4631  -3.2482  -3.1663  -3.1608  -3.1037  -3.0922  -3.0396
    -2.0722  -2.0212  -1.9711  -1.9517  -1.4191  -0.4372  -0.2681   0.0081
     0.0372   0.0568   0.0802   0.0931   0.1030   0.2764   0.5988   0.9957
     1.3157   1.3508   1.3694   1.6713   1.8911   2.4309   3.1106   3.1963
     3.7793   4.3789   7.3268   7.7462   8.1995   8.8706   9.2752   9.7449
    10.3310  10.9029  11.3092  11.4444

     the Fermi energy is     5.8445 ev

!    total energy              =    -291.74367260 Ry
     estimated scf accuracy    <          3.4E-09 Ry
     smearing contrib. (-TS)   =      -0.00002424 Ry
     internal energy E=F+TS    =    -291.74364836 Ry

     The total energy is F=E-TS. E is the sum of the following terms:
     one-electron contribution =    -194.52110193 Ry
     hartree contribution      =     143.63340377 Ry
     xc contribution           =    -102.35280689 Ry
     ewald contribution        =    -138.50314331 Ry

     convergence has been achieved in  59 iterations

     Forces acting on atoms (cartesian axes, Ry/au):

     atom    1 type  1   force =     0.00037731    0.00017975    0.00027500
     atom    2 type  1   force =     0.00008316   -0.00004740   -0.00013514
     atom    3 type  1   force =     0.00001446    0.00010514   -0.00038968
     atom    4 type  1   force =    -0.00036413   -0.00037860    0.00003867
     atom    5 type  1   force =     0.00007376    0.00034474    0.00004104
     atom    6 type  1   force =    -0.00047121   -0.00037999   -0.00043751
     atom    7 type  1   force =     0.00011498   -0.00031442   -0.00004956
     atom    8 type  1   force =     0.00016749    0.00007052    0.00002204
     atom    9 type  1   force =     0.00039900   -0.00010479   -0.00021012
     atom   10 type  1   force =    -0.00022940    0.00005493   -0.00039376
     atom   11 type  1   force =     0.00030813    0.00047370   -0.00006737
     atom   12 type  1   force =    -0.00029929    0.00015097   -0.00037265
     atom   13 type  1   force =    -0.00027219   -0.00023411   -0.00004410
     atom   14 type  1   force =     0.00014984    0.00013371    0.00042457
     atom   15 type  1   force =    -0.00031826   -0.00013823   -0.00045448
     atom   16 type  1   force =    -0.00048867   -0.00001840   -0.00005328
     atom   17 type  1   force =     0.00093825    0.00043917    0.00053594
     atom   18 type  1   force =    -0.00011628   -0.00014234   -0.00037109
     atom   19 type  1   force =    -0.00002183    0.00009185   -0.00001374
     atom   20 type  1   force =    -0.00001648   -0.00022268    0.00009148
     atom   21 type  1   force =    -0.00014580   -0.00030711   -0.00027338
     atom   22 type  1   force =    -0.00074995   -0.00029736    0.00022707
     atom   23 type  1   force =     0.00100916    0.00027254   -0.00000591
     atom   24 type  1   force =    -0.00017883    0.00032079   -0.00001096
     atom   25 type  2   force =     0.00001328    0.00061162    0.00004077
     atom   26 type  2   force =     0.00089205   -0.00085401    0.00008517
     atom   27 type  2   force =     0.00004246   -0.00048038    0.00095160
     atom   28 type  2   force =    -0.00091102    0.00067040    0.00054938
     The non-local contrib.  to forces
     atom    1 type  1   force =    -0.00012551    0.00061393    0.00185454
     atom    2 type  1   force =     0.00256671   -0.00046327   -0.00483664
     atom    3 type  1   force =     0.00161898   -0.00074624    0.00653188
     atom    4 type  1   force =     0.00099643   -0.00055274    0.00114545
     atom    5 type  1   force =     0.00256337    0.00265127    0.00517874
     atom    6 type  1   force =     0.00184422    0.00103421    0.00402759
     atom    7 type  1   force =    -0.00087278    0.00025398    0.00140122
     atom    8 type  1   force =    -0.00125237    0.00437580    0.00265495
     atom    9 type  1   force =    -0.00074324    0.00344019   -0.00297877
     atom   10 type  1   force =     0.00080332   -0.00002416    0.00072284
     atom   11 type  1   force =    -0.00415930   -0.00010367   -0.00350280
     atom   12 type  1   force =    -0.00345604    0.00015503   -0.00802726
     atom   13 type  1   force =    -0.00172233   -0.00018766    0.00144024
     atom   14 type  1   force =    -0.00217093   -0.00052010   -0.00799147
     atom   15 type  1   force =    -0.00371769   -0.00084577    0.00143296
     atom   16 type  1   force =     0.00071588    0.00003360    0.00102983
     atom   17 type  1   force =     0.00200467    0.00115673   -0.00599760
     atom   18 type  1   force =     0.00090955    0.00085423    0.00162818
     atom   19 type  1   force =    -0.00058421    0.00010675    0.00143375
     atom   20 type  1   force =     0.00416790   -0.00398048    0.00306231
     atom   21 type  1   force =     0.00342286   -0.00391979   -0.00429456
     atom   22 type  1   force =     0.00004615   -0.00058460    0.00124944
     atom   23 type  1   force =    -0.00192513   -0.00226777   -0.00165055
     atom   24 type  1   force =    -0.00103098   -0.00032236    0.00356107
     atom   25 type  2   force =    -0.03921276    0.04913433    0.00355386
     atom   26 type  2   force =     0.03939844   -0.04962195   -0.00367101
     atom   27 type  2   force =     0.06070182   -0.01679226   -0.00000708
     atom   28 type  2   force =    -0.06122792    0.01659039    0.00018425
     The ionic contribution  to forces
     atom    1 type  1   force =    -0.02158181   -0.00365519   -0.88579179
     atom    2 type  1   force =     0.22731267    0.09984150    5.87909454
     atom    3 type  1   force =    -0.07614580   -0.00393612   -5.02688831
     atom    4 type  1   force =    -0.01311574   -0.01003090   -0.89490872
     atom    5 type  1   force =     0.19880503    0.07469951    6.17986753
     atom    6 type  1   force =    -0.07848909   -0.08573397   -5.08013456
     atom    7 type  1   force =    -0.02805398   -0.00221853   -0.88654763
     atom    8 type  1   force =     0.07600030    0.14643763    6.04622220
     atom    9 type  1   force =    -0.17581581    0.07087343   -5.22975242
     atom   10 type  1   force =    -0.02170711   -0.00889950   -0.89198513
     atom   11 type  1   force =     0.09345445    0.08816837    5.93827804
     atom   12 type  1   force =    -0.17629029   -0.07729602   -5.33535734
     atom   13 type  1   force =    -0.03112539   -0.00895426   -0.89123068
     atom   14 type  1   force =     0.10063852    0.00641268    5.82721605
     atom   15 type  1   force =    -0.19605945   -0.08932236   -5.05447104
     atom   16 type  1   force =    -0.01757901   -0.00121281   -0.89480641
     atom   17 type  1   force =     0.13001283    0.04142446    5.80156659
     atom   18 type  1   force =    -0.12913761    0.03490786   -5.10243459
     atom   19 type  1   force =    -0.02264682   -0.01066541   -0.88656370
     atom   20 type  1   force =     0.19380251   -0.07619822    6.02583678
     atom   21 type  1   force =    -0.05370684   -0.14369234   -5.20272800
     atom   22 type  1   force =    -0.02203207   -0.00870213   -0.89956046
     atom   23 type  1   force =     0.15344004   -0.01904998    5.90668698
     atom   24 type  1   force =    -0.12094222   -0.01855846   -4.99368269
     atom   25 type  2   force =     0.56934001   -0.67330439    0.27687276
     atom   26 type  2   force =    -0.53180796    0.73706651    0.28488134
     atom   27 type  2   force =    -0.84785000    0.22367626    0.01170210
     atom   28 type  2   force =     0.82128063   -0.28207763   -0.02138144
     The local contribution  to forces
     atom    1 type  1   force =     0.02206413    0.00324648    0.88431210
     atom    2 type  1   force =    -0.22975979   -0.09946822   -5.87462426
     atom    3 type  1   force =     0.07454834    0.00473482    5.02021112
     atom    4 type  1   force =     0.01181280    0.01018155    0.89382268
     atom    5 type  1   force =    -0.20119260   -0.07691071   -6.18466935
     atom    6 type  1   force =     0.07623090    0.08438427    5.07577379
     atom    7 type  1   force =     0.02899995    0.00165481    0.88519312
     atom    8 type  1   force =    -0.07457444   -0.15061069   -6.04867293
     atom    9 type  1   force =     0.17689430   -0.07434982    5.23228873
     atom   10 type  1   force =     0.02073345    0.00898296    0.89090043
     atom   11 type  1   force =    -0.08911942   -0.08761695   -5.93485897
     atom   12 type  1   force =     0.17931337    0.07728779    5.34265189
     atom   13 type  1   force =     0.03250345    0.00890637    0.88984653
     atom   14 type  1   force =    -0.09832925   -0.00576918   -5.81916769
     atom   15 type  1   force =     0.19943202    0.09002658    5.05269311
     atom   16 type  1   force =     0.01641873    0.00116422    0.89374535
     atom   17 type  1   force =    -0.13112113   -0.04213653   -5.79528250
     atom   18 type  1   force =     0.12815020   -0.03587507    5.10043480
     atom   19 type  1   force =     0.02316989    0.01066188    0.88521137
     atom   20 type  1   force =    -0.19783053    0.07984926   -6.02865288
     atom   21 type  1   force =     0.05022395    0.14716003    5.20650094
     atom   22 type  1   force =     0.02125973    0.00896889    0.89855284
     atom   23 type  1   force =    -0.15061139    0.02154739   -5.90506355
     atom   24 type  1   force =     0.12181745    0.01923429    4.99027359
     atom   25 type  2   force =    -0.53011590    0.62478367   -0.28038941
     atom   26 type  2   force =     0.49330267   -0.68830054   -0.28112888
     atom   27 type  2   force =     0.78719337   -0.20736486   -0.01074672
     atom   28 type  2   force =    -0.76096572    0.26615853    0.02174334
     The core correction contribution to forces
     atom    1 type  1   force =     0.00002125   -0.00002537   -0.00006867
     atom    2 type  1   force =    -0.00003699    0.00004205    0.00021733
     atom    3 type  1   force =    -0.00000747    0.00005239   -0.00024958
     atom    4 type  1   force =    -0.00005719    0.00002382    0.00001037
     atom    5 type  1   force =    -0.00010196   -0.00009532   -0.00035126
     atom    6 type  1   force =    -0.00005724   -0.00006511   -0.00010940
     atom    7 type  1   force =     0.00004257   -0.00000484   -0.00006496
     atom    8 type  1   force =    -0.00000589   -0.00013192   -0.00019648
     atom    9 type  1   force =     0.00006380   -0.00006887    0.00022741
     atom   10 type  1   force =    -0.00005777   -0.00000388   -0.00000061
     atom   11 type  1   force =     0.00013146    0.00002609    0.00000200
     atom   12 type  1   force =     0.00013348    0.00000432    0.00035641
     atom   13 type  1   force =     0.00007305    0.00000196   -0.00006869
     atom   14 type  1   force =     0.00001059    0.00000996    0.00035350
     atom   15 type  1   force =     0.00002676    0.00000335   -0.00011427
     atom   16 type  1   force =    -0.00004352   -0.00000371    0.00000914
     atom   17 type  1   force =     0.00004135   -0.00000553    0.00023567
     atom   18 type  1   force =    -0.00003905   -0.00002922   -0.00000451
     atom   19 type  1   force =     0.00003990   -0.00001091   -0.00006390
     atom   20 type  1   force =    -0.00015590    0.00010681   -0.00016919
     atom   21 type  1   force =    -0.00008576    0.00014515    0.00024331
     atom   22 type  1   force =    -0.00002277    0.00002072    0.00001647
     atom   23 type  1   force =     0.00010533    0.00004227    0.00000659
     atom   24 type  1   force =    -0.00002246   -0.00003253   -0.00016903
     atom   25 type  2   force =     0.00000000    0.00000000    0.00000000
     atom   26 type  2   force =     0.00000000    0.00000000    0.00000000
     atom   27 type  2   force =     0.00000000    0.00000000    0.00000000
     atom   28 type  2   force =     0.00000000    0.00000000    0.00000000
     The Hubbard contrib.    to forces
     atom    1 type  1   force =     0.00000000    0.00000000    0.00000000
     atom    2 type  1   force =     0.00000000    0.00000000    0.00000000
     atom    3 type  1   force =     0.00000000    0.00000000    0.00000000
     atom    4 type  1   force =     0.00000000    0.00000000    0.00000000
     atom    5 type  1   force =     0.00000000    0.00000000    0.00000000
     atom    6 type  1   force =     0.00000000    0.00000000    0.00000000
     atom    7 type  1   force =     0.00000000    0.00000000    0.00000000
     atom    8 type  1   force =     0.00000000    0.00000000    0.00000000
     atom    9 type  1   force =     0.00000000    0.00000000    0.00000000
     atom   10 type  1   force =     0.00000000    0.00000000    0.00000000
     atom   11 type  1   force =     0.00000000    0.00000000    0.00000000
     atom   12 type  1   force =     0.00000000    0.00000000    0.00000000
     atom   13 type  1   force =     0.00000000    0.00000000    0.00000000
     atom   14 type  1   force =     0.00000000    0.00000000    0.00000000
     atom   15 type  1   force =     0.00000000    0.00000000    0.00000000
     atom   16 type  1   force =     0.00000000    0.00000000    0.00000000
     atom   17 type  1   force =     0.00000000    0.00000000    0.00000000
     atom   18 type  1   force =     0.00000000    0.00000000    0.00000000
     atom   19 type  1   force =     0.00000000    0.00000000    0.00000000
     atom   20 type  1   force =     0.00000000    0.00000000    0.00000000
     atom   21 type  1   force =     0.00000000    0.00000000    0.00000000
     atom   22 type  1   force =     0.00000000    0.00000000    0.00000000
     atom   23 type  1   force =     0.00000000    0.00000000    0.00000000
     atom   24 type  1   force =     0.00000000    0.00000000    0.00000000
     atom   25 type  2   force =     0.00000000    0.00000000    0.00000000
     atom   26 type  2   force =     0.00000000    0.00000000    0.00000000
     atom   27 type  2   force =     0.00000000    0.00000000    0.00000000
     atom   28 type  2   force =     0.00000000    0.00000000    0.00000000
     The SCF correction term to forces
     atom    1 type  1   force =    -0.00000069   -0.00000012   -0.00003088
     atom    2 type  1   force =     0.00000061    0.00000049    0.00001419
     atom    3 type  1   force =     0.00000046    0.00000027    0.00000551
     atom    4 type  1   force =    -0.00000039   -0.00000035   -0.00003080
     atom    5 type  1   force =    -0.00000003   -0.00000004    0.00001569
     atom    6 type  1   force =     0.00000006    0.00000058    0.00000538
     atom    7 type  1   force =    -0.00000072    0.00000012   -0.00003100
     atom    8 type  1   force =    -0.00000007   -0.00000033    0.00001460
     atom    9 type  1   force =     0.00000000    0.00000024    0.00000524
     atom   10 type  1   force =    -0.00000123   -0.00000052   -0.00003098
     atom   11 type  1   force =     0.00000099   -0.00000017    0.00001467
     atom   12 type  1   force =     0.00000025   -0.00000019    0.00000396
     atom   13 type  1   force =    -0.00000093   -0.00000055   -0.00003120
     atom   14 type  1   force =     0.00000096    0.00000031    0.00001449
     atom   15 type  1   force =     0.00000015   -0.00000005    0.00000508
     atom   16 type  1   force =    -0.00000071    0.00000027   -0.00003089
     atom   17 type  1   force =     0.00000057    0.00000002    0.00001409
     atom   18 type  1   force =     0.00000067   -0.00000017    0.00000533
     atom   19 type  1   force =    -0.00000055   -0.00000049   -0.00003096
     atom   20 type  1   force =    -0.00000040   -0.00000008    0.00001477
     atom   21 type  1   force =     0.00000005   -0.00000018    0.00000523
     atom   22 type  1   force =    -0.00000094   -0.00000028   -0.00003092
     atom   23 type  1   force =     0.00000038    0.00000060    0.00001492
     atom   24 type  1   force =    -0.00000057   -0.00000017    0.00000641
     atom   25 type  2   force =     0.00000198   -0.00000202    0.00000387
     atom   26 type  2   force =    -0.00000104    0.00000194    0.00000402
     atom   27 type  2   force =    -0.00000268    0.00000045    0.00000360
     atom   28 type  2   force =     0.00000205   -0.00000091    0.00000353

     Total force =     0.003438     Total SCF correction =     0.000099


     Computing stress (Cartesian axis) and pressure

          total   stress  (Ry/bohr**3)                   (kbar)     P=       13.21
   0.00003281   0.00000330  -0.00002344            4.83        0.49       -3.45
   0.00000330   0.00003010  -0.00000880            0.49        4.43       -1.29
  -0.00002344  -0.00000880   0.00020651           -3.45       -1.29       30.38


     Writing all to output data dir ../../results/server/2h2_abs/2H2abs_C.save/
 
     init_run     :      1.13s CPU      1.32s WALL (       2 calls)
     electrons    :    446.85s CPU    475.44s WALL (      31 calls)
     update_pot   :      6.46s CPU      6.80s WALL (      29 calls)
     forces       :      6.17s CPU      7.49s WALL (      31 calls)
     stress       :     54.91s CPU     56.73s WALL (      31 calls)

     Called by init_run:
     wfcinit      :      0.60s CPU      0.67s WALL (       2 calls)
     potinit      :      0.21s CPU      0.23s WALL (       2 calls)
     hinit0       :      0.24s CPU      0.29s WALL (       2 calls)

     Called by electrons:
     c_bands      :    382.78s CPU    401.39s WALL (     676 calls)
     sum_band     :     51.29s CPU     54.95s WALL (     676 calls)
     v_of_rho     :      0.96s CPU      1.43s WALL (     701 calls)
     newd         :      3.09s CPU      3.77s WALL (     701 calls)
     mix_rho      :      5.30s CPU      7.56s WALL (     676 calls)

     Called by c_bands:
     init_us_2    :      3.02s CPU      3.72s WALL (   16992 calls)
     init_us_2:cp :      2.97s CPU      3.66s WALL (   16992 calls)
     cegterg      :    347.57s CPU    362.62s WALL (    8112 calls)

     Called by *egterg:
     cdiaghg      :    104.55s CPU    108.80s WALL (   29456 calls)
     h_psi        :    201.74s CPU    210.90s WALL (   29900 calls)
     s_psi        :      8.87s CPU      9.13s WALL (   29900 calls)
     g_psi        :      0.65s CPU      0.67s WALL (   21764 calls)

     Called by h_psi:
     h_psi:calbec :     14.62s CPU     15.55s WALL (   29900 calls)
     vloc_psi     :    176.54s CPU    184.29s WALL (   29900 calls)
     add_vuspsi   :      9.57s CPU      9.98s WALL (   29900 calls)

     General routines
     calbec       :     23.53s CPU     25.13s WALL (   39872 calls)
     fft          :      2.03s CPU      2.72s WALL (    4427 calls)
     ffts         :      2.71s CPU      3.42s WALL (   17736 calls)
     fftw         :    183.66s CPU    191.78s WALL ( 2984188 calls)
     interpolate  :      0.31s CPU      0.54s WALL (     701 calls)
 
     Parallel routines
 
     PWSCF        :   8m36.75s CPU   9m11.05s WALL

 
   This run was terminated on:  19:37:49   2Sep2024            

=------------------------------------------------------------------------------=
   JOB DONE.
=------------------------------------------------------------------------------=
