
     Program PWSCF v.7.3.1 starts on  5Aug2024 at 22:54:24 

     This program is part of the open-source Quantum ESPRESSO suite
     for quantum simulation of materials; please cite
         "P. Giannozzi et al., J. Phys.:Condens. Matter 21 395502 (2009);
         "P. Giannozzi et al., J. Phys.:Condens. Matter 29 465901 (2017);
         "P. Giannozzi et al., J. Chem. Phys. 152 154105 (2020);
          URL http://www.quantum-espresso.org", 
     in publications or presentations arising from this work. More details at
     http://www.quantum-espresso.org/quote

     Parallel version (MPI & OpenMP), running on       4 processor cores
     Number of MPI processes:                 2
     Threads/MPI process:                     2

     MPI processes distributed on     1 nodes
     2320 MiB available memory on the printing compute node when the environment starts

     Reading input from hydrogen_absorption.in

     Current dimensions of program PWSCF are:
     Max number of different atomic species (ntypx) = 10
     Max number of k-points (npk) =  40000
     Max angular momentum in pseudopotentials (lmaxx) =  4

     File ../results/h2_abs/H2abs_C.update deleted, as requested

     File ../results/h2_abs/H2abs_C.bfgs deleted, as requested

     IMPORTANT: XC functional enforced from input :
     Exchange-correlation= LDA
                           (   1   1   0   0   0   0   0)
     Any further DFT definition will be discarded
     Please, verify this is what you really want


     R & G space division:  proc/nbgrp/npool/nimage =       2
     Subspace diagonalization in iterative solution of the eigenvalue problem:
     a serial algorithm will be used


     Parallelization info
     --------------------
     sticks:   dense  smooth     PW     G-vecs:    dense   smooth      PW
     Min         882     351    111                59496    14997    2641
     Max         883     352    112                59501    15000    2644
     Sum        1765     703    223               118997    29997    5285

     Using Slab Decomposition


     Title: 
     H2_absorption_C                                                            


     bravais-lattice index     =            4
     lattice parameter (alat)  =       8.0000  a.u.
     unit-cell volume          =     880.6989 (a.u.)^3
     number of atoms/cell      =           26
     number of atomic types    =            2
     number of electrons       =        98.00
     number of Kohn-Sham states=           59
     kinetic-energy cutoff     =      40.0000  Ry
     charge density cutoff     =     400.0000  Ry
     scf convergence threshold =      1.0E-06
     mixing beta               =       0.1000
     number of iterations used =            8  local-TF  mixing
     energy convergence thresh.=      1.0E-04
     force convergence thresh. =      1.0E-03
     press convergence thresh. =      5.0E-01
     Exchange-correlation= LDA
                           (   1   1   0   0   0   0   0)
     nstep                     =           50


     celldm(1)=   8.000004  celldm(2)=   0.000000  celldm(3)=   1.986214
     celldm(4)=   0.000000  celldm(5)=   0.000000  celldm(6)=   0.000000

     crystal axes: (cart. coord. in units of alat)
               a(1) = (   1.000000   0.000000   0.000000 )  
               a(2) = (  -0.500000   0.866025   0.000000 )  
               a(3) = (   0.000000   0.000000   1.986214 )  

     reciprocal axes: (cart. coord. in units 2 pi/alat)
               b(1) = (  1.000000  0.577350 -0.000000 )  
               b(2) = (  0.000000  1.154701  0.000000 )  
               b(3) = (  0.000000 -0.000000  0.503470 )  


     PseudoPot. # 1 for C  read from file:
     /home/edoardocabiati/.burai/.pseudopot/C.pz-n-rrkjus_psl.0.1.UPF
     MD5 check sum: a3cecbabebb5b3a1aff122f23eb09bb0
     Pseudo is Ultrasoft + core correction, Zval =  4.0
     Generated using "atomic" code by A. Dal Corso  v.5.0.2 svn rev. 9415
     Using radial grid of 1073 points,  4 beta functions with: 
                l(1) =   0
                l(2) =   0
                l(3) =   1
                l(4) =   1
     Q(r) pseudized with 0 coefficients 


     PseudoPot. # 2 for H  read from file:
     /home/edoardocabiati/.burai/.pseudopot/H.pz-rrkjus_psl.0.1.UPF
     MD5 check sum: 1467ebfaa2880178e80d097b970df8c7
     Pseudo is Ultrasoft, Zval =  1.0
     Generated using "atomic" code by A. Dal Corso  v.5.0.2 svn rev. 9415
     Using radial grid of  929 points,  2 beta functions with: 
                l(1) =   0
                l(2) =   0
     Q(r) pseudized with 0 coefficients 


     atomic species   valence    mass     pseudopotential
     C                 4.00    12.01100     C ( 1.00)
     H                 1.00     1.00784     H ( 1.00)

     No symmetry found



   Cartesian axes

     site n.     atom                  positions (alat units)
         1        C      tau(   1) = (   0.0000000   0.0000000   0.3310344  )
         2        C      tau(   2) = (   0.0000000   0.0000000   0.9931072  )
         3        C      tau(   3) = (   0.0000000   0.0000000   1.6551781  )
         4        C      tau(   4) = (  -0.0000005   0.2886748   0.3310344  )
         5        C      tau(   5) = (   0.2500000   0.1443370   0.9931072  )
         6        C      tau(   6) = (  -0.0000005   0.2886748   1.6551781  )
         7        C      tau(   7) = (   0.5000000   0.0000000   0.3310344  )
         8        C      tau(   8) = (   0.5000000   0.0000000   0.9931072  )
         9        C      tau(   9) = (   0.5000000   0.0000000   1.6551781  )
        10        C      tau(  10) = (   0.4999995   0.2886748   0.3310344  )
        11        C      tau(  11) = (   0.7500000   0.1443370   0.9931072  )
        12        C      tau(  12) = (   0.4999995   0.2886748   1.6551781  )
        13        C      tau(  13) = (  -0.2500000   0.4330127   0.3310344  )
        14        C      tau(  14) = (  -0.2500000   0.4330127   0.9931072  )
        15        C      tau(  15) = (  -0.2500000   0.4330127   1.6551781  )
        16        C      tau(  16) = (  -0.2500005   0.7216875   0.3310344  )
        17        C      tau(  17) = (   0.0000000   0.5773497   0.9931072  )
        18        C      tau(  18) = (  -0.2500005   0.7216875   1.6551781  )
        19        C      tau(  19) = (   0.2500000   0.4330127   0.3310344  )
        20        C      tau(  20) = (   0.2500000   0.4330127   0.9931072  )
        21        C      tau(  21) = (   0.2500000   0.4330127   1.6551781  )
        22        C      tau(  22) = (   0.2499995   0.7216875   0.3310344  )
        23        C      tau(  23) = (   0.5000000   0.5773497   0.9931072  )
        24        C      tau(  24) = (   0.2499995   0.7216875   1.6551781  )
        25        H      tau(  25) = (   0.3050000   0.6495191   1.2314530  )
        26        H      tau(  26) = (   0.2300000   0.7794229   1.2314530  )

     number of k points=    27  Gaussian smearing, width (Ry)=  0.0100
                       cart. coord. in units 2pi/alat
        k(    1) = (   0.1666667   0.2886751   0.1258676), wk =   0.0740741
        k(    2) = (   0.1666667  -0.4811252   0.1258676), wk =   0.0740741
        k(    3) = (   0.1666667  -0.0962250   0.1258676), wk =   0.0740741
        k(    4) = (  -0.5000000  -0.8660254   0.1258676), wk =   0.0740741
        k(    5) = (  -0.1666667  -0.2886751   0.1258676), wk =   0.0740741
        k(    6) = (  -0.1666667   0.2886751  -0.1258676), wk =   0.0740741
        k(    7) = (   0.1666667  -0.2886751  -0.1258676), wk =   0.0740741
        k(    8) = (   0.3333333   0.0000000   0.1258676), wk =   0.0740741
        k(    9) = (  -0.3333333  -0.0000000   0.1258676), wk =   0.0740741
        k(   10) = (  -0.1666667   0.4811252   0.1258676), wk =   0.0740741
        k(   11) = (  -0.1666667  -0.4811252  -0.1258676), wk =   0.0740741
        k(   12) = (   0.1666667   0.4811252  -0.1258676), wk =   0.0740741
        k(   13) = (   0.5000000  -0.0962250   0.1258676), wk =   0.0740741
        k(   14) = (  -0.3333333  -0.3849002   0.1258676), wk =   0.0740741
        k(   15) = (   0.3333333   0.3849002   0.1258676), wk =   0.0740741
        k(   16) = (  -0.5000000   0.0962250   0.1258676), wk =   0.0740741
        k(   17) = (   0.5000000   0.0962250  -0.1258676), wk =   0.0740741
        k(   18) = (  -0.3333333   0.3849002  -0.1258676), wk =   0.0740741
        k(   19) = (   0.3333333  -0.3849002  -0.1258676), wk =   0.0740741
        k(   20) = (  -0.5000000  -0.0962250  -0.1258676), wk =   0.0740741
        k(   21) = (  -0.1666667   0.0962250   0.1258676), wk =   0.0740741
        k(   22) = (  -0.1666667  -0.0962250  -0.1258676), wk =   0.0740741
        k(   23) = (   0.1666667   0.0962250  -0.1258676), wk =   0.0740741
        k(   24) = (  -0.0000000  -0.1924501   0.1258676), wk =   0.0740741
        k(   25) = (   0.0000000   0.1924501   0.1258676), wk =   0.0740741
        k(   26) = (   0.5000000  -0.8660254  -0.1258676), wk =   0.0740741
        k(   27) = (  -1.0000000   0.0000000   0.1258676), wk =   0.0740741

     Dense  grid:   118997 G-vectors     FFT dimensions: (  54,  54, 108)

     Smooth grid:    29997 G-vectors     FFT dimensions: (  36,  36,  64)

     Estimated max dynamical RAM per process >     194.96 MB

     Estimated total dynamical RAM >     389.92 MB

     Check: negative core charge=   -0.000003

     Initial potential from superposition of free atoms

     starting charge      97.9991, renormalised to      98.0000
     Starting wfcs are   98 randomized atomic wfcs

     total cpu time spent up to now is       21.0 secs

     Self-consistent Calculation

     iteration #  1     ecut=    40.00 Ry     beta= 0.10
     Davidson diagonalization with overlap
     ethr =  1.00E-02,  avg # of iterations =  5.7

     total cpu time spent up to now is       70.0 secs

     total energy              =    -288.24919485 Ry
     estimated scf accuracy    <       5.62027318 Ry

     iteration #  2     ecut=    40.00 Ry     beta= 0.10
     Davidson diagonalization with overlap
     ethr =  5.73E-03,  avg # of iterations =  1.0

     total cpu time spent up to now is       92.9 secs

     total energy              =    -284.72425428 Ry
     estimated scf accuracy    <       5.17785519 Ry

     iteration #  3     ecut=    40.00 Ry     beta= 0.10
     Davidson diagonalization with overlap
     ethr =  5.28E-03,  avg # of iterations =  3.7

     total cpu time spent up to now is      123.9 secs

     total energy              =    -285.54909206 Ry
     estimated scf accuracy    <       0.23954630 Ry

     iteration #  4     ecut=    40.00 Ry     beta= 0.10
     Davidson diagonalization with overlap
     ethr =  2.44E-04,  avg # of iterations =  8.8

     total cpu time spent up to now is      168.3 secs

     total energy              =    -285.70105580 Ry
     estimated scf accuracy    <       0.06291692 Ry

     iteration #  5     ecut=    40.00 Ry     beta= 0.10
     Davidson diagonalization with overlap
     ethr =  6.42E-05,  avg # of iterations =  5.0

     total cpu time spent up to now is      208.7 secs

     total energy              =    -285.59393088 Ry
     estimated scf accuracy    <       0.19298783 Ry

     iteration #  6     ecut=    40.00 Ry     beta= 0.10
     Davidson diagonalization with overlap
     ethr =  6.42E-05,  avg # of iterations =  5.0

     total cpu time spent up to now is      251.1 secs

     total energy              =    -285.62851963 Ry
     estimated scf accuracy    <       0.01085418 Ry

     iteration #  7     ecut=    40.00 Ry     beta= 0.10
     Davidson diagonalization with overlap
     ethr =  1.11E-05,  avg # of iterations =  4.3

     total cpu time spent up to now is      283.4 secs

     total energy              =    -285.63043151 Ry
     estimated scf accuracy    <       0.00100690 Ry

     iteration #  8     ecut=    40.00 Ry     beta= 0.10
     Davidson diagonalization with overlap
     ethr =  1.03E-06,  avg # of iterations =  6.1

     total cpu time spent up to now is      325.5 secs

     total energy              =    -285.63049296 Ry
     estimated scf accuracy    <       0.00099938 Ry

     iteration #  9     ecut=    40.00 Ry     beta= 0.10
     Davidson diagonalization with overlap
     ethr =  1.02E-06,  avg # of iterations =  2.0

     total cpu time spent up to now is      350.6 secs

     total energy              =    -285.63052130 Ry
     estimated scf accuracy    <       0.00025528 Ry

     iteration # 10     ecut=    40.00 Ry     beta= 0.10
     Davidson diagonalization with overlap
     ethr =  2.60E-07,  avg # of iterations =  3.9

     total cpu time spent up to now is      380.0 secs

     total energy              =    -285.63050585 Ry
     estimated scf accuracy    <       0.00015246 Ry

     iteration # 11     ecut=    40.00 Ry     beta= 0.10
     Davidson diagonalization with overlap
     ethr =  1.56E-07,  avg # of iterations =  3.6

     total cpu time spent up to now is      422.3 secs

     total energy              =    -285.63052030 Ry
     estimated scf accuracy    <       0.00010479 Ry

     iteration # 12     ecut=    40.00 Ry     beta= 0.10
     Davidson diagonalization with overlap
     ethr =  1.07E-07,  avg # of iterations =  2.0

     total cpu time spent up to now is      446.8 secs

     total energy              =    -285.63053775 Ry
     estimated scf accuracy    <       0.00002555 Ry

     iteration # 13     ecut=    40.00 Ry     beta= 0.10
     Davidson diagonalization with overlap
     ethr =  2.61E-08,  avg # of iterations =  5.0

     total cpu time spent up to now is      488.8 secs

     total energy              =    -285.63051848 Ry
     estimated scf accuracy    <       0.00007099 Ry

     iteration # 14     ecut=    40.00 Ry     beta= 0.10
     Davidson diagonalization with overlap
     ethr =  2.61E-08,  avg # of iterations =  4.0

     total cpu time spent up to now is      523.9 secs

     total energy              =    -285.63052557 Ry
     estimated scf accuracy    <       0.00000407 Ry

     iteration # 15     ecut=    40.00 Ry     beta= 0.10
     Davidson diagonalization with overlap
     ethr =  4.15E-09,  avg # of iterations =  4.0

     total cpu time spent up to now is      560.5 secs

     total energy              =    -285.63052988 Ry
     estimated scf accuracy    <       0.00000212 Ry

     iteration # 16     ecut=    40.00 Ry     beta= 0.10
     Davidson diagonalization with overlap
     ethr =  2.16E-09,  avg # of iterations =  3.3

     total cpu time spent up to now is      596.5 secs

     total energy              =    -285.63052529 Ry
     estimated scf accuracy    <       0.00000697 Ry

     iteration # 17     ecut=    40.00 Ry     beta= 0.10
     Davidson diagonalization with overlap
     ethr =  2.16E-09,  avg # of iterations =  5.0

     total cpu time spent up to now is      635.8 secs

     End of self-consistent calculation

          k = 0.1667 0.2887 0.1259 (  3760 PWs)   bands (ev):

   -10.5093  -9.1227  -8.6546  -6.9201  -6.0535  -5.4490  -5.3977  -5.0862
    -5.0279  -3.3529  -2.4427  -2.2366  -1.9950  -1.4243  -1.0826  -0.0295
     0.8738   0.9804   1.5481   1.5736   1.7777   1.8217   2.6310   3.0884
     3.8946   4.0540   4.5549   5.0499   5.1606   5.4360   5.9606   5.9637
     6.0763   6.0885   6.2221   7.3876   7.6681   8.3780   8.8236   9.1174
     9.1659   9.2382   9.2765   9.5639   9.6350   9.6708  10.3080  11.2696
    12.6510  14.5146  15.2883  16.3025  17.2955  17.6398  18.2857  18.3573
    19.4313  19.7083  20.0234

          k = 0.1667-0.4811 0.1259 (  3775 PWs)   bands (ev):

    -9.8576  -8.3216  -8.0792  -7.8179  -7.0558  -6.7063  -6.5849  -5.8227
    -5.4447  -3.3851  -2.3500  -2.0675  -0.8952  -0.0087   0.2611   0.8644
     1.2406   1.9448   2.1565   2.3593   3.1504   3.2207   3.3674   3.5265
     4.0055   4.1119   4.2845   4.4765   4.7770   4.9231   5.1815   5.6815
     5.8563   6.1132   6.2546   6.8524   6.9621   6.9667   7.0782   7.1129
     7.3466   7.4218   8.0980   8.2125   8.8901   9.8048  11.0073  12.3312
    13.1907  14.3860  15.2099  16.3593  18.6099  19.5316  19.7971  20.6885
    20.8103  21.4775  21.8039

          k = 0.1667-0.0962 0.1259 (  3757 PWs)   bands (ev):

   -10.8797  -9.5400  -9.0601  -6.0727  -4.7002  -4.5453  -4.2840  -4.2006
    -3.5072  -3.4917  -3.2096  -3.1877  -2.0263  -1.7590  -0.9772  -0.9556
    -0.7195  -0.6449  -0.5958   0.0477   0.1665   0.4229   2.1368   4.1376
     4.5810   4.7660   5.4982   5.5034   5.5129   5.6123   5.6320   6.2828
     6.2903   6.3944   7.9643   8.2634   8.5929   9.4813   9.5815   9.6362
     9.8716   9.9364  10.3173  10.3693  10.4723  10.6331  10.7310  10.9503
    11.8282  14.6221  15.0372  15.4371  15.5637  16.3588  16.8798  17.0389
    17.3827  18.2821  19.7359

          k =-0.5000-0.8660 0.1259 (  3772 PWs)   bands (ev):

    -9.7841  -8.4956  -7.8960  -7.8294  -7.4684  -7.3963  -5.4194  -4.9836
    -4.2477  -4.2292  -3.9112  -3.8924   0.5828   1.2521   1.5558   1.6700
     2.0748   2.3173   2.3238   2.4052   2.4156   2.5403   2.5430   2.5891
     2.6158   2.9914   4.1911   4.5306   4.8850   4.9537   5.6383   5.6482
     5.7942   5.8174   6.1631   6.4787   7.1120   7.3124   7.4249   7.7008
     8.0640   8.0702   8.1480   8.1969   9.0081   9.1248  10.7133  10.7705
    13.5035  16.2269  16.4990  17.1773  17.2290  18.4330  18.5313  19.9102
    20.7553  22.6048  22.9015

          k =-0.1667-0.2887 0.1259 (  3760 PWs)   bands (ev):

   -10.5093  -9.1228  -8.6545  -6.9201  -6.0535  -5.4489  -5.3978  -5.0863
    -5.0279  -3.3529  -2.4431  -2.2358  -1.9954  -1.4248  -1.0820  -0.0300
     0.8740   0.9798   1.5478   1.5735   1.7782   1.8225   2.6323   3.0893
     3.8949   4.0538   4.5521   5.0396   5.1688   5.4392   5.9608   5.9637
     6.0761   6.0891   6.2249   7.3840   7.6549   8.3776   8.8224   9.1117
     9.1412   9.2364   9.3319   9.5640   9.6383   9.6712  10.3163  11.2464
    12.6503  14.5240  15.2923  16.2824  17.2984  17.6209  18.2792  18.3907
    19.4549  19.7048  19.9921

          k =-0.1667 0.2887-0.1259 (  3760 PWs)   bands (ev):

   -10.4976  -9.1223  -8.6543  -7.0066  -5.9672  -5.4549  -5.3874  -5.0934
    -5.0177  -3.4848  -2.3922  -2.1920  -1.9421  -1.4224  -1.0814   0.0022
     0.7862   1.0210   1.5416   1.5786   1.7716   1.8289   2.6318   3.0460
     3.8941   4.0529   4.4956   4.9804   5.2280   5.4113   5.9615   5.9638
     6.0781   6.0875   6.3275   7.3701   7.7410   8.4130   8.7689   9.1084
     9.1307   9.2363   9.4051   9.5639   9.6695   9.7062  10.2020  11.1573
    12.6436  14.5140  15.5030  16.3152  17.2728  17.5405  18.2181  18.3560
    19.3594  19.6829  19.9022

          k = 0.1667-0.2887-0.1259 (  3760 PWs)   bands (ev):

   -10.4976  -9.1225  -8.6540  -7.0066  -5.9672  -5.4549  -5.3874  -5.0934
    -5.0177  -3.4848  -2.3922  -2.1920  -1.9421  -1.4223  -1.0815   0.0015
     0.7858   1.0210   1.5425   1.5786   1.7718   1.8290   2.6405   3.0408
     3.8942   4.0525   4.4767   4.9947   5.2281   5.4146   5.9614   5.9639
     6.0781   6.0874   6.3271   7.3521   7.7422   8.4128   8.7764   9.1187
     9.1547   9.2359   9.4018   9.5639   9.6694   9.7062  10.1868  11.1524
    12.6360  14.5171  15.4987  16.3143  17.2731  17.5336  18.2408  18.3615
    19.3511  19.6782  19.8946

          k = 0.3333 0.0000 0.1259 (  3760 PWs)   bands (ev):

   -10.5095  -9.1226  -8.6548  -6.9159  -6.0575  -5.4492  -5.3978  -5.0866
    -5.0275  -3.3584  -2.4362  -2.2370  -1.9939  -1.4223  -1.0806  -0.0408
     0.8812   0.9763   1.5477   1.5736   1.7766   1.8223   2.6278   3.0940
     3.8944   4.0539   4.5718   5.0488   5.1564   5.4296   5.9599   5.9639
     6.0747   6.0877   6.2232   7.4001   7.6633   8.3769   8.8216   9.1174
     9.1536   9.2376   9.2989   9.5638   9.6570   9.6732  10.2535  11.2545
    12.6667  14.5085  15.3204  16.3088  17.2787  17.6579  18.2763  18.3431
    19.4602  19.7124  19.9919

          k =-0.3333-0.0000 0.1259 (  3760 PWs)   bands (ev):

   -10.5095  -9.1229  -8.6544  -6.9160  -6.0576  -5.4493  -5.3976  -5.0866
    -5.0276  -3.3584  -2.4366  -2.2360  -1.9944  -1.4228  -1.0802  -0.0419
     0.8810   0.9757   1.5483   1.5735   1.7776   1.8229   2.6376   3.0890
     3.8948   4.0535   4.5509   5.0541   5.1617   5.4388   5.9601   5.9639
     6.0746   6.0883   6.2235   7.3733   7.6592   8.3779   8.8249   9.1192
     9.1748   9.2376   9.3257   9.5639   9.6571   9.6762  10.2485  11.2304
    12.6562  14.5253  15.3112  16.2948  17.2761  17.6348  18.2956  18.3842
    19.4676  19.7090  19.9517

          k =-0.1667 0.4811 0.1259 (  3775 PWs)   bands (ev):

    -9.8576  -8.3214  -8.0799  -7.8173  -7.0558  -6.7064  -6.5850  -5.8226
    -5.4449  -3.3851  -2.3481  -2.0699  -0.8950  -0.0036   0.2552   0.8639
     1.2421   1.9431   2.1582   2.3594   3.1454   3.2413   3.3562   3.5277
     3.9989   4.1103   4.2854   4.4830   4.7769   4.9242   5.1720   5.6651
     5.8719   6.1151   6.2506   6.8527   6.9612   6.9705   7.0753   7.1100
     7.3534   7.4249   8.0978   8.2125   8.8983   9.7727  11.1700  12.0256
    13.3528  14.6034  14.9485  16.4073  18.6127  19.4951  19.8422  20.6992
    20.8600  21.3374  21.8200

          k =-0.1667-0.4811-0.1259 (  3775 PWs)   bands (ev):

    -9.8726  -8.3160  -8.0478  -7.8149  -7.0509  -6.7212  -6.6051  -5.8235
    -5.4454  -3.3457  -2.3480  -2.0680  -0.9562  -0.0079   0.2570   0.7642
     1.3233   1.9452   2.1584   2.4495   3.1518   3.2859   3.3541   3.5088
     3.9460   4.1148   4.2860   4.4831   4.7764   4.9219   5.2004   5.5988
     5.8920   6.0834   6.2558   6.8524   6.9619   6.9704   7.0767   7.1133
     7.3716   7.4154   8.0979   8.2124   8.8769   9.7719  11.0972  12.1843
    13.3626  14.5062  14.9254  16.3630  18.7579  19.4866  19.8702  20.7850
    20.8717  21.2727  21.8816

          k = 0.1667 0.4811-0.1259 (  3775 PWs)   bands (ev):

    -9.8726  -8.3168  -8.0460  -7.8159  -7.0523  -6.7158  -6.6092  -5.8235
    -5.4454  -3.3456  -2.3482  -2.0679  -0.9563  -0.0072   0.2559   0.7644
     1.3232   1.9456   2.1578   2.4497   3.1535   3.2662   3.3682   3.5116
     3.9525   4.1203   4.2843   4.4767   4.7762   4.9241   5.2089   5.5764
     5.9046   6.0789   6.2594   6.8526   6.9604   6.9686   7.0627   7.1102
     7.3755   7.4153   8.0980   8.2124   8.9050   9.7642  11.0659  12.2878
    13.2595  14.4092  15.0705  16.3379  18.7188  19.5799  19.8430  20.7092
    20.8291  21.4354  21.8356

          k = 0.5000-0.0962 0.1259 (  3775 PWs)   bands (ev):

    -9.8734  -8.3151  -8.0467  -7.8134  -7.0511  -6.7212  -6.6074  -5.8235
    -5.4455  -3.3482  -2.3476  -2.0690  -0.9511  -0.0048   0.2560   0.7409
     1.3398   1.9468   2.1577   2.4510   3.1518   3.2700   3.3649   3.5134
     3.9521   4.1198   4.2860   4.4827   4.7764   4.9231   5.2158   5.5714
     5.8950   6.0830   6.2553   6.8523   6.9622   6.9696   7.0748   7.1125
     7.3755   7.4150   8.0978   8.2120   8.8830   9.7778  11.1217  12.1031
    13.3248  14.6232  14.9038  16.3554  18.7664  19.4908  19.8647  20.7685
    20.8681  21.2744  21.8792

          k =-0.3333-0.3849 0.1259 (  3775 PWs)   bands (ev):

    -9.8991  -8.3150  -7.9998  -7.7982  -7.0504  -6.7439  -6.6083  -5.8241
    -5.4461  -3.3594  -2.3481  -2.0683  -0.9674  -0.0086   0.2564   0.7978
     1.2731   1.9454   2.1581   2.4287   3.1526   3.3130   3.3665   3.5589
     3.9826   4.1076   4.2851   4.4840   4.7765   4.9201   5.1593   5.6059
     5.8668   6.0821   6.2630   6.8522   6.9604   6.9704   7.0624   7.1106
     7.3813   7.4215   8.0978   8.2120   8.8582   9.7248  11.0901  12.1638
    13.3331  14.5893  14.9495  16.3713  18.8203  19.5656  19.9055  20.7561
    20.9018  21.2930  21.8366

          k = 0.3333 0.3849 0.1259 (  3775 PWs)   bands (ev):

    -9.8991  -8.3148  -8.0002  -7.7981  -7.0522  -6.7386  -6.6119  -5.8243
    -5.4460  -3.3594  -2.3483  -2.0682  -0.9675  -0.0079   0.2556   0.7979
     1.2740   1.9450   2.1584   2.4287   3.1544   3.2985   3.3656   3.5623
     3.9837   4.1234   4.2845   4.4764   4.7763   4.9240   5.1678   5.5929
     5.8775   6.0771   6.2636   6.8523   6.9602   6.9679   7.0544   7.1107
     7.3798   7.4189   8.0979   8.2121   8.8781   9.7195  11.0522  12.2646
    13.2570  14.4315  15.1547  16.3361  18.8039  19.5868  19.9114  20.7545
    20.8305  21.4188  21.7813

          k =-0.5000 0.0962 0.1259 (  3775 PWs)   bands (ev):

    -9.8734  -8.3173  -8.0418  -7.8161  -7.0517  -6.7189  -6.6091  -5.8236
    -5.4454  -3.3481  -2.3488  -2.0674  -0.9513  -0.0080   0.2594   0.7395
     1.3407   1.9449   2.1590   2.4516   3.1533   3.2822   3.3693   3.5060
     3.9492   4.1149   4.2842   4.4762   4.7763   4.9244   5.2028   5.5912
     5.9012   6.0750   6.2582   6.8525   6.9610   6.9679   7.0673   7.1109
     7.3781   7.4116   8.0979   8.2121   8.9017   9.7859  11.0290  12.3280
    13.1466  14.4847  15.0819  16.3430  18.7348  19.5732  19.8379  20.7142
    20.8270  21.4182  21.8352

          k = 0.5000 0.0962-0.1259 (  3775 PWs)   bands (ev):

    -9.8994  -8.3151  -7.9984  -7.7982  -7.0507  -6.7430  -6.6101  -5.8241
    -5.4461  -3.3603  -2.3476  -2.0693  -0.9621  -0.0051   0.2539   0.7684
     1.2964   1.9447   2.1591   2.4309   3.1520   3.3173   3.3706   3.5557
     3.9817   4.1061   4.2845   4.4840   4.7765   4.9210   5.1606   5.5887
     5.8775   6.0827   6.2626   6.8523   6.9603   6.9702   7.0585   7.1093
     7.3825   7.4240   8.0977   8.2117   8.8709   9.7247  11.1172  12.0791
    13.3647  14.5894  14.9667  16.3801  18.8154  19.5662  19.9008  20.7437
    20.9180  21.2878  21.8255

          k =-0.3333 0.3849-0.1259 (  3775 PWs)   bands (ev):

    -9.8582  -8.3203  -8.0802  -7.8160  -7.0559  -6.7071  -6.5854  -5.8226
    -5.4449  -3.3867  -2.3481  -2.0700  -0.8953  -0.0035   0.2556   0.8685
     1.2381   1.9448   2.1565   2.3577   3.1446   3.2288   3.3592   3.5357
     4.0055   4.1153   4.2858   4.4826   4.7769   4.9246   5.1803   5.6619
     5.8633   6.1145   6.2496   6.8526   6.9615   6.9701   7.0790   7.1111
     7.3532   7.4229   8.0978   8.2125   8.8910   9.7788  11.1669  12.0294
    13.2954  14.7083  14.9074  16.3938  18.6291  19.4982  19.8348  20.6912
    20.8565  21.3364  21.8278

          k = 0.3333-0.3849-0.1259 (  3775 PWs)   bands (ev):

    -9.8582  -8.3224  -8.0759  -7.8183  -7.0559  -6.7072  -6.5853  -5.8227
    -5.4448  -3.3867  -2.3500  -2.0676  -0.8955  -0.0086   0.2609   0.8671
     1.2388   1.9430   2.1582   2.3583   3.1510   3.2335   3.3626   3.5293
     4.0024   4.1089   4.2845   4.4759   4.7771   4.9234   5.1756   5.6844
     5.8607   6.1089   6.2537   6.8523   6.9615   6.9671   7.0770   7.1128
     7.3527   7.4213   8.0980   8.2126   8.8976   9.7999  11.0135  12.3383
    13.0994  14.4637  15.2116  16.3478  18.6345  19.5222  19.7889  20.6995
    20.8105  21.4599  21.7983

          k =-0.5000-0.0962-0.1259 (  3775 PWs)   bands (ev):

    -9.8994  -8.3145  -7.9996  -7.7977  -7.0515  -6.7408  -6.6114  -5.8242
    -5.4460  -3.3602  -2.3490  -2.0675  -0.9623  -0.0093   0.2597   0.7678
     1.2956   1.9465   2.1577   2.4311   3.1544   3.2947   3.3774   3.5551
     3.9791   4.1242   4.2846   4.4765   4.7762   4.9240   5.1709   5.6021
     5.8698   6.0767   6.2641   6.8524   6.9611   6.9671   7.0586   7.1113
     7.3759   7.4171   8.0977   8.2117   8.8677   9.7454  11.0094  12.2969
    13.2475  14.4068  15.1750  16.3536  18.8021  19.5754  19.9199  20.7450
    20.8196  21.4313  21.7918

          k =-0.1667 0.0962 0.1259 (  3757 PWs)   bands (ev):

   -10.8797  -9.5402  -9.0599  -6.0728  -4.6992  -4.5461  -4.2842  -4.2005
    -3.5119  -3.4901  -3.2037  -3.1894  -2.0272  -1.7588  -0.9907  -0.9545
    -0.6839  -0.6471  -0.6173   0.0473   0.1665   0.4229   2.1407   4.1261
     4.5868   4.7661   5.4981   5.5043   5.5121   5.6122   5.6322   6.2845
     6.2914   6.3944   8.0309   8.2452   8.5427   9.3302   9.5161   9.6448
     9.9003   9.9806  10.3689  10.4715  10.6228  10.6333  10.7308  10.9392
    11.6669  14.6056  14.9241  15.4632  15.5805  16.5772  16.9493  17.0338
    17.1958  18.2613  19.7376

          k =-0.1667-0.0962-0.1259 (  3757 PWs)   bands (ev):

   -10.8835  -9.5402  -9.0602  -6.0448  -4.6833  -4.5163  -4.2871  -4.2780
    -3.5078  -3.4945  -3.2002  -3.1938  -1.9581  -1.8113  -0.9883  -0.9562
    -0.6971  -0.6503  -0.6430   0.0743   0.1667   0.4252   2.1374   4.1388
     4.6369   4.7491   5.4766   5.5018   5.5052   5.6156   5.6298   6.2872
     6.3720   6.3945   7.9513   8.1182   8.5433   9.4159   9.4581   9.6308
     9.9203   9.9743  10.3691  10.4724  10.6329  10.7152  10.7302  10.9041
    11.7217  14.5885  14.9104  15.4127  15.5944  16.5417  16.9996  17.0248
    17.2045  18.2672  19.8604

          k = 0.1667 0.0962-0.1259 (  3757 PWs)   bands (ev):

   -10.8835  -9.5403  -9.0601  -6.0448  -4.6838  -4.5164  -4.2869  -4.2776
    -3.5047  -3.4958  -3.2038  -3.1923  -1.9581  -1.8113  -0.9773  -0.9577
    -0.7323  -0.6454  -0.6212   0.0579   0.1859   0.4215   2.1404   4.1324
     4.6369   4.7511   5.4770   5.5020   5.5049   5.6153   5.6298   6.2871
     6.3865   6.3970   7.9192   8.0233   8.6197   9.4143   9.6234   9.6335
     9.9207  10.0470  10.3691  10.4051  10.4748  10.6330  10.7301  10.9154
    11.8115  14.5976  15.0053  15.4070  15.5792  16.3206  16.9394  16.9905
    17.4504  18.2797  19.8233

          k =-0.0000-0.1925 0.1259 (  3757 PWs)   bands (ev):

   -10.8797  -9.5401  -9.0600  -6.0754  -4.6979  -4.5440  -4.2843  -4.1975
    -3.5109  -3.4907  -3.2038  -3.1892  -2.0488  -1.7438  -0.9902  -0.9536
    -0.6904  -0.6448  -0.6101   0.0547   0.1576   0.4235   2.1380   4.1355
     4.5798   4.7659   5.4953   5.5045   5.5108   5.6116   5.6328   6.2828
     6.2925   6.3949   8.0170   8.2662   8.5258   9.3657   9.5084   9.6434
     9.8895   9.9708  10.3689  10.4713  10.6241  10.6335  10.7310  10.9400
    11.6784  14.6138  14.9253  15.4409  15.5871  16.5842  16.9777  17.0317
    17.1483  18.2663  19.7555

          k = 0.0000 0.1925 0.1259 (  3757 PWs)   bands (ev):

   -10.8797  -9.5401  -9.0600  -6.0753  -4.6990  -4.5432  -4.2837  -4.1979
    -3.5074  -3.4913  -3.2080  -3.1886  -2.0483  -1.7439  -0.9813  -0.9541
    -0.7152  -0.6434  -0.5943   0.0456   0.1686   0.4212   2.1392   4.1300
     4.5838   4.7657   5.4980   5.5034   5.5094   5.6117   5.6327   6.2848
     6.3002   6.3949   7.8930   8.2976   8.6035   9.4708   9.5821   9.6377
     9.8964   9.9745  10.3249  10.3692  10.4720  10.6331  10.7312  10.9427
    11.7939  14.6181  15.0273  15.4445  15.5706  16.3370  16.8949  17.0269
    17.4049  18.2786  19.7299

          k = 0.5000-0.8660-0.1259 (  3772 PWs)   bands (ev):

    -9.8463  -8.4052  -7.9017  -7.8162  -7.4753  -7.3841  -5.3613  -5.0786
    -4.2448  -4.2342  -3.9075  -3.8974   0.5353   1.2765   1.4810   1.6907
     2.0958   2.3128   2.3264   2.4072   2.4169   2.5362   2.5452   2.5888
     2.6194   3.0735   4.1626   4.6052   4.8285   5.0187   5.6375   5.6484
     5.7953   5.8188   6.1775   6.5197   6.9294   7.4261   7.4370   7.5599
     8.0612   8.0718   8.1406   8.2037   9.0352   9.0612  10.7144  10.7572
    13.4527  16.4468  16.5337  17.1683  17.2942  18.4026  18.5494  20.0511
    20.7515  22.7473  22.9655

          k =-1.0000 0.0000 0.1259 (  3772 PWs)   bands (ev):

    -9.7827  -8.4983  -7.8966  -7.8292  -7.4691  -7.3957  -5.4203  -4.9794
    -4.2477  -4.2290  -3.9111  -3.8923   0.6008   1.2238   1.5534   1.6749
     2.0814   2.3172   2.3227   2.4051   2.4166   2.5417   2.5425   2.5866
     2.6181   2.9869   4.1925   4.5273   4.8904   4.9489   5.6380   5.6480
     5.7945   5.8175   6.1566   6.4779   7.1142   7.3248   7.4126   7.7033
     8.0643   8.0700   8.1487   8.1963   9.0073   9.1272  10.7144  10.7710
    13.5658  16.1206  16.5120  17.1887  17.2329  18.4355  18.5354  19.9159
    20.7559  22.6071  22.9176

     the Fermi energy is    13.9699 ev

!    total energy              =    -285.63052596 Ry
     estimated scf accuracy    <       0.00000093 Ry
     smearing contrib. (-TS)   =      -0.00000007 Ry
     internal energy E=F+TS    =    -285.63052590 Ry

     The total energy is F=E-TS. E is the sum of the following terms:
     one-electron contribution =       4.17022327 Ry
     hartree contribution      =      70.61857482 Ry
     xc contribution           =    -110.67484159 Ry
     ewald contribution        =    -249.74448240 Ry

     convergence has been achieved in  17 iterations

     Forces acting on atoms (cartesian axes, Ry/au):

     atom    1 type  1   force =    -0.00036384   -0.00029277    0.00666921
     atom    2 type  1   force =     0.08765245    0.05722420   -0.10881725
     atom    3 type  1   force =     0.01615355    0.00957842    0.02327047
     atom    4 type  1   force =    -0.00061334    0.00041669    0.00526959
     atom    5 type  1   force =    -0.01716758   -0.00526758   -0.00347339
     atom    6 type  1   force =     0.00231407   -0.00180758   -0.00685685
     atom    7 type  1   force =     0.00061735   -0.00059688    0.00642038
     atom    8 type  1   force =    -0.04792071    0.00698914   -0.06546837
     atom    9 type  1   force =    -0.01432738    0.00652554    0.01774698
     atom   10 type  1   force =     0.00076619    0.00026919    0.00552229
     atom   11 type  1   force =     0.00857805    0.06257236   -0.07168107
     atom   12 type  1   force =    -0.00202405   -0.00082170   -0.00682778
     atom   13 type  1   force =     0.00038995    0.00006169    0.00355261
     atom   14 type  1   force =     0.00544382    0.00780795   -0.01191874
     atom   15 type  1   force =     0.00016139    0.00004670   -0.00491462
     atom   16 type  1   force =     0.00018165   -0.00077305    0.00532638
     atom   17 type  1   force =    -0.06399135   -0.03269384   -0.07641459
     atom   18 type  1   force =    -0.00105243    0.00267462   -0.00689624
     atom   19 type  1   force =    -0.00015523    0.00072523    0.00664209
     atom   20 type  1   force =    -0.02591254   -0.07645824   -0.09480316
     atom   21 type  1   force =    -0.00199956   -0.01849527    0.02212203
     atom   22 type  1   force =    -0.00006288   -0.00007522    0.00967908
     atom   23 type  1   force =     0.09023927   -0.03522106   -0.10401832
     atom   24 type  1   force =    -0.00014159    0.00157949    0.00897322
     atom   25 type  2   force =     0.09890314   -0.19474875    0.22458944
     atom   26 type  2   force =    -0.13566842    0.21078070    0.21630659

     Total force =     0.544515     Total SCF correction =     0.002785


     Computing stress (Cartesian axis) and pressure

          total   stress  (Ry/bohr**3)                   (kbar)     P=     2900.97
   0.02810067  -0.00005148  -0.00008978         4133.75       -7.57      -13.21
  -0.00005148   0.02818166   0.00003098           -7.57     4145.67        4.56
  -0.00008978   0.00003098   0.00287888          -13.21        4.56      423.50


     BFGS Geometry Optimization
     Energy error            =      0.0E+00 Ry
     Gradient error          =      2.2E-01 Ry/Bohr
     Cell gradient error     =      4.1E+03 kbar

     number of scf cycles    =   1
     number of bfgs steps    =   0

     enthalpy           new  =    -285.6305259639 Ry

     new trust radius        =       0.5000000000 bohr
     new conv_thr            =       0.0000010000 Ry

     new unit-cell volume =   1044.00780 a.u.^3 (   154.70599 Ang^3 )
     density =      3.11572 g/cm^3

CELL_PARAMETERS (alat=  8.00000437)
   1.083999256  -0.000153882  -0.000268370
  -0.542132893   0.939057491   0.000214381
  -0.000533041   0.000183928   2.003307095

ATOMIC_POSITIONS (crystal)
C               -0.0000079643       -0.0000050526        0.1667161853
C                0.0018038602        0.0009875921        0.4991811580
C                0.0003240865        0.0001653073        0.8335081086
C                0.1666604286        0.3333401914        0.1667056533
C                0.3330309565        0.1665750905        0.4999738630
C                0.1666849885        0.3333018042        0.8332814027
C                0.5000040764       -0.0000103012        0.1667143129
C                0.4993440817        0.0001206207        0.4995073552
C                0.4998421712        0.0001126198        0.8334665448
C                0.6666797745        0.3333376458        0.1667075549
C                0.8340011548        0.1677458922        0.4994606051
C                0.6666286577        0.3333188188        0.8332816214
C                0.0000063606        0.5000010647        0.1666927331
C                0.0001487400        0.5001347519        0.4999103123
C                0.0000028152        0.5000008060        0.8332960178
C                0.1666620442        0.8333196585        0.1667060806
C                0.3320944576        0.6661017601        0.4994249857
C                0.1666733499        0.8333791594        0.8332811063
C                0.5000039381        0.5000125163        0.1667159812
C                0.4989529387        0.4986804613        0.4992866131
C                0.4998105159        0.4996808031        0.8334994667
C                0.6666644112        0.8333317018        0.1667388344
C                0.8343777993        0.6660581446        0.4992172696
C                0.6666775133        0.8333602592        0.8334005228
H                0.6797977027        0.7466389688        0.6216900194
H                0.6797911410        0.9036377153        0.6216276916



     Writing config-only to output data dir ../results/h2_abs/H2abs_C.save/ :
     XML data file
     NEW-OLD atomic charge density approx. for the potential

     Check: negative core charge=   -0.000002

     total cpu time spent up to now is      668.4 secs

     Self-consistent Calculation

     iteration #  1     ecut=    40.00 Ry     beta= 0.10
     Davidson diagonalization with overlap
     c_bands:  1 eigenvalues not converged
     c_bands:  3 eigenvalues not converged
     c_bands:  1 eigenvalues not converged
     c_bands:  1 eigenvalues not converged
     c_bands:  1 eigenvalues not converged
     c_bands:  1 eigenvalues not converged
     c_bands:  1 eigenvalues not converged
     c_bands:  1 eigenvalues not converged
     c_bands:  1 eigenvalues not converged
     c_bands:  1 eigenvalues not converged
     c_bands:  1 eigenvalues not converged
     c_bands:  1 eigenvalues not converged
     c_bands:  1 eigenvalues not converged
     c_bands:  3 eigenvalues not converged
     c_bands:  3 eigenvalues not converged
     ethr =  1.00E-06,  avg # of iterations = 18.6

     total cpu time spent up to now is      820.6 secs

     total energy              =    -288.47304189 Ry
     estimated scf accuracy    <       0.23568747 Ry

     iteration #  2     ecut=    40.00 Ry     beta= 0.10
     Davidson diagonalization with overlap
     ethr =  2.40E-04,  avg # of iterations =  1.0

     total cpu time spent up to now is      842.2 secs

     total energy              =    -288.33972058 Ry
     estimated scf accuracy    <       0.20422194 Ry

     iteration #  3     ecut=    40.00 Ry     beta= 0.10
     Davidson diagonalization with overlap
     ethr =  2.08E-04,  avg # of iterations =  2.0

     total cpu time spent up to now is      874.3 secs

     total energy              =    -288.37943564 Ry
     estimated scf accuracy    <       0.00312495 Ry

     iteration #  4     ecut=    40.00 Ry     beta= 0.10
     Davidson diagonalization with overlap
     c_bands:  1 eigenvalues not converged
     c_bands:  1 eigenvalues not converged
     c_bands:  1 eigenvalues not converged
     c_bands:  1 eigenvalues not converged
     c_bands:  1 eigenvalues not converged
     c_bands:  1 eigenvalues not converged
     c_bands:  1 eigenvalues not converged
     c_bands:  1 eigenvalues not converged
     c_bands:  1 eigenvalues not converged
     c_bands:  1 eigenvalues not converged
     ethr =  3.19E-06,  avg # of iterations = 13.5

     total cpu time spent up to now is      927.8 secs

     total energy              =    -288.38217709 Ry
     estimated scf accuracy    <       0.00170741 Ry

     iteration #  5     ecut=    40.00 Ry     beta= 0.10
     Davidson diagonalization with overlap
     ethr =  1.74E-06,  avg # of iterations =  3.7

     total cpu time spent up to now is      955.0 secs

     total energy              =    -288.38133943 Ry
     estimated scf accuracy    <       0.00189307 Ry

     iteration #  6     ecut=    40.00 Ry     beta= 0.10
     Davidson diagonalization with overlap
     ethr =  1.74E-06,  avg # of iterations =  2.2

     total cpu time spent up to now is      985.7 secs

     total energy              =    -288.38180924 Ry
     estimated scf accuracy    <       0.00033940 Ry

     iteration #  7     ecut=    40.00 Ry     beta= 0.10
     Davidson diagonalization with overlap
     ethr =  3.46E-07,  avg # of iterations =  2.3

     total cpu time spent up to now is     1015.9 secs

     total energy              =    -288.38148789 Ry
     estimated scf accuracy    <       0.00057818 Ry

     iteration #  8     ecut=    40.00 Ry     beta= 0.10
     Davidson diagonalization with overlap
     ethr =  3.46E-07,  avg # of iterations =  3.1

     total cpu time spent up to now is     1049.1 secs

     total energy              =    -288.38156858 Ry
     estimated scf accuracy    <       0.00006452 Ry

     iteration #  9     ecut=    40.00 Ry     beta= 0.10
     Davidson diagonalization with overlap
     ethr =  6.58E-08,  avg # of iterations =  2.3

     total cpu time spent up to now is     1077.5 secs

     total energy              =    -288.38157956 Ry
     estimated scf accuracy    <       0.00002139 Ry

     iteration # 10     ecut=    40.00 Ry     beta= 0.10
     Davidson diagonalization with overlap
     ethr =  2.18E-08,  avg # of iterations =  1.6

     total cpu time spent up to now is     1100.7 secs

     total energy              =    -288.38157619 Ry
     estimated scf accuracy    <       0.00001813 Ry

     iteration # 11     ecut=    40.00 Ry     beta= 0.10
     Davidson diagonalization with overlap
     ethr =  1.85E-08,  avg # of iterations =  3.5

     total cpu time spent up to now is     1133.8 secs

     total energy              =    -288.38158159 Ry
     estimated scf accuracy    <       0.00001242 Ry

     iteration # 12     ecut=    40.00 Ry     beta= 0.10
     Davidson diagonalization with overlap
     ethr =  1.27E-08,  avg # of iterations =  1.0

     total cpu time spent up to now is     1155.5 secs

     total energy              =    -288.38157970 Ry
     estimated scf accuracy    <       0.00001022 Ry

     iteration # 13     ecut=    40.00 Ry     beta= 0.10
     Davidson diagonalization with overlap
     ethr =  1.04E-08,  avg # of iterations =  1.0

     total cpu time spent up to now is     1177.2 secs

     total energy              =    -288.38157649 Ry
     estimated scf accuracy    <       0.00000635 Ry

     iteration # 14     ecut=    40.00 Ry     beta= 0.10
     Davidson diagonalization with overlap
     ethr =  6.48E-09,  avg # of iterations =  3.6

     total cpu time spent up to now is     1209.8 secs

     End of self-consistent calculation

          k = 0.1538 0.2663 0.1248 (  3760 PWs)   bands (ev):

   -10.8007  -9.6029  -9.1174  -7.6068  -6.9478  -6.3440  -6.2818  -5.9462
    -5.8718  -4.1605  -4.0219  -3.3077  -3.0664  -2.9358  -2.7751  -1.4051
    -0.8025  -0.2409  -0.1822  -0.0654   0.0679   0.1015   1.3092   2.0498
     2.1258   2.3136   3.1186   3.2779   3.7708   3.9943   4.0019   4.1367
     4.1551   4.3781   4.7242   5.7312   5.9108   6.2247   6.3155   6.4500
     6.5927   6.9963   7.1248   7.3896   7.7128   7.9709   8.2701   9.1927
    10.5869  11.8939  12.5524  13.6334  14.0562  14.5569  15.0117  15.3260
    16.3825  16.4920  17.6232

          k = 0.1537-0.4437 0.1249 (  3775 PWs)   bands (ev):

   -10.1862  -8.9015  -8.7070  -8.3845  -7.7719  -7.4838  -7.3037  -6.6698
    -6.2590  -4.4413  -3.5528  -3.2144  -2.4962  -1.5864  -1.3045  -0.6785
     0.1496   0.3488   0.5705   0.6785   1.1805   1.4168   1.5187   2.0714
     2.2112   2.4248   2.5008   2.9335   3.1092   3.1514   3.8452   3.8777
     4.1611   4.5340   4.5523   4.7225   4.7523   4.8907   5.0389   5.1333
     5.7431   5.7899   5.9312   6.3650   7.5430   7.7514   8.8417  10.0859
    10.9318  11.6266  12.4882  13.6292  15.0327  15.8732  16.8287  17.1505
    17.7025  18.0293  18.8243

          k = 0.1538-0.0887 0.1248 (  3757 PWs)   bands (ev):

   -11.1398  -9.9721  -9.4771  -6.7919  -5.6471  -5.4770  -5.2848  -5.2057
    -4.5620  -4.5371  -4.1945  -4.1721  -3.6506  -3.1696  -2.5044  -2.4753
    -2.2335  -2.1647  -2.1579  -1.4726  -1.1796  -0.4972   1.5980   2.6976
     2.9473   3.6010   3.6151   3.6171   3.7071   3.7545   3.7734   4.3356
     4.4701   4.7820   6.1926   6.4239   6.8196   6.9159   7.1536   7.5580
     7.6018   7.6855   7.6889   7.8423   7.9657   8.0311   8.5672   9.0824
     9.9609  12.0414  12.3941  12.7583  12.7777  13.5381  14.1377  14.3168
    15.0475  15.3258  17.4544

          k =-0.4613-0.7988 0.1247 (  3772 PWs)   bands (ev):

   -10.1031  -9.1220  -8.5253  -8.4487  -8.0758  -7.9896  -6.2934  -5.9936
    -5.2695  -5.2476  -4.8919  -4.8671  -0.8829  -0.5491  -0.3359   0.1449
     0.2167   0.3164   0.4923   0.5323   1.0175   1.0498   1.0709   1.2414
     1.2712   2.0196   2.6716   2.7236   3.2846   3.4043   3.4241   3.5957
     3.6138   3.7324   4.9649   5.1193   5.2235   5.6409   5.7797   5.7932
     5.8124   5.8802   5.9499   5.9576   7.2661   7.3920   8.9909   9.0767
    11.1388  13.1090  13.2449  13.9208  14.0013  15.2055  15.3753  17.9472
    18.4264  18.5374  18.7291

          k =-0.1538-0.2663 0.1248 (  3760 PWs)   bands (ev):

   -10.8007  -9.6031  -9.1170  -7.6069  -6.9478  -6.3437  -6.2816  -5.9465
    -5.8720  -4.1603  -4.0221  -3.3074  -3.0669  -2.9359  -2.7748  -1.4052
    -0.8025  -0.2416  -0.1818  -0.0643   0.0677   0.1007   1.3085   2.0544
     2.1261   2.3136   3.1227   3.2732   3.7635   3.9945   4.0015   4.1366
     4.1553   4.3778   4.7325   5.7311   5.9091   6.2059   6.3151   6.4499
     6.5927   6.9965   7.1248   7.3416   7.8250   7.9749   8.2470   9.1637
    10.5837  11.9104  12.5521  13.6063  14.0556  14.5354  15.0125  15.3874
    16.3716  16.4725  17.6178

          k =-0.1537 0.2662-0.1249 (  3760 PWs)   bands (ev):

   -10.7923  -9.6027  -9.1172  -7.6886  -6.8687  -6.3506  -6.2710  -5.9541
    -5.8618  -4.2464  -3.9600  -3.3009  -3.0672  -2.9310  -2.7745  -1.3856
    -0.7542  -0.2481  -0.1798  -0.1065   0.0579   0.1054   1.2716   2.0297
     2.1196   2.3064   3.1013   3.2890   3.7658   4.0013   4.0043   4.1454
     4.1552   4.3235   4.8403   5.7811   5.8917   6.2595   6.2845   6.4486
     6.5909   6.9960   7.1262   7.4812   7.7058   8.0063   8.1995   9.0727
    10.5879  11.8882  12.7714  13.6293  14.0189  14.5100  14.9768  15.1826
    16.3611  16.4678  17.4973

          k = 0.1537-0.2662-0.1247 (  3760 PWs)   bands (ev):

   -10.7922  -9.6030  -9.1169  -7.6888  -6.8686  -6.3503  -6.2714  -5.9546
    -5.8615  -4.2463  -3.9600  -3.3009  -3.0672  -2.9310  -2.7745  -1.3856
    -0.7543  -0.2541  -0.1795  -0.0950   0.0517   0.1051   1.2739   2.0371
     2.1190   2.3066   3.0897   3.2890   3.7504   4.0010   4.0044   4.1455
     4.1551   4.3436   4.8386   5.7808   5.8732   6.2633   6.2872   6.4487
     6.5913   6.9960   7.1263   7.5119   7.7343   8.0074   8.1642   9.0622
    10.5796  11.8891  12.7711  13.6262  14.0222  14.4979  14.9790  15.2010
    16.3658  16.4668  17.4830

          k = 0.3075 0.0000 0.1249 (  3760 PWs)   bands (ev):

   -10.8011  -9.6027  -9.1175  -7.6015  -6.9530  -6.3437  -6.2822  -5.9458
    -5.8724  -4.1162  -4.0690  -3.3056  -3.0684  -2.9343  -2.7768  -1.4031
    -0.8078  -0.2382  -0.1824  -0.0693   0.0741   0.1022   1.3100   2.0494
     2.1273   2.3142   3.1292   3.2729   3.7808   3.9936   4.0010   4.1357
     4.1547   4.3677   4.7249   5.7318   5.9188   6.2206   6.3168   6.4504
     6.5921   6.9962   7.1253   7.4411   7.6471   7.9800   8.2497   9.1825
    10.5985  11.8929  12.5794  13.6386  14.0381  14.5795  15.0031  15.3274
    16.3834  16.4745  17.6279

          k =-0.3075-0.0001 0.1247 (  3760 PWs)   bands (ev):

   -10.8010  -9.6032  -9.1168  -7.6017  -6.9530  -6.3433  -6.2823  -5.9463
    -5.8724  -4.1154  -4.0698  -3.3052  -3.0688  -2.9345  -2.7766  -1.4031
    -0.8079  -0.2439  -0.1819  -0.0566   0.0675   0.1003   1.3129   2.0586
     2.1265   2.3146   3.1268   3.2691   3.7512   3.9938   4.0006   4.1356
     4.1549   4.3942   4.7264   5.7285   5.8995   6.2125   6.3173   6.4502
     6.5921   6.9964   7.1256   7.3959   7.8091   7.9817   8.1957   9.1481
    10.5846  11.9131  12.5710  13.6161  14.0352  14.5514  15.0166  15.3958
    16.3846  16.4444  17.6095

          k =-0.1537 0.4437 0.1247 (  3775 PWs)   bands (ev):

   -10.1862  -8.9031  -8.7045  -8.3852  -7.7732  -7.4799  -7.3063  -6.6701
    -6.2588  -4.4410  -3.5559  -3.2101  -2.4970  -1.5921  -1.2974  -0.6809
     0.1500   0.3461   0.5762   0.6736   1.1858   1.4134   1.5178   2.0732
     2.2121   2.4208   2.5167   2.9334   3.1129   3.1329   3.8416   3.8785
     4.1615   4.5202   4.5508   4.7251   4.7507   4.8930   5.0321   5.1464
     5.7487   5.7895   5.9312   6.3774   7.5463   7.7201   9.0099   9.7564
    11.1033  11.8577  12.2207  13.6752  15.0340  15.8753  16.8415  17.1348
    17.7126  17.9811  18.9048

          k =-0.1538-0.4438-0.1248 (  3775 PWs)   bands (ev):

   -10.1984  -8.8960  -8.6795  -8.3850  -7.7668  -7.5053  -7.3106  -6.6703
    -6.2592  -4.4287  -3.5543  -3.2129  -2.4910  -1.5957  -1.3022  -0.7533
     0.1076   0.3552   0.5818   0.8157   1.1932   1.4169   1.5296   2.0513
     2.2126   2.4230   2.5305   2.9266   3.0998   3.1105   3.7804   3.9440
     4.1153   4.5034   4.5491   4.7236   4.7485   4.8898   5.0852   5.1397
     5.7509   5.7925   5.9337   6.3548   7.5050   7.7402   8.9327   9.9269
    11.1164  11.7762  12.1742  13.6186  15.1918  15.8435  16.9284  17.1510
    17.7382  18.0549  18.8887

          k = 0.1538 0.4438-0.1248 (  3775 PWs)   bands (ev):

   -10.1984  -8.8963  -8.6796  -8.3844  -7.7691  -7.4995  -7.3143  -6.6706
    -6.2591  -4.4285  -3.5546  -3.2127  -2.4909  -1.5904  -1.3102  -0.7504
     0.1078   0.3548   0.5810   0.8186   1.1871   1.4207   1.5298   2.0480
     2.2132   2.4277   2.5206   2.9272   3.1023   3.1363   3.7619   3.9440
     4.1228   4.4817   4.5499   4.7228   4.7487   4.8898   5.0853   5.1481
     5.7384   5.7920   5.9333   6.3568   7.5756   7.6972   8.8880  10.0649
    10.9525  11.7053  12.3230  13.5950  15.1348  15.9433  16.8991  17.1462
    17.7449  18.0791  18.7538

          k = 0.4613-0.0887 0.1249 (  3775 PWs)   bands (ev):

   -10.1998  -8.8932  -8.6800  -8.3826  -7.7673  -7.5050  -7.3130  -6.6708
    -6.2593  -4.4278  -3.5556  -3.2124  -2.4975  -1.5942  -1.3048  -0.7565
     0.1170   0.3575   0.5813   0.8184   1.1925   1.4192   1.5271   2.0518
     2.2140   2.4203   2.5283   2.9263   3.1034   3.1269   3.7792   3.9374
     4.1200   4.4890   4.5494   4.7229   4.7474   4.8896   5.0883   5.1384
     5.7503   5.7921   5.9340   6.3574   7.5287   7.7244   8.9508   9.8489
    11.0650  11.9015  12.1601  13.6103  15.2093  15.8438  16.9239  17.1434
    17.7191  18.0741  18.8728

          k =-0.3075-0.3550 0.1247 (  3775 PWs)   bands (ev):

   -10.2204  -8.8953  -8.6294  -8.3780  -7.7649  -7.5319  -7.3084  -6.6734
    -6.2623  -4.4578  -3.5589  -3.2169  -2.4586  -1.5916  -1.2945  -0.7342
     0.1026   0.3535   0.5816   0.7210   1.1904   1.4198   1.5774   2.0946
     2.2147   2.4226   2.5185   2.9297   3.1103   3.1708   3.7567   3.8710
     4.1489   4.5166   4.5535   4.7269   4.7442   4.8844   5.0762   5.1338
     5.7236   5.7872   5.9285   6.3852   7.4403   7.7273   8.9228   9.9109
    11.1171  11.8320  12.1950  13.6292  15.2294  15.9109  16.9476  17.1199
    17.7808  18.1198  18.8972

          k = 0.3076 0.3550 0.1248 (  3775 PWs)   bands (ev):

   -10.2204  -8.8930  -8.6343  -8.3753  -7.7677  -7.5259  -7.3116  -6.6738
    -6.2621  -4.4578  -3.5587  -3.2173  -2.4588  -1.5835  -1.3058  -0.7308
     0.1034   0.3542   0.5792   0.7242   1.1877   1.4205   1.5781   2.0909
     2.2161   2.4280   2.4995   2.9306   3.1094   3.1962   3.7452   3.8786
     4.1584   4.4983   4.5536   4.7255   4.7460   4.8835   5.0837   5.1304
     5.7196   5.7872   5.9281   6.3775   7.4941   7.6912   8.8744  10.0410
    10.9970  11.6889  12.4066  13.5979  15.1980  15.9463  16.9526  17.1536
    17.7113  18.1465  18.8343

          k =-0.4612 0.0887 0.1247 (  3775 PWs)   bands (ev):

   -10.1997  -8.8979  -8.6718  -8.3860  -7.7678  -7.5050  -7.3126  -6.6707
    -6.2595  -4.4278  -3.5546  -3.2141  -2.4969  -1.5918  -1.3075  -0.7563
     0.1178   0.3545   0.5832   0.8193   1.1895   1.4207   1.5289   2.0539
     2.2138   2.4262   2.5321   2.9264   3.0979   3.1223   3.7624   3.9427
     4.1174   4.4940   4.5500   4.7223   4.7480   4.8892   5.0887   5.1498
     5.7377   5.7916   5.9339   6.3547   7.5677   7.7181   8.8539  10.0960
    10.8505  11.7589  12.3499  13.6024  15.1588  15.9347  16.9065  17.1346
    17.7397  18.0625  18.7544

          k = 0.4612 0.0888-0.1247 (  3775 PWs)   bands (ev):

   -10.2208  -8.8955  -8.6271  -8.3781  -7.7659  -7.5303  -7.3105  -6.6737
    -6.2621  -4.4565  -3.5598  -3.2160  -2.4608  -1.5923  -1.2952  -0.7431
     0.1160   0.3533   0.5833   0.7204   1.1920   1.4207   1.5774   2.0894
     2.2158   2.4237   2.5237   2.9290   3.1096   3.1726   3.7618   3.8568
     4.1506   4.5048   4.5531   4.7265   4.7440   4.8843   5.0828   5.1347
     5.7251   5.7874   5.9291   6.3900   7.4667   7.7103   8.9414   9.8367
    11.1443  11.8269  12.2201  13.6358  15.2227  15.9093  16.9537  17.1205
    17.7758  18.1198  18.8846

          k =-0.3075 0.3550-0.1249 (  3775 PWs)   bands (ev):

   -10.1871  -8.8998  -8.7074  -8.3829  -7.7730  -7.4810  -7.3065  -6.6703
    -6.2591  -4.4415  -3.5561  -3.2106  -2.5012  -1.5898  -1.2990  -0.6766
     0.1470   0.3482   0.5734   0.6779   1.1830   1.4152   1.5174   2.0733
     2.2127   2.4184   2.5115   2.9339   3.1135   3.1505   3.8398   3.8820
     4.1633   4.5193   4.5515   4.7251   4.7499   4.8926   5.0278   5.1442
     5.7475   5.7890   5.9311   6.3748   7.5327   7.7314   9.0086   9.7542
    11.0425  11.9623  12.1848  13.6640  15.0593  15.8785  16.8199  17.1317
    17.7077  17.9985  18.9041

          k = 0.3074-0.3549-0.1247 (  3775 PWs)   bands (ev):

   -10.1871  -8.9043  -8.6997  -8.3861  -7.7718  -7.4853  -7.3033  -6.6702
    -6.2592  -4.4417  -3.5534  -3.2143  -2.5002  -1.5872  -1.3018  -0.6762
     0.1471   0.3464   0.5751   0.6775   1.1823   1.4142   1.5205   2.0796
     2.2117   2.4242   2.5093   2.9341   3.1082   3.1393   3.8305   3.8830
     4.1594   4.5357   4.5533   4.7223   4.7514   4.8907   5.0462   5.1352
     5.7429   5.7891   5.9311   6.3705   7.5610   7.7338   8.8435  10.0872
    10.8319  11.6994  12.5100  13.6142  15.0664  15.8631  16.8249  17.1521
    17.6923  18.0166  18.8224

          k =-0.4613-0.0888-0.1249 (  3775 PWs)   bands (ev):

   -10.2209  -8.8922  -8.6337  -8.3750  -7.7662  -7.5301  -7.3105  -6.6734
    -6.2623  -4.4566  -3.5581  -3.2185  -2.4607  -1.5841  -1.3060  -0.7393
     0.1151   0.3570   0.5784   0.7241   1.1883   1.4223   1.5781   2.0883
     2.2161   2.4253   2.5007   2.9293   3.1086   3.1931   3.7634   3.8680
     4.1569   4.5082   4.5528   4.7248   4.7461   4.8833   5.0785   5.1318
     5.7179   5.7874   5.9287   6.3707   7.4792   7.7184   8.8396  10.0677
    11.0092  11.6521  12.4181  13.6190  15.1949  15.9400  16.9573  17.1437
    17.7164  18.1516  18.8267

          k =-0.1537 0.0887 0.1247 (  3757 PWs)   bands (ev):

   -11.1398  -9.9723  -9.4768  -6.7921  -5.6443  -5.4817  -5.2859  -5.2028
    -4.5570  -4.5380  -4.2021  -4.1712  -3.6481  -3.1697  -2.5013  -2.4751
    -2.2395  -2.1616  -2.1577  -1.4734  -1.1783  -0.4984   1.6050   2.6914
     2.9472   3.5995   3.6166   3.6168   3.6994   3.7538   3.7733   4.3356
     4.4700   4.7908   6.2648   6.4057   6.7731   6.8912   7.1524   7.4442
     7.5585   7.6434   7.6869   7.8423   7.9656   8.2454   8.7235   9.0708
     9.8183  12.0288  12.2698  12.7600  12.8115  13.7040  14.2308  14.3182
    14.7620  15.4552  17.4452

          k =-0.1538-0.0888-0.1248 (  3757 PWs)   bands (ev):

   -11.1425  -9.9721  -9.4771  -6.7547  -5.6325  -5.4394  -5.4106  -5.2040
    -4.5566  -4.5478  -4.1960  -4.1801  -3.5069  -3.2420  -2.4988  -2.4806
    -2.2613  -2.1680  -2.1637  -1.4717  -1.1763  -0.4873   1.5997   2.8075
     2.8619   3.5772   3.6142   3.6198   3.7111   3.7632   3.7705   4.3289
     4.4621   4.8711   6.1253   6.3322   6.7944   6.9107   7.1694   7.5219
     7.5516   7.5621   7.6908   7.8401   7.9619   8.2471   8.8140   9.0271
     9.8674  12.0045  12.2561  12.7284  12.8315  13.6787  14.2832  14.3027
    14.7518  15.5217  17.5403

          k = 0.1537 0.0888-0.1248 (  3757 PWs)   bands (ev):

   -11.1425  -9.9723  -9.4769  -6.7549  -5.6275  -5.4422  -5.4166  -5.2002
    -4.5584  -4.5465  -4.1933  -4.1817  -3.5073  -3.2417  -2.5003  -2.4807
    -2.2628  -2.1657  -2.1632  -1.4711  -1.1763  -0.4884   1.6050   2.8071
     2.8594   3.5768   3.6142   3.6196   3.7025   3.7635   3.7706   4.3289
     4.4622   4.8940   6.1218   6.2258   6.8268   6.9224   7.1700   7.5238
     7.5603   7.6885   7.7376   7.8402   7.9621   8.2800   8.5579   9.0419
     9.9380  12.0119  12.3576  12.7271  12.8216  13.4980  14.1936  14.2653
    15.1597  15.3278  17.5267

          k = 0.0000-0.1775 0.1248 (  3757 PWs)   bands (ev):

   -11.1397  -9.9722  -9.4770  -6.7945  -5.6483  -5.4747  -5.2840  -5.2038
    -4.5579  -4.5370  -4.2002  -4.1707  -3.6522  -3.1703  -2.5019  -2.4752
    -2.2362  -2.1637  -2.1559  -1.4738  -1.1787  -0.4985   1.6003   2.6968
     2.9456   3.5905   3.6135   3.6170   3.7131   3.7543   3.7732   4.3367
     4.4705   4.7824   6.2396   6.4358   6.7693   6.8981   7.1488   7.4644
     7.5581   7.6331   7.6874   7.8427   7.9648   8.2147   8.7373   9.0710
     9.8326  12.0368  12.2690  12.7472  12.8143  13.7120  14.2473  14.3149
    14.7114  15.4766  17.4549

          k = 0.0001 0.1775 0.1248 (  3757 PWs)   bands (ev):

   -11.1397  -9.9722  -9.4770  -6.7945  -5.6443  -5.4819  -5.2796  -5.2048
    -4.5608  -4.5366  -4.1956  -4.1713  -3.6536  -3.1702  -2.5037  -2.4751
    -2.2348  -2.1642  -2.1555  -1.4729  -1.1794  -0.4986   1.6028   2.6930
     2.9456   3.5891   3.6115   3.6167   3.7151   3.7543   3.7733   4.3367
     4.4706   4.7954   6.1255   6.4549   6.8348   6.9135   7.1514   7.5577
     7.5957   7.6846   7.6926   7.8428   7.9650   8.1128   8.5454   9.0738
     9.9343  12.0401  12.3821  12.7631  12.7846  13.5205  14.1435  14.3091
    15.0643  15.3330  17.4480

          k = 0.4611-0.7987-0.1246 (  3772 PWs)   bands (ev):

   -10.1572  -9.0429  -8.5303  -8.4355  -8.0821  -7.9773  -6.2146  -6.1221
    -5.2678  -5.2573  -4.8894  -4.8762  -0.7231  -0.5026  -0.3450   0.0039
     0.2245   0.2483   0.4985   0.5061   0.9800   1.0485   1.0614   1.2470
     1.2683   2.1328   2.6341   2.7750   3.3054   3.4072   3.4293   3.5966
     3.6238   3.7827   4.8609   5.1521   5.2562   5.6841   5.7201   5.7797
     5.7897   5.8564   5.8753   5.9597   7.2930   7.3166   9.0118   9.0320
    11.1445  13.1778  13.3596  13.9020  14.0890  15.1728  15.3984  18.1965
    18.4622  18.5728  18.8140

          k =-0.9225-0.0001 0.1245 (  3772 PWs)   bands (ev):

   -10.1007  -9.1261  -8.5253  -8.4493  -8.0759  -7.9900  -6.2941  -5.9902
    -5.2696  -5.2468  -4.8921  -4.8662  -0.7808  -0.6553  -0.3406   0.1452
     0.2187   0.3159   0.4941   0.5301   1.0055   1.0509   1.0824   1.2451
     1.2732   2.0131   2.6902   2.7073   3.2849   3.4033   3.4220   3.5905
     3.6145   3.7330   4.9671   5.1089   5.2280   5.6400   5.7813   5.7936
     5.8097   5.8832   5.9551   5.9570   7.2670   7.3937   8.9957   9.0741
    11.2255  12.9801  13.2541  13.9296  14.0049  15.2082  15.3789  17.9577
    18.4434  18.5230  18.7442

     the Fermi energy is    11.4198 ev

!    total energy              =    -288.38157893 Ry
     estimated scf accuracy    <       0.00000054 Ry
     smearing contrib. (-TS)   =      -0.00008386 Ry
     internal energy E=F+TS    =    -288.38149508 Ry

     The total energy is F=E-TS. E is the sum of the following terms:
     one-electron contribution =       6.89317107 Ry
     hartree contribution      =      60.44900354 Ry
     xc contribution           =    -105.47591382 Ry
     ewald contribution        =    -250.24775586 Ry

     convergence has been achieved in  14 iterations

     Forces acting on atoms (cartesian axes, Ry/au):

     atom    1 type  1   force =     0.00054258    0.00016936    0.00722253
     atom    2 type  1   force =     0.04673468    0.02871605   -0.07779086
     atom    3 type  1   force =     0.01895907    0.01101045    0.01828713
     atom    4 type  1   force =    -0.00122308    0.00008075    0.00594852
     atom    5 type  1   force =    -0.00559476   -0.00434489   -0.00386923
     atom    6 type  1   force =    -0.00023548   -0.00104944   -0.00648290
     atom    7 type  1   force =     0.00113808   -0.00021943    0.00702692
     atom    8 type  1   force =    -0.02112724   -0.00124778   -0.04524548
     atom    9 type  1   force =    -0.01628009    0.00846217    0.01257486
     atom   10 type  1   force =    -0.00014775   -0.00015550    0.00639028
     atom   11 type  1   force =     0.00712368    0.02443364   -0.04571903
     atom   12 type  1   force =    -0.00086653   -0.00035805   -0.00644730
     atom   13 type  1   force =     0.00101759    0.00033201    0.00412618
     atom   14 type  1   force =     0.00811986    0.00199974   -0.00846721
     atom   15 type  1   force =     0.00074401    0.00030236   -0.00250518
     atom   16 type  1   force =    -0.00050809   -0.00088480    0.00600721
     atom   17 type  1   force =    -0.03252989   -0.01781213   -0.05303252
     atom   18 type  1   force =    -0.00154026    0.00041950   -0.00639711
     atom   19 type  1   force =     0.00047873    0.00085957    0.00718857
     atom   20 type  1   force =    -0.01427832   -0.03253038   -0.06538355
     atom   21 type  1   force =    -0.00109827   -0.02047674    0.01682598
     atom   22 type  1   force =    -0.00103518   -0.00044681    0.00989012
     atom   23 type  1   force =     0.03710680   -0.01101882   -0.06631616
     atom   24 type  1   force =     0.00079818    0.00124206   -0.01220831
     atom   25 type  2   force =     0.03504302   -0.07631127    0.15111816
     atom   26 type  2   force =    -0.06134135    0.08882840    0.14725837

     Total force =     0.309897     Total SCF correction =     0.000597


     Computing stress (Cartesian axis) and pressure

          total   stress  (Ry/bohr**3)                   (kbar)     P=      983.36
   0.00901185   0.00004119  -0.00005688         1325.69        6.06       -8.37
   0.00004119   0.00897574   0.00002027            6.06     1320.38        2.98
  -0.00005688   0.00002027   0.00206672           -8.37        2.98      304.02

     Energy error            =      2.8E+00 Ry
     Gradient error          =      1.5E-01 Ry/Bohr
     Cell gradient error     =      1.3E+03 kbar

     number of scf cycles    =   2
     number of bfgs steps    =   1

     enthalpy           old  =    -285.6305259639 Ry
     enthalpy           new  =    -288.3815789324 Ry

     CASE: enthalpy          _new < enthalpy          _old

     new trust radius        =       0.3818931844 bohr
     new conv_thr            =       0.0000010000 Ry

     new unit-cell volume =   1197.91703 a.u.^3 (   177.51299 Ang^3 )
     density =      2.71541 g/cm^3

CELL_PARAMETERS (alat=  8.00000437)
   1.129601377   0.002257978  -0.001579088
  -0.562845378   0.975110061   0.001284741
  -0.003338988   0.001211796   2.121668363

ATOMIC_POSITIONS (crystal)
C                0.0001578487        0.0000562913        0.1672251456
C                0.0078745553        0.0039926207        0.4948105916
C                0.0043367948        0.0021711959        0.8346044049
C                0.1664357508        0.3333311739        0.1671315927
C                0.3325390254        0.1658861611        0.4996983151
C                0.1664329257        0.3331721714        0.8328507309
C                0.5001995758       -0.0000221737        0.1672115215
C                0.4973860727       -0.0006638921        0.4970318773
C                0.4980831264        0.0017129575        0.8341686784
C                0.6665746479        0.3332815525        0.1671692633
C                0.8357847840        0.1693468123        0.4971249428
C                0.6665531106        0.3332886693        0.8328535954
C                0.0002343496        0.5000772749        0.1669912255
C                0.0014994503        0.5000800977        0.4994367438
C                0.0001842910        0.5000707415        0.8331976954
C                0.1664639333        0.8331588140        0.1671360508
C                0.3280686987        0.6640425792        0.4965138546
C                0.1663720459        0.8332962033        0.8328600946
C                0.5001923605        0.5001708224        0.1672224295
C                0.4962076748        0.4960741627        0.4957145246
C                0.4978575913        0.4959972417        0.8344869975
C                0.6663991790        0.8332289096        0.1674193761
C                0.8366518909        0.6658160179        0.4958295534
C                0.6669497645        0.8335518738        0.8319312939
H                0.6787089105        0.7415904320        0.6297799528
H                0.6785116416        0.9106192892        0.6295915480



     Writing config-only to output data dir ../results/h2_abs/H2abs_C.save/ :
     XML data file
     NEW-OLD atomic charge density approx. for the potential

     Check: negative core charge=   -0.000002

     total cpu time spent up to now is     1242.5 secs

     Self-consistent Calculation

     iteration #  1     ecut=    40.00 Ry     beta= 0.10
     Davidson diagonalization with overlap
     c_bands:  1 eigenvalues not converged
     c_bands:  1 eigenvalues not converged
     c_bands:  1 eigenvalues not converged
     c_bands:  1 eigenvalues not converged
     c_bands:  1 eigenvalues not converged
     c_bands:  1 eigenvalues not converged
     c_bands:  1 eigenvalues not converged
     c_bands:  1 eigenvalues not converged
     c_bands:  2 eigenvalues not converged
     c_bands:  1 eigenvalues not converged
     ethr =  1.00E-06,  avg # of iterations = 17.3

     total cpu time spent up to now is     1373.6 secs

     total energy              =    -289.04932374 Ry
     estimated scf accuracy    <       0.07803001 Ry

     iteration #  2     ecut=    40.00 Ry     beta= 0.10
     Davidson diagonalization with overlap
     ethr =  7.96E-05,  avg # of iterations =  1.0

     total cpu time spent up to now is     1395.3 secs

     total energy              =    -289.00703962 Ry
     estimated scf accuracy    <       0.06755509 Ry

     iteration #  3     ecut=    40.00 Ry     beta= 0.10
     Davidson diagonalization with overlap
     ethr =  6.89E-05,  avg # of iterations =  2.0

     total cpu time spent up to now is     1425.6 secs

     total energy              =    -289.01988622 Ry
     estimated scf accuracy    <       0.00098095 Ry

     iteration #  4     ecut=    40.00 Ry     beta= 0.10
     Davidson diagonalization with overlap
     c_bands:  1 eigenvalues not converged
     ethr =  1.00E-06,  avg # of iterations =  9.7

     total cpu time spent up to now is     1475.4 secs

     total energy              =    -289.02078647 Ry
     estimated scf accuracy    <       0.00125231 Ry

     iteration #  5     ecut=    40.00 Ry     beta= 0.10
     Davidson diagonalization with overlap
     ethr =  1.00E-06,  avg # of iterations =  1.1

     total cpu time spent up to now is     1497.3 secs

     total energy              =    -289.02028805 Ry
     estimated scf accuracy    <       0.00146862 Ry

     iteration #  6     ecut=    40.00 Ry     beta= 0.10
     Davidson diagonalization with overlap
     ethr =  1.00E-06,  avg # of iterations =  2.0

     total cpu time spent up to now is     1521.4 secs

     total energy              =    -289.02029472 Ry
     estimated scf accuracy    <       0.00022858 Ry

     iteration #  7     ecut=    40.00 Ry     beta= 0.10
     Davidson diagonalization with overlap
     ethr =  2.33E-07,  avg # of iterations =  4.0

     total cpu time spent up to now is     1554.9 secs

     total energy              =    -289.02037051 Ry
     estimated scf accuracy    <       0.00005231 Ry

     iteration #  8     ecut=    40.00 Ry     beta= 0.10
     Davidson diagonalization with overlap
     ethr =  5.34E-08,  avg # of iterations =  2.7

     total cpu time spent up to now is     1580.7 secs

     total energy              =    -289.02036914 Ry
     estimated scf accuracy    <       0.00006597 Ry

     iteration #  9     ecut=    40.00 Ry     beta= 0.10
     Davidson diagonalization with overlap
     ethr =  5.34E-08,  avg # of iterations =  1.0

     total cpu time spent up to now is     1602.4 secs

     total energy              =    -289.02035106 Ry
     estimated scf accuracy    <       0.00005139 Ry

     iteration # 10     ecut=    40.00 Ry     beta= 0.10
     Davidson diagonalization with overlap
     ethr =  5.24E-08,  avg # of iterations =  1.2

     total cpu time spent up to now is     1624.5 secs

     total energy              =    -289.02035358 Ry
     estimated scf accuracy    <       0.00001526 Ry

     iteration # 11     ecut=    40.00 Ry     beta= 0.10
     Davidson diagonalization with overlap
     ethr =  1.56E-08,  avg # of iterations =  2.0

     total cpu time spent up to now is     1648.9 secs

     total energy              =    -289.02035068 Ry
     estimated scf accuracy    <       0.00001066 Ry

     iteration # 12     ecut=    40.00 Ry     beta= 0.10
     Davidson diagonalization with overlap
     ethr =  1.09E-08,  avg # of iterations =  2.2

     total cpu time spent up to now is     1677.2 secs

     total energy              =    -289.02035247 Ry
     estimated scf accuracy    <       0.00000259 Ry

     iteration # 13     ecut=    40.00 Ry     beta= 0.10
     Davidson diagonalization with overlap
     ethr =  2.64E-09,  avg # of iterations =  4.0

     total cpu time spent up to now is     1710.2 secs

     total energy              =    -289.02035335 Ry
     estimated scf accuracy    <       0.00000205 Ry

     iteration # 14     ecut=    40.00 Ry     beta= 0.10
     Davidson diagonalization with overlap
     ethr =  2.09E-09,  avg # of iterations =  1.0

     total cpu time spent up to now is     1732.0 secs

     total energy              =    -289.02035320 Ry
     estimated scf accuracy    <       0.00000136 Ry

     iteration # 15     ecut=    40.00 Ry     beta= 0.10
     Davidson diagonalization with overlap
     ethr =  1.39E-09,  avg # of iterations =  2.0

     total cpu time spent up to now is     1758.4 secs

     End of self-consistent calculation

          k = 0.1472 0.2557 0.1179 (  3760 PWs)   bands (ev):

   -11.2284 -10.4729 -10.1126  -8.2578  -7.9660  -7.4326  -7.4020  -7.1309
    -7.0840  -5.3682  -4.9484  -4.7327  -4.4527  -4.1826  -3.9397  -2.5072
    -2.2146  -1.7040  -1.6796  -1.4939  -1.4441  -0.8747   0.0340   0.6193
     0.8034   1.0347   1.7368   1.9766   2.3795   2.4224   2.5104   2.5759
     2.6222   3.0078   3.5607   3.9686   4.5085   4.5396   4.6702   4.7155
     4.7941   5.0952   5.2679   5.9270   6.0565   6.2089   6.6557   7.4499
     8.6960  10.0550  10.4735  11.4215  12.0504  12.4427  12.8096  13.0497
    13.8946  13.9823  15.4055

          k = 0.1486-0.4272 0.1183 (  3775 PWs)   bands (ev):

   -10.5472  -9.7831  -9.4739  -9.4166  -8.7604  -8.4525  -8.4020  -7.7530
    -7.4414  -5.5259  -4.9073  -4.6417  -3.6870  -2.9950  -2.7657  -1.6704
    -0.9749  -0.9455  -0.7421  -0.4260  -0.3760  -0.1501   0.0782   0.5889
     0.7925   0.8432   1.3730   1.4257   1.5730   2.0649   2.2621   2.4995
     2.7248   2.8593   2.9438   3.0432   3.2092   3.3126   3.4650   3.6420
     4.0405   4.2071   4.3492   4.7685   5.8397   6.2450   7.1431   8.1741
     8.9464   9.7494  10.4834  11.4254  12.9007  13.5868  14.4905  14.6104
    15.2581  15.5992  16.1532

          k = 0.1479-0.0857 0.1181 (  3757 PWs)   bands (ev):

   -11.5718 -10.8174 -10.4509  -7.4567  -6.7529  -6.5721  -6.4408  -6.3400
    -5.8281  -5.7903  -5.5404  -5.5065  -4.6572  -4.2832  -3.7954  -3.7662
    -3.5515  -3.5148  -3.4485  -2.8487  -2.6086  -1.2210   0.6308   1.3629
     1.5875   2.0145   2.0738   2.1641   2.1930   2.2543   2.3739   2.6939
     2.8653   3.5460   4.7897   5.0691   5.1815   5.3353   5.3992   5.5626
     5.7364   5.8646   6.0289   6.0692   6.1159   6.3810   6.7924   7.2621
     8.1315  10.2290  10.5737  10.8051  10.8661  11.4865  11.9100  12.0743
    12.6482  12.9414  15.2394

          k =-0.4409-0.7674 0.1176 (  3772 PWs)   bands (ev):

   -10.3526  -9.9880  -9.4471  -9.4225  -9.1133  -9.0732  -7.2488  -6.9915
    -6.4575  -6.4429  -6.1652  -6.1481  -2.1130  -1.8951  -1.5258  -1.4072
    -1.3573  -1.1915  -1.0628  -0.7035  -0.2672  -0.2649  -0.0781  -0.0682
     0.0563   1.0009   1.2219   1.2811   1.6857   1.7015   1.8335   1.9470
     2.2176   2.5179   3.4393   3.4814   3.8264   4.0069   4.0168   4.0781
     4.1217   4.2397   4.3604   4.7028   5.7327   5.8821   7.1118   7.2203
     9.0702  11.1111  11.2837  11.8244  11.9114  12.8597  12.9660  15.4809
    15.9509  16.0881  16.4365

          k =-0.1469-0.2559 0.1177 (  3760 PWs)   bands (ev):

   -11.2284 -10.4729 -10.1127  -8.2578  -7.9660  -7.4343  -7.4002  -7.1305
    -7.0847  -5.3683  -4.9479  -4.7332  -4.4525  -4.1830  -3.9393  -2.5074
    -2.2145  -1.7000  -1.6832  -1.4957  -1.4424  -0.8750   0.0336   0.6190
     0.8037   1.0378   1.7375   1.9757   2.3794   2.4223   2.5081   2.5723
     2.6214   3.0118   3.5638   3.9659   4.5085   4.5394   4.6660   4.7162
     4.7839   5.0952   5.2679   5.8901   6.1247   6.2179   6.6483   7.4336
     8.6893  10.0678  10.4766  11.3977  12.0429  12.4265  12.8296  13.0884
    13.8939  13.9531  15.4016

          k =-0.1482 0.2564-0.1182 (  3760 PWs)   bands (ev):

   -11.2235 -10.4699 -10.1089  -8.2392  -7.9777  -7.4210  -7.4054  -7.1210
    -7.0887  -5.3302  -5.1020  -4.8258  -4.5367  -4.1479  -3.9061  -2.3445
    -2.2109  -1.6657  -1.6560  -1.4588  -1.4171  -0.8687   0.0991   0.6693
     0.8565   1.0267   1.7116   1.8532   2.3568   2.3657   2.4738   2.5653
     2.6028   2.9631   3.6603   4.0767   4.4746   4.5324   4.5536   4.6846
     4.8300   5.1363   5.2988   5.9066   6.1537   6.2193   6.5703   7.2852
     8.6185  10.0843  10.7549  11.5057  11.9849  12.3765  12.8129  12.9409
    13.8935  13.9562  15.2354

          k = 0.1479-0.2563-0.1175 (  3760 PWs)   bands (ev):

   -11.2237 -10.4690 -10.1096  -8.2390  -7.9774  -7.4223  -7.4066  -7.1199
    -7.0877  -5.3303  -5.1021  -4.8253  -4.5370  -4.1477  -3.9063  -2.3448
    -2.2111  -1.6649  -1.6550  -1.4594  -1.4176  -0.8676   0.1001   0.6687
     0.8572   1.0260   1.7117   1.8470   2.3563   2.3656   2.4736   2.5579
     2.5980   2.9792   3.6538   4.0754   4.4728   4.5243   4.5624   4.6839
     4.8474   5.1362   5.2987   5.9378   6.1474   6.2110   6.5552   7.2755
     8.6162  10.0855  10.7518  11.5085  11.9927  12.3727  12.7918  12.9408
    13.9153  13.9583  15.2203

          k = 0.2953-0.0007 0.1183 (  3760 PWs)   bands (ev):

   -11.2283 -10.4732 -10.1122  -8.2511  -7.9723  -7.4324  -7.4007  -7.1296
    -7.0865  -5.3626  -4.9616  -4.7376  -4.4588  -4.1793  -3.9354  -2.4988
    -2.2137  -1.7027  -1.6797  -1.4921  -1.4450  -0.8737   0.0431   0.6207
     0.8023   1.0372   1.7255   1.9765   2.3781   2.4217   2.5145   2.5782
     2.6255   3.0023   3.5612   3.9824   4.5075   4.5436   4.6542   4.7046
     4.7810   5.1006   5.2788   5.9578   6.0339   6.2171   6.6399   7.4372
     8.6779  10.0662  10.4929  11.4409  12.0308  12.4641  12.8068  13.0583
    13.8802  13.9681  15.4101

          k =-0.2949 0.0005 0.1174 (  3760 PWs)   bands (ev):

   -11.2285 -10.4723 -10.1129  -8.2509  -7.9719  -7.4336  -7.4020  -7.1289
    -7.0851  -5.3627  -4.9613  -4.7377  -4.4589  -4.1794  -3.9353  -2.4991
    -2.2139  -1.6989  -1.6815  -1.4943  -1.4439  -0.8730   0.0444   0.6198
     0.8032   1.0372   1.7254   1.9752   2.3781   2.4210   2.5081   2.5651
     2.6235   3.0226   3.5566   3.9793   4.5006   4.5339   4.6565   4.7056
     4.7977   5.1006   5.2788   5.9344   6.1168   6.2090   6.6174   7.4158
     8.6668  10.0828  10.4865  11.4238  12.0294  12.4434  12.8144  13.0936
    13.9017  13.9364  15.3936

          k =-0.1482 0.4270 0.1174 (  3775 PWs)   bands (ev):

   -10.5474  -9.7828  -9.4705  -9.4199  -8.7621  -8.4490  -8.4035  -7.7553
    -7.4397  -5.5258  -4.9095  -4.6388  -3.6872  -2.9996  -2.7615  -1.6705
    -0.9760  -0.9465  -0.7401  -0.4425  -0.3531  -0.1562   0.0772   0.5889
     0.7925   0.8454   1.3775   1.4320   1.5756   2.0352   2.2644   2.5020
     2.7252   2.8582   2.9462   3.0446   3.2102   3.2912   3.4654   3.6560
     4.0401   4.2090   4.3707   4.7768   5.8230   6.2246   7.3094   7.8663
     9.1078   9.9305  10.2608  11.4651  12.8959  13.6013  14.4994  14.6000
    15.2357  15.5658  16.2006

          k =-0.1469-0.4265-0.1178 (  3775 PWs)   bands (ev):

   -10.5546  -9.7888  -9.4662  -9.4208  -8.7540  -8.4444  -8.4064  -7.7591
    -7.4466  -5.5210  -4.8934  -4.6235  -3.5801  -2.9787  -2.7427  -1.8169
    -1.1224  -0.9811  -0.7798  -0.4507  -0.3059  -0.1801   0.1157   0.5608
     0.7652   0.8897   1.4252   1.4768   1.6217   2.0076   2.2394   2.5128
     2.7630   2.8499   2.9708   3.0725   3.2376   3.2874   3.5113   3.6468
     3.9969   4.1680   4.3478   4.7713   5.8126   6.2258   7.2742   8.0578
     9.1353   9.8087  10.2252  11.3766  13.0277  13.5610  14.5604  14.6472
    15.2330  15.6768  16.1788

          k = 0.1465 0.4266-0.1178 (  3775 PWs)   bands (ev):

   -10.5546  -9.7884  -9.4693  -9.4185  -8.7519  -8.4462  -8.4061  -7.7605
    -7.4454  -5.5213  -4.8918  -4.6249  -3.5801  -2.9767  -2.7451  -1.8162
    -1.1224  -0.9822  -0.7792  -0.4375  -0.3274  -0.1723   0.1161   0.5613
     0.7646   0.8893   1.4238   1.4738   1.6191   2.0427   2.2278   2.5106
     2.7603   2.8521   2.9656   3.0715   3.2288   3.2703   3.5106   3.6499
     3.9969   4.1689   4.3527   4.7789   5.8351   6.2268   7.2068   8.1837
     9.0120   9.7908  10.3011  11.3593  12.9820  13.6385  14.5336  14.6399
    15.2777  15.6632  16.1147

          k = 0.4430-0.0863 0.1186 (  3775 PWs)   bands (ev):

   -10.5552  -9.7891  -9.4647  -9.4173  -8.7520  -8.4460  -8.4092  -7.7607
    -7.4468  -5.5233  -4.8956  -4.6256  -3.5889  -2.9761  -2.7399  -1.8075
    -1.1192  -0.9813  -0.7823  -0.4465  -0.3100  -0.1733   0.1222   0.5608
     0.7656   0.8906   1.4237   1.4772   1.6159   2.0279   2.2572   2.4994
     2.7595   2.8523   2.9645   3.0715   3.2374   3.2632   3.4944   3.6402
     4.0005   4.1765   4.3523   4.7862   5.8120   6.2309   7.2863   8.0007
     9.0846   9.8774  10.2363  11.3847  13.0357  13.5636  14.5627  14.6317
    15.2330  15.6828  16.1690

          k =-0.2942-0.3409 0.1176 (  3775 PWs)   bands (ev):

   -10.5598  -9.7930  -9.4868  -9.4251  -8.7699  -8.4420  -8.3916  -7.7354
    -7.4234  -5.4856  -4.8551  -4.5853  -3.6055  -3.0341  -2.7957  -1.8054
    -1.0265  -0.9646  -0.7640  -0.5271  -0.4212  -0.2222   0.1534   0.5475
     0.7455   0.8271   1.4231   1.4583   1.6101   2.0600   2.1888   2.5716
     2.7339   2.8525   2.9458   3.0963   3.2610   3.2832   3.5802   3.6385
     4.0292   4.2091   4.3705   4.7596   5.8342   6.2262   7.2754   8.0177
     9.1365   9.8816  10.2078  11.3497  13.0704  13.6153  14.5177  14.6212
    15.2667  15.8035  16.1813

          k = 0.2946 0.3408 0.1181 (  3775 PWs)   bands (ev):

   -10.5597  -9.7924  -9.4910  -9.4221  -8.7676  -8.4441  -8.3910  -7.7368
    -7.4222  -5.4860  -4.8530  -4.5873  -3.6057  -3.0296  -2.8006  -1.8047
    -1.0270  -0.9640  -0.7648  -0.5110  -0.4402  -0.2189   0.1541   0.5485
     0.7449   0.8267   1.4209   1.4471   1.6075   2.0855   2.1953   2.5705
     2.7333   2.8552   2.9429   3.0949   3.2403   3.2817   3.5793   3.6360
     4.0294   4.2092   4.3806   4.7615   5.8505   6.2248   7.2089   8.1283
[...]
     2.3713   2.4489   3.1702   3.5248   3.8775   4.4654   4.9600   5.5121
     5.7575   9.6386   9.6662  10.1455  10.2302  10.8330  10.8625  12.1614
    14.1904  14.2667  14.4511

          k =-0.1451-0.2516 0.1065 (  5848 PWs)   bands (ev):

   -12.0435 -11.7570 -11.5130  -9.0615  -9.0480  -8.8177  -8.7974  -8.6101
    -8.6038  -6.5170  -6.3785  -6.2341  -5.6858  -5.5905  -5.4720  -3.4155
    -3.4031  -3.2442  -3.2304  -3.1200  -3.1132  -1.4201  -1.0596  -0.9316
    -0.8570  -0.3928   0.6620   0.6709   0.7585   0.7695   0.8114   0.8202
     1.0156   1.9269   2.4037   2.6819   2.7167   2.7629   2.8201   3.3065
     3.3404   3.3677   3.4458   4.0058   4.4949   4.7213   4.9544   5.4580
     6.2034   8.2532   8.9325   9.4696  10.4289  10.4406  11.1140  11.1570
    11.8775  11.9200  12.6708

          k =-0.1454 0.2517-0.1069 (  5847 PWs)   bands (ev):

   -12.0430 -11.7568 -11.5124  -9.0635  -9.0458  -8.8216  -8.7920  -8.6130
    -8.6005  -6.5233  -6.3790  -6.2383  -5.6915  -5.5967  -5.4713  -3.4095
    -3.3992  -3.2426  -3.2250  -3.1154  -3.1090  -1.4149  -1.0520  -0.9245
    -0.8501  -0.3883   0.6594   0.6617   0.7575   0.7603   0.8097   0.8124
     1.0162   1.8940   2.4167   2.6822   2.7253   2.7588   2.8180   3.3053
     3.3387   3.3710   3.4676   3.9743   4.5185   4.6987   4.9309   5.4873
     6.2243   8.2720   8.9312   9.5018  10.4145  10.4423  11.0705  11.1573
    11.8470  11.9131  12.3649

          k = 0.1452-0.2516-0.1062 (  5845 PWs)   bands (ev):

   -12.0431 -11.7564 -11.5127  -9.0632  -9.0456  -8.8225  -8.7926  -8.6125
    -8.6002  -6.5234  -6.3789  -6.2383  -5.6915  -5.5966  -5.4713  -3.4100
    -3.3994  -3.2415  -3.2245  -3.1162  -3.1093  -1.4122  -1.0518  -0.9251
    -0.8496  -0.3950   0.6594   0.6619   0.7573   0.7600   0.8098   0.8126
     1.0223   1.8902   2.4145   2.6827   2.7266   2.7598   2.8195   3.3053
     3.3395   3.3718   3.4720   3.9739   4.5148   4.6969   4.9300   5.4861
     6.2250   8.2724   8.9288   9.5040  10.4143  10.4449  11.0696  11.1490
    11.8476  11.9188  12.3636

          k = 0.2906-0.0001 0.1070 (  5845 PWs)   bands (ev):

   -12.0433 -11.7572 -11.5128  -9.0616  -9.0481  -8.8174  -8.7969  -8.6105
    -8.6038  -6.5189  -6.3772  -6.2326  -5.6883  -5.5911  -5.4716  -3.4145
    -3.4027  -3.2452  -3.2305  -3.1185  -3.1132  -1.4212  -1.0589  -0.9305
    -0.8571  -0.3900   0.6609   0.6708   0.7588   0.7693   0.8110   0.8203
     1.0136   1.9256   2.4034   2.6790   2.7265   2.7567   2.8262   3.3061
     3.3390   3.3687   3.4465   3.9948   4.4958   4.7317   4.9474   5.4517
     6.2114   8.2579   8.9187   9.4854  10.4269  10.4458  11.1057  11.1533
    11.8963  11.9037  12.6606

          k =-0.2904 0.0000 0.1061 (  5843 PWs)   bands (ev):

   -12.0435 -11.7567 -11.5131  -9.0613  -9.0478  -8.8182  -8.7976  -8.6101
    -8.6033  -6.5191  -6.3769  -6.2327  -5.6884  -5.5910  -5.4716  -3.4153
    -3.4027  -3.2435  -3.2299  -3.1201  -3.1131  -1.4186  -1.0586  -0.9315
    -0.8563  -0.3962   0.6609   0.6709   0.7584   0.7691   0.8112   0.8203
     1.0188   1.9237   2.4014   2.6820   2.7200   2.7639   2.8182   3.3071
     3.3404   3.3695   3.4501   4.0095   4.4936   4.7217   4.9419   5.4583
     6.2052   8.2565   8.9269   9.4784  10.4306  10.4412  11.1100  11.1522
    11.8764  11.9183  12.6591

          k =-0.1452 0.4193 0.1061 (  5851 PWs)   bands (ev):

   -11.3684 -11.0905 -10.8569 -10.3670 -10.1026  -9.8834  -9.3814  -9.1307
    -8.9251  -6.5875  -6.3830  -6.2206  -4.6977  -4.5407  -4.4100  -2.5844
    -2.4518  -2.3560  -2.1761  -2.0421  -1.9424  -1.2084  -1.0685  -0.9801
    -0.7228  -0.2799  -0.1782  -0.1091   0.1938   0.8261   0.9354   1.0296
     1.0925   1.3215   1.4080   1.4506   1.4900   1.9938   2.0632   2.2510
     2.3205   2.3688   2.7778   3.1351   3.9434   4.6051   5.2267   5.9400
     6.7651   8.1215   8.6447   9.3478  11.3063  11.8428  12.2113  12.5172
    12.8672  13.4033  14.0438

          k =-0.1453-0.4193-0.1066 (  5857 PWs)   bands (ev):

   -11.3690 -11.0914 -10.8574 -10.3660 -10.1018  -9.8823  -9.3824  -9.1305
    -8.9264  -6.5862  -6.3826  -6.2195  -4.6925  -4.5349  -4.4070  -2.5915
    -2.4569  -2.3622  -2.1830  -2.0495  -1.9470  -1.2105  -1.0702  -0.9823
    -0.7244  -0.2737  -0.1731  -0.1032   0.1981   0.8291   0.9362   1.0311
     1.0934   1.3230   1.4119   1.4538   1.4970   1.9771   2.0808   2.2517
     2.3192   2.3687   2.7698   3.1212   3.9402   4.6306   5.2228   5.9415
     6.7447   8.1089   8.6637   9.3304  11.3206  11.8508  12.3749  12.5153
    12.8745  13.4185  13.8754

          k = 0.1450 0.4193-0.1065 (  5854 PWs)   bands (ev):

   -11.3690 -11.0914 -10.8573 -10.3662 -10.1013  -9.8826  -9.3821  -9.1313
    -8.9258  -6.5867  -6.3811  -6.2205  -4.6933  -4.5329  -4.4082  -2.5913
    -2.4571  -2.3621  -2.1844  -2.0458  -1.9495  -1.2087  -1.0740  -0.9778
    -0.7276  -0.2744  -0.1710  -0.1051   0.1982   0.8344   0.9343   1.0305
     1.0991   1.3231   1.4089   1.4599   1.4886   1.9707   2.0818   2.2516
     2.3206   2.3699   2.7554   3.1312   3.9603   4.6238   5.1928   5.9853
     6.7205   8.1039   8.6689   9.3321  11.3149  11.8664  12.3335  12.5496
    12.8621  13.4384  13.8780

          k = 0.4358-0.0840 0.1073 (  5855 PWs)   bands (ev):

   -11.3687 -11.0918 -10.8571 -10.3662 -10.1010  -9.8827  -9.3825  -9.1309
    -8.9263  -6.5869  -6.3822  -6.2197  -4.6921  -4.5362  -4.4071  -2.5905
    -2.4559  -2.3623  -2.1824  -2.0497  -1.9473  -1.2093  -1.0708  -0.9812
    -0.7269  -0.2733  -0.1724  -0.1038   0.2035   0.8309   0.9364   1.0330
     1.0930   1.3220   1.4118   1.4531   1.4901   1.9732   2.0785   2.2503
     2.3185   2.3692   2.7769   3.1257   3.9383   4.6339   5.2197   5.9289
     6.7525   8.1181   8.6634   9.3240  11.3254  11.8472  12.3633  12.5093
    12.8711  13.4173  13.8905

          k =-0.2903-0.3355 0.1063 (  5858 PWs)   bands (ev):

   -11.3694 -11.0918 -10.8579 -10.3675 -10.1035  -9.8839  -9.3801  -9.1281
    -8.9240  -6.5828  -6.3791  -6.2161  -4.6960  -4.5390  -4.4106  -2.5910
    -2.4570  -2.3608  -2.1793  -2.0463  -1.9451  -1.2197  -1.0759  -0.9901
    -0.7308  -0.2783  -0.1769  -0.1064   0.1928   0.8381   0.9332   1.0241
     1.0912   1.3293   1.4167   1.4593   1.5076   1.9957   2.0658   2.2566
     2.3253   2.3721   2.7856   3.1190   3.9639   4.6040   5.2033   5.9247
     6.7318   8.1134   8.6774   9.3395  11.3174  11.8894  12.4889  12.7855
    12.8728  13.3460  13.6140

          k = 0.2905 0.3354 0.1069 (  5850 PWs)   bands (ev):

   -11.3693 -11.0920 -10.8577 -10.3677 -10.1028  -9.8842  -9.3798  -9.1289
    -8.9235  -6.5833  -6.3776  -6.2171  -4.6971  -4.5363  -4.4123  -2.5916
    -2.4556  -2.3617  -2.1804  -2.0433  -1.9472  -1.2170  -1.0823  -0.9837
    -0.7329  -0.2794  -0.1747  -0.1089   0.1883   0.8480   0.9309   1.0230
     1.0970   1.3294   1.4138   1.4650   1.5058   1.9852   2.0673   2.2565
     2.3267   2.3731   2.7706   3.1284   3.9780   4.6010   5.1827   5.9491
     6.7225   8.0963   8.7005   9.3328  11.3217  11.8715  12.4980  12.7861
    12.8845  13.3920  13.5637

          k =-0.4356 0.0839 0.1058 (  5851 PWs)   bands (ev):

   -11.3690 -11.0910 -10.8576 -10.3658 -10.1021  -9.8820  -9.3824  -9.1311
    -8.9262  -6.5871  -6.3816  -6.2202  -4.6936  -4.5327  -4.4092  -2.5899
    -2.4573  -2.3615  -2.1839  -2.0460  -1.9498  -1.2081  -1.0730  -0.9781
    -0.7254  -0.2737  -0.1714  -0.1048   0.1936   0.8292   0.9350   1.0308
     1.0993   1.3219   1.4093   1.4601   1.4973   1.9752   2.0832   2.2501
     2.3203   2.3707   2.7485   3.1267   3.9654   4.6271   5.1822   5.9904
     6.7173   8.1105   8.6679   9.3296  11.3203  11.8624  12.3198  12.5438
    12.8633  13.4339  13.8846

          k = 0.4356 0.0838-0.1059 (  5850 PWs)   bands (ev):

   -11.3694 -11.0915 -10.8580 -10.3676 -10.1033  -9.8840  -9.3797  -9.1290
    -8.9234  -6.5833  -6.3782  -6.2164  -4.6965  -4.5400  -4.4106  -2.5900
    -2.4572  -2.3601  -2.1788  -2.0454  -1.9452  -1.2195  -1.0759  -0.9901
    -0.7302  -0.2789  -0.1769  -0.1066   0.1907   0.8381   0.9331   1.0243
     1.0912   1.3296   1.4168   1.4596   1.5064   1.9941   2.0638   2.2561
     2.3250   2.3725   2.7936   3.1227   3.9589   4.6060   5.2035   5.9091
     6.7435   8.1140   8.6783   9.3394  11.3175  11.8850  12.4887  12.7756
    12.8729  13.3485  13.6289

          k =-0.2906 0.3356-0.1072 (  5850 PWs)   bands (ev):

   -11.3681 -11.0911 -10.8565 -10.3670 -10.1019  -9.8837  -9.3818  -9.1303
    -8.9256  -6.5877  -6.3835  -6.2205  -4.6968  -4.5409  -4.4102  -2.5844
    -2.4507  -2.3569  -2.1760  -2.0432  -1.9426  -1.2074  -1.0690  -0.9791
    -0.7258  -0.2790  -0.1776  -0.1096   0.2012   0.8282   0.9358   1.0312
     1.0921   1.3202   1.4077   1.4488   1.4851   1.9913   2.0631   2.2501
     2.3200   2.3691   2.7769   3.1360   3.9473   4.6050   5.2246   5.9414
     6.7620   8.1303   8.6431   9.3420  11.3102  11.8458  12.2064  12.5098
    12.8618  13.4091  14.0413

          k = 0.2904-0.3355-0.1059 (  5853 PWs)   bands (ev):

   -11.3684 -11.0903 -10.8569 -10.3666 -10.1031  -9.8829  -9.3818  -9.1303
    -8.9256  -6.5880  -6.3825  -6.2213  -4.6987  -4.5363  -4.4130  -2.5843
    -2.4510  -2.3567  -2.1770  -2.0409  -1.9442  -1.2063  -1.0709  -0.9761
    -0.7237  -0.2796  -0.1772  -0.1110   0.1910   0.8261   0.9347   1.0291
     1.0981   1.3198   1.4051   1.4568   1.4926   1.9948   2.0658   2.2498
     2.3230   2.3714   2.7536   3.1335   3.9637   4.6065   5.1844   6.0062
     6.7276   8.1003   8.6884   9.3265  11.3254  11.8141  12.2016  12.5265
    12.8579  13.4379  14.0237

          k =-0.4358-0.0837-0.1072 (  5858 PWs)   bands (ev):

   -11.3692 -11.0922 -10.8575 -10.3678 -10.1031  -9.8842  -9.3801  -9.1280
    -8.9241  -6.5833  -6.3783  -6.2165  -4.6981  -4.5361  -4.4129  -2.5911
    -2.4545  -2.3618  -2.1795  -2.0436  -1.9465  -1.2168  -1.0823  -0.9838
    -0.7342  -0.2802  -0.1754  -0.1088   0.1906   0.8477   0.9308   1.0232
     1.0969   1.3294   1.4143   1.4651   1.5066   1.9876   2.0665   2.2558
     2.3275   2.3732   2.7622   3.1266   3.9852   4.6048   5.1713   5.9604
     6.7182   8.0953   8.6990   9.3365  11.3205  11.8718  12.4931  12.7805
    12.8817  13.3937  13.5775

          k =-0.1451 0.0839 0.1063 (  5852 PWs)   bands (ev):

   -12.3825 -12.0913 -11.8425  -8.4088  -8.1724  -7.9795  -7.4859  -7.4762
    -7.2701  -7.2503  -7.0904  -7.0783  -5.4534  -5.4361  -5.2615  -5.2422
    -5.1192  -5.1051  -4.5550  -4.3686  -4.2331  -1.7967  -0.7608   0.3194
     0.3318   0.4188   0.4345   0.4744   0.4856   0.7082   0.9896   1.0773
     1.1204   2.3261   3.2339   3.7141   3.7592   3.7947   3.9039   3.9683
     4.0128   4.0650   4.1232   4.2142   4.7426   4.9005   5.1830   5.5787
     5.6257   8.6106   8.6257   9.3015   9.3465   9.5119  10.0867  10.1263
    10.1574  10.9802  12.6718

          k =-0.1453-0.0838-0.1068 (  5849 PWs)   bands (ev):

   -12.3825 -12.0917 -11.8424  -8.4121  -8.1745  -7.9828  -7.4791  -7.4775
    -7.2622  -7.2527  -7.0840  -7.0798  -5.4475  -5.4377  -5.2564  -5.2471
    -5.1145  -5.1074  -4.5607  -4.3747  -4.2373  -1.7995  -0.7590   0.3180
     0.3246   0.4191   0.4278   0.4735   0.4787   0.7045   0.9991   1.0855
     1.1281   2.3326   3.2563   3.7097   3.7582   3.7930   3.8860   3.9778
     4.0188   4.0728   4.1172   4.2232   4.6975   4.8930   5.2109   5.5551
     5.6471   8.5956   8.6298   9.2795   9.3502   9.5088  10.0844  10.1240
    10.1816  11.0021  12.8524

          k = 0.1451 0.0839-0.1064 (  5856 PWs)   bands (ev):

   -12.3826 -12.0916 -11.8426  -8.4121  -8.1745  -7.9829  -7.4783  -7.4774
    -7.2649  -7.2526  -7.0823  -7.0799  -5.4460  -5.4379  -5.2599  -5.2468
    -5.1125  -5.1076  -4.5617  -4.3720  -4.2390  -1.7986  -0.7609   0.3182
     0.3247   0.4182   0.4275   0.4739   0.4789   0.7063   0.9991   1.0854
     1.1281   2.3415   3.1992   3.7090   3.7482   3.7873   3.8836   4.0179
     4.0252   4.0731   4.1185   4.3593   4.7015   4.8336   5.0631   5.5506
     5.7351   8.5835   8.6661   9.3162   9.3682   9.4198  10.0593  10.1051
    10.2256  11.0130  12.8493

          k = 0.0001-0.1678 0.1066 (  5852 PWs)   bands (ev):

   -12.3824 -12.0916 -11.8423  -8.4094  -8.1717  -7.9801  -7.4858  -7.4758
    -7.2699  -7.2499  -7.0904  -7.0786  -5.4529  -5.4357  -5.2619  -5.2427
    -5.1187  -5.1046  -4.5553  -4.3697  -4.2330  -1.7982  -0.7574   0.3182
     0.3316   0.4189   0.4345   0.4739   0.4853   0.7050   0.9909   1.0779
     1.1206   2.3292   3.2322   3.7141   3.7601   3.7950   3.9042   3.9653
     4.0140   4.0670   4.1234   4.2073   4.7401   4.9020   5.1828   5.5779
     5.6336   8.6111   8.6250   9.3037   9.3430   9.5146  10.0800  10.1255
    10.1623  10.9819  12.6776

          k = 0.0001 0.1677 0.1065 (  5857 PWs)   bands (ev):

   -12.3824 -12.0915 -11.8424  -8.4094  -8.1717  -7.9802  -7.4848  -7.4757
    -7.2726  -7.2500  -7.0886  -7.0784  -5.4511  -5.4358  -5.2660  -5.2426
    -5.1163  -5.1048  -4.5561  -4.3678  -4.2342  -1.7973  -0.7596   0.3182
     0.3317   0.4186   0.4344   0.4740   0.4855   0.7073   0.9909   1.0779
     1.1206   2.3344   3.1860   3.7119   3.7504   3.7897   3.9012   4.0134
     4.0271   4.0681   4.1245   4.3260   4.7511   4.8026   5.0505   5.5671
     5.7430   8.6016   8.6667   9.3363   9.3661   9.4002  10.0678  10.1059
    10.2098  10.9959  12.6761

          k = 0.4357-0.7548-0.1055 (  5847 PWs)   bands (ev):

   -11.0448 -11.0236 -10.7780 -10.7431 -10.5390 -10.5235  -8.0987  -8.0963
    -7.8698  -7.8583  -7.6796  -7.6757  -3.1647  -3.1601  -3.0602  -3.0506
    -2.9565  -2.9486  -1.8508  -1.8355  -1.7737  -1.7556  -1.6747  -1.6687
    -0.6345  -0.1139  -0.1049   0.0042   0.0137   0.0657   0.0999   0.1458
     0.5994   1.2201   2.0727   2.2563   2.2577   2.3264   2.3357   2.3658
     2.3776   2.4689   3.2269   3.4998   3.8956   4.4238   4.9433   5.4815
     5.7263   9.6454   9.6525  10.2034  10.2313  10.8465  10.8692  12.7524
    14.1541  14.2025  14.2740

          k =-0.8713 0.0001 0.1052 (  5845 PWs)   bands (ev):

   -11.0412 -11.0250 -10.7717 -10.7475 -10.5346 -10.5262  -8.1059  -8.0953
    -7.8781  -7.8560  -7.6864  -7.6748  -3.1644  -3.1573  -3.0625  -3.0483
    -2.9557  -2.9436  -1.8530  -1.8307  -1.7768  -1.7475  -1.6768  -1.6675
    -0.5893  -0.1096  -0.1023   0.0078   0.0164   0.0649   0.1050   0.1384
     0.6049   1.1927   2.0661   2.2496   2.2505   2.3213   2.3294   2.3594
     2.3710   2.4501   3.1677   3.5264   3.8767   4.4663   4.9626   5.5103
     5.7602   9.6282   9.6599  10.1499  10.2310  10.8409  10.8692  12.1722
    14.1912  14.2691  14.4601

     the Fermi energy is     7.3903 ev

!    total energy              =    -289.38371800 Ry
     estimated scf accuracy    <          6.0E-09 Ry
     smearing contrib. (-TS)   =      -0.00000000 Ry
     internal energy E=F+TS    =    -289.38371800 Ry

     The total energy is F=E-TS. E is the sum of the following terms:
     one-electron contribution =     -83.11394991 Ry
     hartree contribution      =      92.76572958 Ry
     xc contribution           =    -101.56777128 Ry
     ewald contribution        =    -197.46772640 Ry

     convergence has been achieved in  52 iterations

     Forces acting on atoms (cartesian axes, Ry/au):

     atom    1 type  1   force =     0.00027156    0.00011552    0.00026229
     atom    2 type  1   force =     0.00020619    0.00008599   -0.00025141
     atom    3 type  1   force =    -0.00051763   -0.00033281    0.00007010
     atom    4 type  1   force =    -0.00016220   -0.00005438    0.00037353
     atom    5 type  1   force =    -0.00049438   -0.00025778   -0.00053641
     atom    6 type  1   force =     0.00032277   -0.00017936    0.00009436
     atom    7 type  1   force =     0.00032836   -0.00001060    0.00022167
     atom    8 type  1   force =    -0.00021681   -0.00041496   -0.00034737
     atom    9 type  1   force =     0.00049541   -0.00015147    0.00019671
     atom   10 type  1   force =    -0.00001588    0.00000225    0.00037196
     atom   11 type  1   force =     0.00069669    0.00009619   -0.00054393
     atom   12 type  1   force =    -0.00067725   -0.00024576    0.00011240
     atom   13 type  1   force =     0.00017502    0.00004792    0.00012100
     atom   14 type  1   force =    -0.00034340    0.00044425   -0.00031519
     atom   15 type  1   force =     0.00003316    0.00005969    0.00003106
     atom   16 type  1   force =    -0.00015431   -0.00013008    0.00036829
     atom   17 type  1   force =     0.00037174   -0.00024741   -0.00047800
     atom   18 type  1   force =    -0.00019005    0.00051041    0.00011637
     atom   19 type  1   force =     0.00017326    0.00013110    0.00024294
     atom   20 type  1   force =    -0.00038594    0.00021940   -0.00033861
     atom   21 type  1   force =     0.00008811    0.00055400    0.00019447
     atom   22 type  1   force =    -0.00026933   -0.00009691    0.00047586
     atom   23 type  1   force =     0.00077010   -0.00016236   -0.00054663
     atom   24 type  1   force =    -0.00013278   -0.00001987    0.00033949
     atom   25 type  2   force =    -0.00133889    0.00197425   -0.00014523
     atom   26 type  2   force =     0.00096650   -0.00193722   -0.00008975

     Total force =     0.004213     Total SCF correction =     0.000022


     Computing stress (Cartesian axis) and pressure

          total   stress  (Ry/bohr**3)                   (kbar)     P=       91.15
   0.00055812  -0.00000048  -0.00000628           82.10       -0.07       -0.92
  -0.00000048   0.00056131   0.00000208           -0.07       82.57        0.31
  -0.00000628   0.00000208   0.00073935           -0.92        0.31      108.76


     Writing all to output data dir ../results/h2_abs/H2abs_C.save/ :
     XML data file, charge density, pseudopotentials, collected wavefunctions

     init_run     :     58.18s CPU     46.42s WALL (       2 calls)
     electrons    :  16572.10s CPU  12656.29s WALL (      24 calls)
     update_pot   :      3.49s CPU      2.82s WALL (      22 calls)
     forces       :    174.77s CPU    158.40s WALL (      24 calls)
     stress       :   1197.88s CPU    654.54s WALL (      24 calls)

     Called by init_run:
     wfcinit      :     56.28s CPU     44.57s WALL (       2 calls)
     potinit      :      0.27s CPU      0.22s WALL (       2 calls)
     hinit0       :      0.79s CPU      0.80s WALL (       2 calls)

     Called by electrons:
     c_bands      :  14192.29s CPU  11038.22s WALL (     364 calls)
     sum_band     :   2218.20s CPU   1492.06s WALL (     364 calls)
     v_of_rho     :     15.28s CPU      8.61s WALL (     384 calls)
     newd         :    103.53s CPU     97.14s WALL (     384 calls)
     mix_rho      :     42.46s CPU     22.93s WALL (     364 calls)

     Called by c_bands:
     init_us_2    :    163.92s CPU    107.27s WALL (   21006 calls)
     cegterg      :  13873.37s CPU  10851.97s WALL (    9828 calls)

     Called by *egterg:
     cdiaghg      :    293.73s CPU    294.69s WALL (   38426 calls)
     h_psi        :   8807.50s CPU   5935.73s WALL (   39182 calls)
     s_psi        :   1521.34s CPU   1448.02s WALL (   39182 calls)
     g_psi        :     50.06s CPU     30.86s WALL (   29300 calls)

     Called by h_psi:
     h_psi:calbec :   1490.07s CPU   1405.95s WALL (   39182 calls)
     vloc_psi     :   5864.27s CPU   3092.52s WALL (   39182 calls)
     add_vuspsi   :   1416.00s CPU   1417.80s WALL (   39182 calls)

     General routines
     calbec       :   2216.21s CPU   2108.61s WALL (   52250 calls)
     fft          :     33.17s CPU     19.55s WALL (    2474 calls)
     ffts         :     15.39s CPU      8.18s WALL (    7738 calls)
     fftw         :   4779.87s CPU   2554.07s WALL ( 3765628 calls)
     interpolate  :      6.64s CPU      3.99s WALL (     384 calls)

     Parallel routines

     PWSCF        :      5h 0m CPU      3h45m WALL


   This run was terminated on:   2:39:51   6Aug2024            

=------------------------------------------------------------------------------=
   JOB DONE.
=------------------------------------------------------------------------------=
