
     Program PWSCF v.7.3.1 starts on  6Aug2024 at 21: 0:38 

     This program is part of the open-source Quantum ESPRESSO suite
     for quantum simulation of materials; please cite
         "P. Giannozzi et al., J. Phys.:Condens. Matter 21 395502 (2009);
         "P. Giannozzi et al., J. Phys.:Condens. Matter 29 465901 (2017);
         "P. Giannozzi et al., J. Chem. Phys. 152 154105 (2020);
          URL http://www.quantum-espresso.org", 
     in publications or presentations arising from this work. More details at
     http://www.quantum-espresso.org/quote

     Parallel version (MPI & OpenMP), running on       4 processor cores
     Number of MPI processes:                 2
     Threads/MPI process:                     2

     MPI processes distributed on     1 nodes
     2376 MiB available memory on the printing compute node when the environment starts

     Reading input from hydrogen_absorption.in

     Current dimensions of program PWSCF are:
     Max number of different atomic species (ntypx) = 10
     Max number of k-points (npk) =  40000
     Max angular momentum in pseudopotentials (lmaxx) =  4

     File ../results/h2_abs/H2abs_C.update deleted, as requested

     File ../results/h2_abs/H2abs_C.bfgs deleted, as requested

     IMPORTANT: XC functional enforced from input :
     Exchange-correlation= LDA
                           (   1   1   0   0   0   0   0)
     Any further DFT definition will be discarded
     Please, verify this is what you really want


     R & G space division:  proc/nbgrp/npool/nimage =       2
     Subspace diagonalization in iterative solution of the eigenvalue problem:
     a serial algorithm will be used


     Parallelization info
     --------------------
     sticks:   dense  smooth     PW     G-vecs:    dense   smooth      PW
     Min         882     351     84                59496    14997    1857
     Max         883     352     85                59501    15000    1858
     Sum        1765     703    169               118997    29997    3715

     Using Slab Decomposition


     Title: 
     H2_absorption_C                                                            


     bravais-lattice index     =            4
     lattice parameter (alat)  =       8.0000  a.u.
     unit-cell volume          =     880.6989 (a.u.)^3
     number of atoms/cell      =           26
     number of atomic types    =            2
     number of electrons       =        98.00
     number of Kohn-Sham states=           59
     kinetic-energy cutoff     =      40.0000  Ry
     charge density cutoff     =     400.0000  Ry
     scf convergence threshold =      1.0E-06
     mixing beta               =       0.0500
     number of iterations used =            8  local-TF  mixing
     energy convergence thresh.=      1.0E-04
     force convergence thresh. =      1.0E-03
     press convergence thresh. =      5.0E-01
     Exchange-correlation= LDA
                           (   1   1   0   0   0   0   0)
     nstep                     =           50


     celldm(1)=   8.000004  celldm(2)=   0.000000  celldm(3)=   1.986214
     celldm(4)=   0.000000  celldm(5)=   0.000000  celldm(6)=   0.000000

     crystal axes: (cart. coord. in units of alat)
               a(1) = (   1.000000   0.000000   0.000000 )  
               a(2) = (  -0.500000   0.866025   0.000000 )  
               a(3) = (   0.000000   0.000000   1.986214 )  

     reciprocal axes: (cart. coord. in units 2 pi/alat)
               b(1) = (  1.000000  0.577350 -0.000000 )  
               b(2) = (  0.000000  1.154701  0.000000 )  
               b(3) = (  0.000000 -0.000000  0.503470 )  


     PseudoPot. # 1 for C  read from file:
     /home/edoardocabiati/.burai/.pseudopot/C.pz-n-rrkjus_psl.0.1.UPF
     MD5 check sum: a3cecbabebb5b3a1aff122f23eb09bb0
     Pseudo is Ultrasoft + core correction, Zval =  4.0
     Generated using "atomic" code by A. Dal Corso  v.5.0.2 svn rev. 9415
     Using radial grid of 1073 points,  4 beta functions with: 
                l(1) =   0
                l(2) =   0
                l(3) =   1
                l(4) =   1
     Q(r) pseudized with 0 coefficients 


     PseudoPot. # 2 for H  read from file:
     /home/edoardocabiati/.burai/.pseudopot/H.pz-rrkjus_psl.0.1.UPF
     MD5 check sum: 1467ebfaa2880178e80d097b970df8c7
     Pseudo is Ultrasoft, Zval =  1.0
     Generated using "atomic" code by A. Dal Corso  v.5.0.2 svn rev. 9415
     Using radial grid of  929 points,  2 beta functions with: 
                l(1) =   0
                l(2) =   0
     Q(r) pseudized with 0 coefficients 


     atomic species   valence    mass     pseudopotential
     C                 4.00    12.01100     C ( 1.00)
     H                 1.00     1.00784     H ( 1.00)

     No symmetry found



   Cartesian axes

     site n.     atom                  positions (alat units)
         1        C      tau(   1) = (   0.0000000   0.0000000   0.3310344  )
         2        C      tau(   2) = (   0.0000000   0.0000000   0.9931072  )
         3        C      tau(   3) = (   0.0000000   0.0000000   1.6551781  )
         4        C      tau(   4) = (  -0.0000005   0.2886748   0.3310344  )
         5        C      tau(   5) = (   0.2500000   0.1443370   0.9931072  )
         6        C      tau(   6) = (  -0.0000005   0.2886748   1.6551781  )
         7        C      tau(   7) = (   0.5000000   0.0000000   0.3310344  )
         8        C      tau(   8) = (   0.5000000   0.0000000   0.9931072  )
         9        C      tau(   9) = (   0.5000000   0.0000000   1.6551781  )
        10        C      tau(  10) = (   0.4999995   0.2886748   0.3310344  )
        11        C      tau(  11) = (   0.7500000   0.1443370   0.9931072  )
        12        C      tau(  12) = (   0.4999995   0.2886748   1.6551781  )
        13        C      tau(  13) = (  -0.2500000   0.4330127   0.3310344  )
        14        C      tau(  14) = (  -0.2500000   0.4330127   0.9931072  )
        15        C      tau(  15) = (  -0.2500000   0.4330127   1.6551781  )
        16        C      tau(  16) = (  -0.2500005   0.7216875   0.3310344  )
        17        C      tau(  17) = (   0.0000000   0.5773497   0.9931072  )
        18        C      tau(  18) = (  -0.2500005   0.7216875   1.6551781  )
        19        C      tau(  19) = (   0.2500000   0.4330127   0.3310344  )
        20        C      tau(  20) = (   0.2500000   0.4330127   0.9931072  )
        21        C      tau(  21) = (   0.2500000   0.4330127   1.6551781  )
        22        C      tau(  22) = (   0.2499995   0.7216875   0.3310344  )
        23        C      tau(  23) = (   0.5000000   0.5773497   0.9931072  )
        24        C      tau(  24) = (   0.2499995   0.7216875   1.6551781  )
        25        H      tau(  25) = (   0.3050000   0.6495191   1.2314530  )
        26        H      tau(  26) = (   0.2300000   0.7794229   1.2314530  )

     number of k points=     1  Gaussian smearing, width (Ry)=  0.0100
                       cart. coord. in units 2pi/alat
        k(    1) = (   0.0000000   0.0000000   0.0000000), wk =   2.0000000

     Dense  grid:   118997 G-vectors     FFT dimensions: (  54,  54, 108)

     Smooth grid:    29997 G-vectors     FFT dimensions: (  36,  36,  64)

     Estimated max dynamical RAM per process >     149.24 MB

     Estimated total dynamical RAM >     298.48 MB

     Check: negative core charge=   -0.000003

     Initial potential from superposition of free atoms

     starting charge      97.9991, renormalised to      98.0000
     Starting wfcs are   98 randomized atomic wfcs

     total cpu time spent up to now is        1.6 secs

     Self-consistent Calculation

     iteration #  1     ecut=    40.00 Ry     beta= 0.05
     Davidson diagonalization with overlap
     ethr =  1.00E-02,  avg # of iterations =  5.0

     total cpu time spent up to now is        5.7 secs

     total energy              =    -286.77507284 Ry
     estimated scf accuracy    <       6.75309253 Ry

     iteration #  2     ecut=    40.00 Ry     beta= 0.05
     Davidson diagonalization with overlap
     ethr =  6.89E-03,  avg # of iterations =  1.0

     total cpu time spent up to now is        8.2 secs

     total energy              =    -284.76899458 Ry
     estimated scf accuracy    <       6.72488476 Ry

     iteration #  3     ecut=    40.00 Ry     beta= 0.05
     Davidson diagonalization with overlap
     ethr =  6.86E-03,  avg # of iterations =  1.0

     total cpu time spent up to now is       10.7 secs

     total energy              =    -282.60829402 Ry
     estimated scf accuracy    <       3.32492003 Ry

     iteration #  4     ecut=    40.00 Ry     beta= 0.05
     Davidson diagonalization with overlap
     ethr =  3.39E-03,  avg # of iterations =  2.0

     total cpu time spent up to now is       13.3 secs

     total energy              =    -283.46429646 Ry
     estimated scf accuracy    <       0.14089023 Ry

     iteration #  5     ecut=    40.00 Ry     beta= 0.05
     Davidson diagonalization with overlap
     ethr =  1.44E-04,  avg # of iterations =  3.0

     total cpu time spent up to now is       16.8 secs

     total energy              =    -283.50078794 Ry
     estimated scf accuracy    <       0.30836163 Ry

     iteration #  6     ecut=    40.00 Ry     beta= 0.05
     Davidson diagonalization with overlap
     ethr =  1.44E-04,  avg # of iterations =  1.0

     total cpu time spent up to now is       19.2 secs

     total energy              =    -283.33640662 Ry
     estimated scf accuracy    <       0.23968315 Ry

     iteration #  7     ecut=    40.00 Ry     beta= 0.05
     Davidson diagonalization with overlap
     ethr =  1.44E-04,  avg # of iterations =  3.0

     total cpu time spent up to now is       23.3 secs

     total energy              =    -283.39499873 Ry
     estimated scf accuracy    <       0.01750675 Ry

     iteration #  8     ecut=    40.00 Ry     beta= 0.05
     Davidson diagonalization with overlap
     ethr =  1.79E-05,  avg # of iterations =  4.0

     total cpu time spent up to now is       27.8 secs

     total energy              =    -283.39764935 Ry
     estimated scf accuracy    <       0.01663389 Ry

     iteration #  9     ecut=    40.00 Ry     beta= 0.05
     Davidson diagonalization with overlap
     ethr =  1.70E-05,  avg # of iterations =  1.0

     total cpu time spent up to now is       29.8 secs

     total energy              =    -283.39002921 Ry
     estimated scf accuracy    <       0.01584037 Ry

     iteration # 10     ecut=    40.00 Ry     beta= 0.05
     Davidson diagonalization with overlap
     ethr =  1.62E-05,  avg # of iterations =  1.0

     total cpu time spent up to now is       32.1 secs

     total energy              =    -283.39214110 Ry
     estimated scf accuracy    <       0.00253833 Ry

     iteration # 11     ecut=    40.00 Ry     beta= 0.05
     Davidson diagonalization with overlap
     ethr =  2.59E-06,  avg # of iterations =  5.0

     total cpu time spent up to now is       33.9 secs

     total energy              =    -283.39089289 Ry
     estimated scf accuracy    <       0.00372504 Ry

     iteration # 12     ecut=    40.00 Ry     beta= 0.05
     Davidson diagonalization with overlap
     ethr =  2.59E-06,  avg # of iterations =  2.0

     total cpu time spent up to now is       35.8 secs

     total energy              =    -283.39099787 Ry
     estimated scf accuracy    <       0.00120715 Ry

     iteration # 13     ecut=    40.00 Ry     beta= 0.05
     Davidson diagonalization with overlap
     ethr =  1.23E-06,  avg # of iterations =  3.0

     total cpu time spent up to now is       37.8 secs

     total energy              =    -283.39143441 Ry
     estimated scf accuracy    <       0.00082161 Ry

     iteration # 14     ecut=    40.00 Ry     beta= 0.05
     Davidson diagonalization with overlap
     ethr =  8.38E-07,  avg # of iterations =  1.0

     total cpu time spent up to now is       39.4 secs

     total energy              =    -283.39135544 Ry
     estimated scf accuracy    <       0.00073601 Ry

     iteration # 15     ecut=    40.00 Ry     beta= 0.05
     Davidson diagonalization with overlap
     ethr =  7.51E-07,  avg # of iterations =  1.0

     total cpu time spent up to now is       41.0 secs

     total energy              =    -283.39100706 Ry
     estimated scf accuracy    <       0.00056458 Ry

     iteration # 16     ecut=    40.00 Ry     beta= 0.05
     Davidson diagonalization with overlap
     ethr =  5.76E-07,  avg # of iterations =  2.0

     total cpu time spent up to now is       42.7 secs

     total energy              =    -283.39109105 Ry
     estimated scf accuracy    <       0.00002215 Ry

     iteration # 17     ecut=    40.00 Ry     beta= 0.05
     Davidson diagonalization with overlap
     ethr =  2.26E-08,  avg # of iterations =  6.0

     total cpu time spent up to now is       45.2 secs

     total energy              =    -283.39110908 Ry
     estimated scf accuracy    <       0.00002509 Ry

     iteration # 18     ecut=    40.00 Ry     beta= 0.05
     Davidson diagonalization with overlap
     ethr =  2.26E-08,  avg # of iterations =  2.0

     total cpu time spent up to now is       46.8 secs

     total energy              =    -283.39111095 Ry
     estimated scf accuracy    <       0.00001720 Ry

     iteration # 19     ecut=    40.00 Ry     beta= 0.05
     Davidson diagonalization with overlap
     ethr =  1.75E-08,  avg # of iterations =  1.0

     total cpu time spent up to now is       48.3 secs

     total energy              =    -283.39110348 Ry
     estimated scf accuracy    <       0.00001628 Ry

     iteration # 20     ecut=    40.00 Ry     beta= 0.05
     Davidson diagonalization with overlap
     ethr =  1.66E-08,  avg # of iterations =  4.0

     total cpu time spent up to now is       51.7 secs

     total energy              =    -283.39110723 Ry
     estimated scf accuracy    <       0.00000712 Ry

     iteration # 21     ecut=    40.00 Ry     beta= 0.05
     Davidson diagonalization with overlap
     ethr =  7.26E-09,  avg # of iterations =  1.0

     total cpu time spent up to now is       53.2 secs

     total energy              =    -283.39110641 Ry
     estimated scf accuracy    <       0.00000647 Ry

     iteration # 22     ecut=    40.00 Ry     beta= 0.05
     Davidson diagonalization with overlap
     ethr =  6.61E-09,  avg # of iterations =  1.0

     total cpu time spent up to now is       54.8 secs

     total energy              =    -283.39110645 Ry
     estimated scf accuracy    <       0.00000442 Ry

     iteration # 23     ecut=    40.00 Ry     beta= 0.05
     Davidson diagonalization with overlap
     ethr =  4.51E-09,  avg # of iterations =  2.0

     total cpu time spent up to now is       56.4 secs

     total energy              =    -283.39110673 Ry
     estimated scf accuracy    <       0.00000400 Ry

     iteration # 24     ecut=    40.00 Ry     beta= 0.05
     Davidson diagonalization with overlap
     ethr =  4.08E-09,  avg # of iterations =  1.0

     total cpu time spent up to now is       57.9 secs

     total energy              =    -283.39110683 Ry
     estimated scf accuracy    <       0.00000395 Ry

     iteration # 25     ecut=    40.00 Ry     beta= 0.05
     Davidson diagonalization with overlap
     ethr =  4.03E-09,  avg # of iterations =  1.0

     total cpu time spent up to now is       59.4 secs

     total energy              =    -283.39110703 Ry
     estimated scf accuracy    <       0.00000391 Ry

     iteration # 26     ecut=    40.00 Ry     beta= 0.05
     Davidson diagonalization with overlap
     ethr =  3.99E-09,  avg # of iterations =  1.0

     total cpu time spent up to now is       60.9 secs

     total energy              =    -283.39110671 Ry
     estimated scf accuracy    <       0.00000404 Ry

     iteration # 27     ecut=    40.00 Ry     beta= 0.05
     Davidson diagonalization with overlap
     ethr =  3.99E-09,  avg # of iterations =  1.0

     total cpu time spent up to now is       62.5 secs

     total energy              =    -283.39110589 Ry
     estimated scf accuracy    <       0.00000315 Ry

     iteration # 28     ecut=    40.00 Ry     beta= 0.05
     Davidson diagonalization with overlap
     ethr =  3.21E-09,  avg # of iterations =  2.0

     total cpu time spent up to now is       64.1 secs

     total energy              =    -283.39110619 Ry
     estimated scf accuracy    <       0.00000188 Ry

     iteration # 29     ecut=    40.00 Ry     beta= 0.05
     Davidson diagonalization with overlap
     ethr =  1.92E-09,  avg # of iterations =  1.0

     total cpu time spent up to now is       65.6 secs

     total energy              =    -283.39110609 Ry
     estimated scf accuracy    <       0.00000183 Ry

     iteration # 30     ecut=    40.00 Ry     beta= 0.05
     Davidson diagonalization with overlap
     ethr =  1.87E-09,  avg # of iterations =  2.0

     total cpu time spent up to now is       67.7 secs

     total energy              =    -283.39110575 Ry
     estimated scf accuracy    <       0.00000145 Ry

     iteration # 31     ecut=    40.00 Ry     beta= 0.05
     Davidson diagonalization with overlap
     ethr =  1.48E-09,  avg # of iterations =  2.0

     total cpu time spent up to now is       71.3 secs

     End of self-consistent calculation

          k = 0.0000 0.0000 0.0000 (  3715 PWs)   bands (ev):

   -10.5866  -9.6702  -9.4056  -4.5709  -3.1202  -3.0800  -3.0297  -2.8444
    -2.7892  -2.7669  -2.7547  -2.7517  -2.3268  -2.0260  -1.9370  -1.8684
    -1.8171  -1.5628  -1.5596  -1.5549  -1.2575   0.3465   1.2745   4.2934
     5.9166   5.9913   6.0556   6.0715   6.1165   6.1654   6.1854   6.1954
     6.2253   7.9589   8.8373   9.2587   9.3311   9.4001   9.7012  10.2561
    10.9120  10.9872  11.2403  11.2426  11.2899  11.3175  11.3455  11.3470
    12.1878  14.0425  14.0845  14.1631  15.1439  15.1685  16.6421  16.8082
    16.8517  16.8956  20.1166

     the Fermi energy is    13.1211 ev

!    total energy              =    -283.39110588 Ry
     estimated scf accuracy    <       0.00000060 Ry
     smearing contrib. (-TS)   =      -0.00000000 Ry
     internal energy E=F+TS    =    -283.39110588 Ry

     The total energy is F=E-TS. E is the sum of the following terms:
     one-electron contribution =       5.28531388 Ry
     hartree contribution      =      72.25719018 Ry
     xc contribution           =    -111.18912754 Ry
     ewald contribution        =    -249.74448240 Ry

     convergence has been achieved in  31 iterations

     Forces acting on atoms (cartesian axes, Ry/au):

     atom    1 type  1   force =    -0.00346416   -0.00312210    0.01782988
     atom    2 type  1   force =     0.05617058    0.03920747   -0.07677853
     atom    3 type  1   force =     0.01316922    0.00865797    0.00834302
     atom    4 type  1   force =    -0.00366248    0.00321845    0.01881196
     atom    5 type  1   force =    -0.01609844   -0.00134877   -0.01316324
     atom    6 type  1   force =    -0.01304349    0.00752409   -0.03061141
     atom    7 type  1   force =     0.00373507   -0.00209395    0.01679740
     atom    8 type  1   force =    -0.01699017   -0.01058051   -0.03199118
     atom    9 type  1   force =    -0.01083563    0.00609510    0.01066267
     atom   10 type  1   force =     0.00233954    0.00057001    0.02229059
     atom   11 type  1   force =     0.01546739    0.05876174   -0.04748954
     atom   12 type  1   force =     0.00992510    0.00625255   -0.03099478
     atom   13 type  1   force =     0.00306270   -0.00035334    0.00512609
     atom   14 type  1   force =     0.00284432    0.01040711   -0.04658813
     atom   15 type  1   force =    -0.00188831    0.00108455   -0.01834614
     atom   16 type  1   force =     0.00135307   -0.00312221    0.02021020
     atom   17 type  1   force =    -0.05919604   -0.03226622   -0.05768473
     atom   18 type  1   force =    -0.00049491   -0.01672119   -0.03048908
     atom   19 type  1   force =     0.00074048    0.00604648    0.01739787
     atom   20 type  1   force =    -0.02484245   -0.04510074   -0.05520349
     atom   21 type  1   force =    -0.00104903   -0.01568659    0.01212344
     atom   22 type  1   force =     0.00089399   -0.00190239    0.03038925
     atom   23 type  1   force =     0.09489079   -0.03317919   -0.07507808
     atom   24 type  1   force =    -0.00716532   -0.00000084    0.02854186
     atom   25 type  2   force =     0.13061567   -0.25640999    0.15598876
     atom   26 type  2   force =    -0.17647748    0.27406249    0.14990536

     Total force =     0.516541     Total SCF correction =     0.002221


     Computing stress (Cartesian axis) and pressure

          total   stress  (Ry/bohr**3)                   (kbar)     P=     3154.67
   0.03145489  -0.00005168  -0.00014815         4627.17       -7.60      -21.79
  -0.00005168   0.03153817   0.00002389           -7.60     4639.43        3.51
  -0.00014815   0.00002389   0.00134203          -21.79        3.51      197.42


     BFGS Geometry Optimization
     Energy error            =      0.0E+00 Ry
     Gradient error          =      2.7E-01 Ry/Bohr
     Cell gradient error     =      4.6E+03 kbar

     number of scf cycles    =   1
     number of bfgs steps    =   0

     enthalpy           new  =    -283.3911058775 Ry

     new trust radius        =       0.5000000000 bohr
     new conv_thr            =       0.0000010000 Ry

     new unit-cell volume =   1038.82947 a.u.^3 (   153.93865 Ang^3 )
     density =      3.13125 g/cm^3

CELL_PARAMETERS (alat=  8.00000437)
   1.084018953  -0.000138031  -0.000395731
  -0.542129015   0.939049612   0.000253130
  -0.000786007   0.000126748   1.993334430

ATOMIC_POSITIONS (crystal)
C                0.0000000000       -0.0000000000        0.1667858895    0   0   1
C                0.0000000000       -0.0000000000        0.4994837353    0   0   1
C                0.0000000000        0.0000000000        0.8333890991    0   0   1
C                0.1666660000        0.3333330000        0.1667924930    0   0   1
C                0.3333330000        0.1666660000        0.4999114893    0   0   1
C                0.1666660000        0.3333330000        0.8331271665    0   0   1
C                0.5000000000        0.0000000000        0.1667789470    0   0   1
C                0.5000000000       -0.0000000000        0.4997848888    0   0   1
C                0.5000000000        0.0000000000        0.8334046966    0   0   1
C                0.6666660000        0.3333330000        0.1668158837    0   0   1
C                0.8333330000        0.1666660000        0.4996806766    0   0   1
C                0.6666660000        0.3333330000        0.8331245887    0   0   1
C                0.0000000000        0.5000000000        0.1667004682    0   0   1
C               -0.0000000000        0.5000000000        0.4996867378    0   0   1
C               -0.0000000000        0.5000000000        0.8332096392    0   0   1
C                0.1666660000        0.8333330000        0.1668018949    0   0   1
C                0.3333330000        0.6666660000        0.4996121234    0   0   1
C                0.1666660000        0.8333330000        0.8331279891    0   0   1
C                0.5000000000        0.5000000000        0.1667829846    0   0   1
C                0.5000000000        0.5000000000        0.4996288075    0   0   1
C                0.5000000000        0.5000000000        0.8334145189    0   0   1
C                0.6666660000        0.8333330000        0.1668703397    0   0   1
C                0.8333330000        0.6666660000        0.4994951692    0   0   1
C                0.6666660000        0.8333330000        0.8335249176    0   0   1
H                0.6797673117        0.7460457589        0.6210488805
H                0.6797562972        0.9042264701        0.6210079752



     Writing config-only to output data dir ../results/h2_abs/H2abs_C.save/ :
     XML data file
     NEW-OLD atomic charge density approx. for the potential

     Check: negative core charge=   -0.000002

     total cpu time spent up to now is       76.1 secs

     Self-consistent Calculation

     iteration #  1     ecut=    40.00 Ry     beta= 0.05
     Davidson diagonalization with overlap
     ethr =  1.00E-06,  avg # of iterations = 16.0

     total cpu time spent up to now is       84.2 secs

     total energy              =    -286.64050132 Ry
     estimated scf accuracy    <       0.24432248 Ry

     iteration #  2     ecut=    40.00 Ry     beta= 0.05
     Davidson diagonalization with overlap
     ethr =  2.49E-04,  avg # of iterations =  1.0

     total cpu time spent up to now is       86.5 secs

     total energy              =    -286.49531092 Ry
     estimated scf accuracy    <       0.22781430 Ry

     iteration #  3     ecut=    40.00 Ry     beta= 0.05
     Davidson diagonalization with overlap
     ethr =  2.32E-04,  avg # of iterations =  2.0

     total cpu time spent up to now is       88.9 secs

     total energy              =    -286.53806557 Ry
     estimated scf accuracy    <       0.01138185 Ry

     iteration #  4     ecut=    40.00 Ry     beta= 0.05
     Davidson diagonalization with overlap
     ethr =  1.16E-05,  avg # of iterations =  3.0

     total cpu time spent up to now is       91.2 secs

     total energy              =    -286.54185774 Ry
     estimated scf accuracy    <       0.00840392 Ry

     iteration #  5     ecut=    40.00 Ry     beta= 0.05
     Davidson diagonalization with overlap
     ethr =  8.58E-06,  avg # of iterations =  1.0

     total cpu time spent up to now is       92.8 secs

     total energy              =    -286.53725881 Ry
     estimated scf accuracy    <       0.00871646 Ry

     iteration #  6     ecut=    40.00 Ry     beta= 0.05
     Davidson diagonalization with overlap
     ethr =  8.58E-06,  avg # of iterations =  2.0

     total cpu time spent up to now is       94.6 secs

     total energy              =    -286.53852430 Ry
     estimated scf accuracy    <       0.00037385 Ry

     iteration #  7     ecut=    40.00 Ry     beta= 0.05
     Davidson diagonalization with overlap
     ethr =  3.81E-07,  avg # of iterations =  4.0

     total cpu time spent up to now is       96.8 secs

     total energy              =    -286.53874205 Ry
     estimated scf accuracy    <       0.00038593 Ry

     iteration #  8     ecut=    40.00 Ry     beta= 0.05
     Davidson diagonalization with overlap
     ethr =  3.81E-07,  avg # of iterations =  1.0

     total cpu time spent up to now is       98.4 secs

     total energy              =    -286.53867879 Ry
     estimated scf accuracy    <       0.00024870 Ry

     iteration #  9     ecut=    40.00 Ry     beta= 0.05
     Davidson diagonalization with overlap
     ethr =  2.54E-07,  avg # of iterations =  2.0

     total cpu time spent up to now is      100.1 secs

     total energy              =    -286.53872585 Ry
     estimated scf accuracy    <       0.00004283 Ry

     iteration # 10     ecut=    40.00 Ry     beta= 0.05
     Davidson diagonalization with overlap
     ethr =  4.37E-08,  avg # of iterations =  4.0

     total cpu time spent up to now is      101.9 secs

     total energy              =    -286.53873460 Ry
     estimated scf accuracy    <       0.00005940 Ry

     iteration # 11     ecut=    40.00 Ry     beta= 0.05
     Davidson diagonalization with overlap
     ethr =  4.37E-08,  avg # of iterations =  1.0

     total cpu time spent up to now is      103.4 secs

     total energy              =    -286.53871001 Ry
     estimated scf accuracy    <       0.00006458 Ry

     iteration # 12     ecut=    40.00 Ry     beta= 0.05
     Davidson diagonalization with overlap
     ethr =  4.37E-08,  avg # of iterations =  1.0

     total cpu time spent up to now is      104.9 secs

     total energy              =    -286.53870343 Ry
     estimated scf accuracy    <       0.00001930 Ry

     iteration # 13     ecut=    40.00 Ry     beta= 0.05
     Davidson diagonalization with overlap
     ethr =  1.97E-08,  avg # of iterations =  2.0

     total cpu time spent up to now is      106.7 secs

     total energy              =    -286.53870799 Ry
     estimated scf accuracy    <       0.00000346 Ry

     iteration # 14     ecut=    40.00 Ry     beta= 0.05
     Davidson diagonalization with overlap
     ethr =  3.53E-09,  avg # of iterations =  2.0

     total cpu time spent up to now is      108.3 secs

     total energy              =    -286.53870913 Ry
     estimated scf accuracy    <       0.00000344 Ry

     iteration # 15     ecut=    40.00 Ry     beta= 0.05
     Davidson diagonalization with overlap
     ethr =  3.51E-09,  avg # of iterations =  1.0

     total cpu time spent up to now is      109.9 secs

     total energy              =    -286.53870821 Ry
     estimated scf accuracy    <       0.00000290 Ry

     iteration # 16     ecut=    40.00 Ry     beta= 0.05
     Davidson diagonalization with overlap
     ethr =  2.96E-09,  avg # of iterations =  4.0

     total cpu time spent up to now is      111.8 secs

     total energy              =    -286.53870966 Ry
     estimated scf accuracy    <       0.00000128 Ry

     iteration # 17     ecut=    40.00 Ry     beta= 0.05
     Davidson diagonalization with overlap
     ethr =  1.30E-09,  avg # of iterations =  1.0

     total cpu time spent up to now is      113.4 secs

     total energy              =    -286.53871012 Ry
     estimated scf accuracy    <       0.00000149 Ry

     iteration # 18     ecut=    40.00 Ry     beta= 0.05
     Davidson diagonalization with overlap
     ethr =  1.30E-09,  avg # of iterations =  1.0

     total cpu time spent up to now is      114.9 secs

     total energy              =    -286.53871044 Ry
     estimated scf accuracy    <       0.00000157 Ry

     iteration # 19     ecut=    40.00 Ry     beta= 0.05
     Davidson diagonalization with overlap
     ethr =  1.30E-09,  avg # of iterations =  1.0

     total cpu time spent up to now is      116.4 secs

     total energy              =    -286.53871034 Ry
     estimated scf accuracy    <       0.00000134 Ry

     iteration # 20     ecut=    40.00 Ry     beta= 0.05
     Davidson diagonalization with overlap
     ethr =  1.30E-09,  avg # of iterations =  2.0

     total cpu time spent up to now is      118.0 secs

     End of self-consistent calculation

          k = 0.0000 0.0000 0.0000 (  3715 PWs)   bands (ev):

   -10.8391  -9.9872  -9.7602  -5.0781  -4.2756  -4.0382  -3.8386  -3.7950
    -3.7505  -3.7042  -3.5811  -3.4929  -3.4193  -3.4174  -3.4097  -3.3389
    -3.3291  -3.2749  -3.2263  -3.2036  -2.9979  -0.0825   0.8073   4.0019
     4.0811   4.1143   4.1719   4.2344   4.2682   4.2822   4.3058   4.3090
     4.4089   6.3044   6.9567   7.3323   7.3711   7.5151   7.7830   8.3362
     8.3569   8.3642   8.4399   8.4422   8.4862   8.4892   9.0424   9.1340
    10.5249  11.5926  11.6350  11.7358  12.8267  12.8678  14.3056  14.3202
    14.3796  15.0626  17.5088

     the Fermi energy is    11.0582 ev

!    total energy              =    -286.53871339 Ry
     estimated scf accuracy    <       0.00000036 Ry
     smearing contrib. (-TS)   =      -0.00000000 Ry
     internal energy E=F+TS    =    -286.53871339 Ry

     The total energy is F=E-TS. E is the sum of the following terms:
     one-electron contribution =       9.71531868 Ry
     hartree contribution      =      61.15724297 Ry
     xc contribution           =    -105.96261358 Ry
     ewald contribution        =    -251.44866146 Ry

     convergence has been achieved in  20 iterations

     Forces acting on atoms (cartesian axes, Ry/au):

     atom    1 type  1   force =    -0.00356763   -0.00297477    0.01829805
     atom    2 type  1   force =     0.04873600    0.03391959   -0.06367544
     atom    3 type  1   force =     0.02002449    0.01292387    0.00499266
     atom    4 type  1   force =    -0.00084274    0.00110573    0.02107713
     atom    5 type  1   force =    -0.01216307   -0.00156614   -0.00258913
     atom    6 type  1   force =    -0.01578945    0.00824342   -0.03071590
     atom    7 type  1   force =     0.00452569   -0.00209362    0.01669977
     atom    8 type  1   force =    -0.01579023   -0.01059939   -0.02845628
     atom    9 type  1   force =    -0.01640122    0.01009384    0.00841615
     atom   10 type  1   force =    -0.00051548   -0.00168233    0.02528499
     atom   11 type  1   force =     0.01555134    0.05009224   -0.03735159
     atom   12 type  1   force =     0.01115492    0.00706449   -0.03136299
     atom   13 type  1   force =     0.00404330   -0.00020176    0.01295022
     atom   14 type  1   force =     0.00637684    0.00970422   -0.03787377
     atom   15 type  1   force =    -0.00286250    0.00244555   -0.00928157
     atom   16 type  1   force =     0.00147002    0.00035617    0.02277276
     atom   17 type  1   force =    -0.05546383   -0.03071461   -0.04882956
     atom   18 type  1   force =    -0.00159931   -0.02132875   -0.03057232
     atom   19 type  1   force =     0.00096590    0.00828887    0.01740585
     atom   20 type  1   force =    -0.02391305   -0.03627648   -0.04468577
     atom   21 type  1   force =    -0.00087383   -0.02367550    0.00992937
     atom   22 type  1   force =     0.00126710   -0.00329025    0.03031433
     atom   23 type  1   force =     0.07989204   -0.02441298   -0.05742502
     atom   24 type  1   force =    -0.00901943    0.00012171    0.01183266
     atom   25 type  2   force =     0.04786116   -0.10501727    0.11370233
     atom   26 type  2   force =    -0.08306702    0.11947414    0.10914305

     Total force =     0.285659     Total SCF correction =     0.000566


     Computing stress (Cartesian axis) and pressure

          total   stress  (Ry/bohr**3)                   (kbar)     P=     1149.22
   0.01121517   0.00006735  -0.00011765         1649.81        9.91      -17.31
   0.00006735   0.01115042   0.00001094            9.91     1640.28        1.61
  -0.00011765   0.00001094   0.00107117          -17.31        1.61      157.57

     Energy error            =      3.1E+00 Ry
     Gradient error          =      1.2E-01 Ry/Bohr
     Cell gradient error     =      1.6E+03 kbar

     number of scf cycles    =   2
     number of bfgs steps    =   1

     enthalpy           old  =    -283.3911058775 Ry
     enthalpy           new  =    -286.5387133904 Ry

     CASE: enthalpy          _new < enthalpy          _old

     new trust radius        =       0.3267092172 bohr
     new conv_thr            =       0.0000010000 Ry

     new unit-cell volume =   1179.04845 a.u.^3 (   174.71696 Ang^3 )
     density =      2.75887 g/cm^3

CELL_PARAMETERS (alat=  8.00000437)
   1.138710819   0.003646887  -0.003515236
  -0.566197206   0.980926214   0.001938749
  -0.007461726   0.000440156   2.057851267

ATOMIC_POSITIONS (crystal)
C               -0.0000013409        0.0000002753        0.1680406153    0   0   1
C                0.0000046661       -0.0000009580        0.4956405023    0   0   1
C               -0.0000003659        0.0000000751        0.8336079582    0   0   1
C                0.1666644555        0.3333333171        0.1682990664    0   0   1
C                0.3333331897        0.1666659610        0.5001117515    0   0   1
C                0.1666682509        0.3333325379        0.8310451230    0   0   1
C                0.4999987762        0.0000002513        0.1679054390    0   0   1
C                0.5000020853       -0.0000004281        0.4979849604    0   0   1
C                0.4999993833        0.0000001266        0.8338943930    0   0   1
C                0.6666641471        0.3333333804        0.1686330660    0   0   1
C                0.8333357371        0.1666654380        0.4975133159    0   0   1
C                0.6666682983        0.3333325281        0.8309893972    0   0   1
C               -0.0000009490        0.5000001948        0.1678545292    0   0   1
C                0.0000027754        0.4999994302        0.4974334972    0   0   1
C                0.0000006802        0.4999998604        0.8329034709    0   0   1
C                0.1666643312        0.8333333426        0.1684337587    0   0   1
C                0.3333365782        0.6666652653        0.4966225796    0   0   1
C                0.1666682403        0.8333325400        0.8310564150    0   0   1
C                0.4999987245        0.5000002619        0.1679610025    0   0   1
C                0.5000032746        0.4999993277        0.4969786768    0   0   1
C                0.4999992724        0.5000001494        0.8340084674    0   0   1
C                0.6666637786        0.8333334561        0.1689188414    0   0   1
C                0.8333372081        0.6666651360        0.4962364133    0   0   1
C                0.6666651329        0.8333331780        0.8337322660    0   0   1
H                0.6781604698        0.7400802886        0.6272382529
H                0.6779179144        0.9124546076        0.6269497679



     Writing config-only to output data dir ../results/h2_abs/H2abs_C.save/ :
     XML data file
     NEW-OLD atomic charge density approx. for the potential

     Check: negative core charge=   -0.000002

     total cpu time spent up to now is      121.6 secs

     Self-consistent Calculation

     iteration #  1     ecut=    40.00 Ry     beta= 0.05
     Davidson diagonalization with overlap
     ethr =  1.00E-06,  avg # of iterations = 16.0

     total cpu time spent up to now is      126.6 secs

     total energy              =    -287.37123693 Ry
     estimated scf accuracy    <       0.08829982 Ry

     iteration #  2     ecut=    40.00 Ry     beta= 0.05
     Davidson diagonalization with overlap
     ethr =  9.01E-05,  avg # of iterations =  1.0

     total cpu time spent up to now is      128.1 secs

     total energy              =    -287.32116475 Ry
     estimated scf accuracy    <       0.08196483 Ry

     iteration #  3     ecut=    40.00 Ry     beta= 0.05
     Davidson diagonalization with overlap
     ethr =  8.36E-05,  avg # of iterations =  2.0

     total cpu time spent up to now is      129.8 secs

     total energy              =    -287.33370579 Ry
     estimated scf accuracy    <       0.00251712 Ry

     iteration #  4     ecut=    40.00 Ry     beta= 0.05
     Davidson diagonalization with overlap
     ethr =  2.57E-06,  avg # of iterations =  7.0

     total cpu time spent up to now is      132.3 secs

     total energy              =    -287.33529510 Ry
     estimated scf accuracy    <       0.00220285 Ry

     iteration #  5     ecut=    40.00 Ry     beta= 0.05
     Davidson diagonalization with overlap
     ethr =  2.25E-06,  avg # of iterations =  2.0

     total cpu time spent up to now is      133.9 secs

     total energy              =    -287.33457236 Ry
     estimated scf accuracy    <       0.00207346 Ry

     iteration #  6     ecut=    40.00 Ry     beta= 0.05
     Davidson diagonalization with overlap
     ethr =  2.12E-06,  avg # of iterations =  2.0

     total cpu time spent up to now is      138.1 secs

     total energy              =    -287.33478319 Ry
     estimated scf accuracy    <       0.00025586 Ry

     iteration #  7     ecut=    40.00 Ry     beta= 0.05
     Davidson diagonalization with overlap
     ethr =  2.61E-07,  avg # of iterations =  4.0

     total cpu time spent up to now is      141.1 secs

     total energy              =    -287.33479985 Ry
     estimated scf accuracy    <       0.00030410 Ry

     iteration #  8     ecut=    40.00 Ry     beta= 0.05
     Davidson diagonalization with overlap
     ethr =  2.61E-07,  avg # of iterations =  1.0

     total cpu time spent up to now is      142.8 secs

     total energy              =    -287.33476277 Ry
     estimated scf accuracy    <       0.00017800 Ry

     iteration #  9     ecut=    40.00 Ry     beta= 0.05
     Davidson diagonalization with overlap
     ethr =  1.82E-07,  avg # of iterations =  2.0

     total cpu time spent up to now is      144.8 secs

     total energy              =    -287.33478161 Ry
     estimated scf accuracy    <       0.00002716 Ry

     iteration # 10     ecut=    40.00 Ry     beta= 0.05
     Davidson diagonalization with overlap
     ethr =  2.77E-08,  avg # of iterations =  2.0

     total cpu time spent up to now is      147.7 secs

     total energy              =    -287.33478405 Ry
     estimated scf accuracy    <       0.00002591 Ry

     iteration # 11     ecut=    40.00 Ry     beta= 0.05
     Davidson diagonalization with overlap
     ethr =  2.64E-08,  avg # of iterations =  1.0

     total cpu time spent up to now is      149.8 secs

     total energy              =    -287.33477704 Ry
     estimated scf accuracy    <       0.00002364 Ry

     iteration # 12     ecut=    40.00 Ry     beta= 0.05
     Davidson diagonalization with overlap
     ethr =  2.41E-08,  avg # of iterations =  2.0

     total cpu time spent up to now is      152.2 secs

     total energy              =    -287.33478227 Ry
     estimated scf accuracy    <       0.00000582 Ry

     iteration # 13     ecut=    40.00 Ry     beta= 0.05
     Davidson diagonalization with overlap
     ethr =  5.94E-09,  avg # of iterations =  4.0

     total cpu time spent up to now is      154.1 secs

     total energy              =    -287.33478263 Ry
     estimated scf accuracy    <       0.00000724 Ry

     iteration # 14     ecut=    40.00 Ry     beta= 0.05
     Davidson diagonalization with overlap
     ethr =  5.94E-09,  avg # of iterations =  1.0

     total cpu time spent up to now is      155.7 secs

     total energy              =    -287.33478367 Ry
     estimated scf accuracy    <       0.00000505 Ry

     iteration # 15     ecut=    40.00 Ry     beta= 0.05
     Davidson diagonalization with overlap
     ethr =  5.15E-09,  avg # of iterations =  1.0

     total cpu time spent up to now is      157.4 secs

     total energy              =    -287.33478192 Ry
     estimated scf accuracy    <       0.00000577 Ry

     iteration # 16     ecut=    40.00 Ry     beta= 0.05
     Davidson diagonalization with overlap
     ethr =  5.15E-09,  avg # of iterations =  4.0

     total cpu time spent up to now is      159.2 secs

     total energy              =    -287.33478320 Ry
     estimated scf accuracy    <       0.00000112 Ry

     iteration # 17     ecut=    40.00 Ry     beta= 0.05
     Davidson diagonalization with overlap
     ethr =  1.14E-09,  avg # of iterations =  5.0

     total cpu time spent up to now is      161.4 secs

     total energy              =    -287.33478397 Ry
     estimated scf accuracy    <       0.00000243 Ry

     iteration # 18     ecut=    40.00 Ry     beta= 0.05
     Davidson diagonalization with overlap
     ethr =  1.14E-09,  avg # of iterations =  1.0

     total cpu time spent up to now is      162.9 secs

     total energy              =    -287.33478350 Ry
     estimated scf accuracy    <       0.00000201 Ry

     iteration # 19     ecut=    40.00 Ry     beta= 0.05
     Davidson diagonalization with overlap
     ethr =  1.14E-09,  avg # of iterations =  4.0

     total cpu time spent up to now is      164.6 secs

     End of self-consistent calculation

          k = 0.0000 0.0000 0.0000 (  3715 PWs)   bands (ev):

   -11.1486 -10.4387 -10.3260  -5.5333  -5.3305  -5.2159  -4.9516  -4.9235
    -4.8668  -4.7602  -4.6526  -4.6486  -4.4860  -4.3404  -4.3210  -4.1589
    -4.1082  -4.0803  -4.0526  -4.0118  -3.9911  -0.7295   0.2266   2.6996
     2.8033   2.8561   2.8957   2.9074   2.9211   3.0375   3.0526   3.0568
     3.2026   4.9679   5.6109   6.0079   6.0969   6.1392   6.3929   6.5123
     6.5461   6.5859   6.6181   6.6281   6.6779   6.9895   7.5773   7.6079
     8.9280   9.9840  10.0372  10.1388  11.0383  11.1030  12.3132  12.3512
    12.3861  13.0227  15.5990

     the Fermi energy is     9.4557 ev

!    total energy              =    -287.33478698 Ry
     estimated scf accuracy    <       0.00000016 Ry
     smearing contrib. (-TS)   =      -0.00000000 Ry
     internal energy E=F+TS    =    -287.33478698 Ry

     The total energy is F=E-TS. E is the sum of the following terms:
     one-electron contribution =      -0.26777999 Ry
     hartree contribution      =      60.04065753 Ry
     xc contribution           =    -102.98639626 Ry
     ewald contribution        =    -244.12126826 Ry

     convergence has been achieved in  19 iterations

     Forces acting on atoms (cartesian axes, Ry/au):

     atom    1 type  1   force =    -0.01085913   -0.00589499    0.01853449
     atom    2 type  1   force =     0.04682792    0.03065357   -0.03776018
     atom    3 type  1   force =     0.01566326    0.01078307   -0.00214777
     atom    4 type  1   force =     0.00807746    0.00520940    0.01271528
     atom    5 type  1   force =    -0.02065258   -0.00814635   -0.01117490
     atom    6 type  1   force =    -0.00185731    0.00869871   -0.01125464
     atom    7 type  1   force =    -0.00499427   -0.00645817    0.01730875
     atom    8 type  1   force =    -0.00270091   -0.00580054   -0.01256723
     atom    9 type  1   force =    -0.02550720    0.00616423    0.00054872
     atom   10 type  1   force =     0.00689104    0.00253131    0.01617528
     atom   11 type  1   force =     0.00763536    0.02844001   -0.02240593
     atom   12 type  1   force =     0.01556684    0.00985257   -0.01155876
     atom   13 type  1   force =    -0.00506322   -0.00456930    0.01477530
     atom   14 type  1   force =     0.02202083    0.01652346   -0.03548871
     atom   15 type  1   force =    -0.01404868   -0.00207074   -0.02211480
     atom   16 type  1   force =     0.00954636    0.00558044    0.01407427
     atom   17 type  1   force =    -0.05867509   -0.03299843   -0.03833495
     atom   18 type  1   force =     0.00555650   -0.01242228   -0.01118595
     atom   19 type  1   force =    -0.00867278    0.00289311    0.01774200
     atom   20 type  1   force =    -0.01023000   -0.01644401   -0.01860587
     atom   21 type  1   force =    -0.00910215   -0.03155315    0.00177592
     atom   22 type  1   force =     0.00770453    0.00083616    0.02162020
     atom   23 type  1   force =     0.04479102   -0.01512198   -0.02924713
     atom   24 type  1   force =    -0.00228562    0.00456040    0.01515440
     atom   25 type  2   force =     0.00461585   -0.01608611    0.05623713
     atom   26 type  2   force =    -0.02024802    0.02483962    0.05718508

     Total force =     0.131371     Total SCF correction =     0.000741


     Computing stress (Cartesian axis) and pressure

          total   stress  (Ry/bohr**3)                   (kbar)     P=      346.11
   0.00315044  -0.00022061  -0.00009441          463.45      -32.45      -13.89
  -0.00022061   0.00340241  -0.00000473          -32.45      500.51       -0.70
  -0.00009441  -0.00000473   0.00050554          -13.89       -0.70       74.37

     Energy error            =      8.0E-01 Ry
     Gradient error          =      5.7E-02 Ry/Bohr
     Cell gradient error     =      5.0E+02 kbar

     number of scf cycles    =   3
     number of bfgs steps    =   2

     enthalpy           old  =    -286.5387133904 Ry
     enthalpy           new  =    -287.3347869823 Ry

     CASE: enthalpy          _new < enthalpy          _old

     new trust radius        =       0.1973172484 bohr
     new conv_thr            =       0.0000005719 Ry

     new unit-cell volume =   1264.02097 a.u.^3 (   187.30858 Ang^3 )
     density =      2.57340 g/cm^3

CELL_PARAMETERS (alat=  8.00000437)
   1.159576211  -0.005508578  -0.007605179
  -0.584555496   1.012558350   0.003752071
  -0.015723929  -0.000270207   2.108522233

ATOMIC_POSITIONS (crystal)
C               -0.0000133359        0.0000011656        0.1699158707    0   0   1
C                0.0000295004       -0.0000028534        0.4919716077    0   0   1
C                0.0000009172       -0.0000000061        0.8333584516    0   0   1
C                0.1666560983        0.3333339542        0.1696504518    0   0   1
C                0.3333402949        0.1666654503        0.4992022077    0   0   1
C                0.1666758293        0.3333319367        0.8298388193    0   0   1
C                0.4999875803        0.0000010815        0.1696458865    0   0   1
C                0.5000104597       -0.0000010814        0.4967231693    0   0   1
C                0.4999989098        0.0000001773        0.8339386408    0   0   1
C                0.6666535389        0.3333341862        0.1703486494    0   0   1
C                0.8333504666        0.1666643147        0.4953793348    0   0   1
C                0.6666760788        0.3333319113        0.8297465758    0   0   1
C               -0.0000104866        0.5000008995        0.1694743623    0   0   1
C                0.0000257854        0.4999977167        0.4940013812    0   0   1
C                0.0000148036        0.4999988368        0.8308802382    0   0   1
C                0.1666550892        0.8333340461        0.1699285382    0   0   1
C                0.3333615527        0.6666633900        0.4928768273    0   0   1
C                0.1666757732        0.8333319424        0.8298576767    0   0   1
C                0.4999872440        0.5000011138        0.1697479511    0   0   1
C                0.5000157115        0.4999983527        0.4951941458    0   0   1
C                0.4999980001        0.5000002599        0.8341783453    0   0   1
C                0.6666496517        0.8333345223        0.1711277670    0   0   1
C                0.8333565653        0.6666636430        0.4934971802    0   0   1
C                0.6666553724        0.8333338963        0.8349541358    0   0   1
H                0.6771575102        0.7409775708        0.6323681882
H                0.6766223842        0.9137351269        0.6321931274



     Writing config-only to output data dir ../results/h2_abs/H2abs_C.save/ :
     XML data file
     NEW-OLD atomic charge density approx. for the potential

     Check: negative core charge=   -0.000003

     total cpu time spent up to now is      168.3 secs

     Self-consistent Calculation

     iteration #  1     ecut=    40.00 Ry     beta= 0.05
     Davidson diagonalization with overlap
     ethr =  1.00E-06,  avg # of iterations = 19.0

     total cpu time spent up to now is      173.4 secs

     total energy              =    -287.46984863 Ry
     estimated scf accuracy    <       0.02540896 Ry

     iteration #  2     ecut=    40.00 Ry     beta= 0.05
     Davidson diagonalization with overlap
     ethr =  2.59E-05,  avg # of iterations =  1.0

     total cpu time spent up to now is      174.8 secs

     total energy              =    -287.45529604 Ry
     estimated scf accuracy    <       0.02370530 Ry

     iteration #  3     ecut=    40.00 Ry     beta= 0.05
     Davidson diagonalization with overlap
     ethr =  2.42E-05,  avg # of iterations =  2.0

     total cpu time spent up to now is      176.6 secs

     total energy              =    -287.45954467 Ry
     estimated scf accuracy    <       0.00045367 Ry

     iteration #  4     ecut=    40.00 Ry     beta= 0.05
     Davidson diagonalization with overlap
     ethr =  4.63E-07,  avg # of iterations =  7.0

     total cpu time spent up to now is      178.8 secs

     total energy              =    -287.45974704 Ry
     estimated scf accuracy    <       0.00038987 Ry

     iteration #  5     ecut=    40.00 Ry     beta= 0.05
     Davidson diagonalization with overlap
     ethr =  3.98E-07,  avg # of iterations =  1.0

     total cpu time spent up to now is      180.4 secs

     total energy              =    -287.45966144 Ry
     estimated scf accuracy    <       0.00034507 Ry

     iteration #  6     ecut=    40.00 Ry     beta= 0.05
     Davidson diagonalization with overlap
     ethr =  3.52E-07,  avg # of iterations =  2.0

     total cpu time spent up to now is      181.9 secs

     total energy              =    -287.45967589 Ry
     estimated scf accuracy    <       0.00005839 Ry

     iteration #  7     ecut=    40.00 Ry     beta= 0.05
     Davidson diagonalization with overlap
     ethr =  5.96E-08,  avg # of iterations =  4.0

     total cpu time spent up to now is      183.6 secs

     total energy              =    -287.45968605 Ry
     estimated scf accuracy    <       0.00004607 Ry

     iteration #  8     ecut=    40.00 Ry     beta= 0.05
     Davidson diagonalization with overlap
     ethr =  4.70E-08,  avg # of iterations =  1.0

     total cpu time spent up to now is      185.1 secs

     total energy              =    -287.45968799 Ry
     estimated scf accuracy    <       0.00004694 Ry

     iteration #  9     ecut=    40.00 Ry     beta= 0.05
     Davidson diagonalization with overlap
     ethr =  4.70E-08,  avg # of iterations =  1.0

     total cpu time spent up to now is      186.6 secs

     total energy              =    -287.45968684 Ry
     estimated scf accuracy    <       0.00004920 Ry

     iteration # 10     ecut=    40.00 Ry     beta= 0.05
     Davidson diagonalization with overlap
     ethr =  4.70E-08,  avg # of iterations =  1.0

     total cpu time spent up to now is      188.1 secs

     total energy              =    -287.45967303 Ry
     estimated scf accuracy    <       0.00003995 Ry

     iteration # 11     ecut=    40.00 Ry     beta= 0.05
     Davidson diagonalization with overlap
     ethr =  4.08E-08,  avg # of iterations =  2.0

     total cpu time spent up to now is      189.7 secs

     total energy              =    -287.45967764 Ry
     estimated scf accuracy    <       0.00000986 Ry

     iteration # 12     ecut=    40.00 Ry     beta= 0.05
     Davidson diagonalization with overlap
     ethr =  1.01E-08,  avg # of iterations =  1.0

     total cpu time spent up to now is      191.1 secs

     total energy              =    -287.45967623 Ry
     estimated scf accuracy    <       0.00000848 Ry

     iteration # 13     ecut=    40.00 Ry     beta= 0.05
     Davidson diagonalization with overlap
     ethr =  8.66E-09,  avg # of iterations =  2.0

     total cpu time spent up to now is      192.7 secs

     total energy              =    -287.45967732 Ry
     estimated scf accuracy    <       0.00000287 Ry

     iteration # 14     ecut=    40.00 Ry     beta= 0.05
     Davidson diagonalization with overlap
     ethr =  2.93E-09,  avg # of iterations =  4.0

     total cpu time spent up to now is      194.5 secs

     total energy              =    -287.45967846 Ry
     estimated scf accuracy    <       0.00000483 Ry

     iteration # 15     ecut=    40.00 Ry     beta= 0.05
     Davidson diagonalization with overlap
     ethr =  2.93E-09,  avg # of iterations =  1.0

     total cpu time spent up to now is      196.0 secs

     total energy              =    -287.45967936 Ry
     estimated scf accuracy    <       0.00000494 Ry

     iteration # 16     ecut=    40.00 Ry     beta= 0.05
     Davidson diagonalization with overlap
     ethr =  2.93E-09,  avg # of iterations =  1.0

     total cpu time spent up to now is      197.6 secs

     total energy              =    -287.45967841 Ry
     estimated scf accuracy    <       0.00000637 Ry

     iteration # 17     ecut=    40.00 Ry     beta= 0.05
     Davidson diagonalization with overlap
     ethr =  2.93E-09,  avg # of iterations =  1.0

     total cpu time spent up to now is      199.1 secs

     total energy              =    -287.45967780 Ry
     estimated scf accuracy    <       0.00000386 Ry

     iteration # 18     ecut=    40.00 Ry     beta= 0.05
     Davidson diagonalization with overlap
     ethr =  2.93E-09,  avg # of iterations =  3.0

     total cpu time spent up to now is      200.7 secs

     total energy              =    -287.45967828 Ry
     estimated scf accuracy    <       0.00000090 Ry

     iteration # 19     ecut=    40.00 Ry     beta= 0.05
     Davidson diagonalization with overlap
     ethr =  9.22E-10,  avg # of iterations =  1.0

     total cpu time spent up to now is      202.2 secs

     total energy              =    -287.45967808 Ry
     estimated scf accuracy    <       0.00000084 Ry

     iteration # 20     ecut=    40.00 Ry     beta= 0.05
     Davidson diagonalization with overlap
     ethr =  8.52E-10,  avg # of iterations =  4.0

     total cpu time spent up to now is      204.1 secs

     End of self-consistent calculation

          k = 0.0000 0.0000 0.0000 (  3715 PWs)   bands (ev):

   -11.3575 -10.7213 -10.6900  -5.9848  -5.9143  -5.6915  -5.6523  -5.4790
    -5.4315  -5.4226  -5.3156  -5.2309  -5.0366  -4.7599  -4.7497  -4.6505
    -4.5556  -4.5390  -4.5021  -4.4768  -4.4364  -1.1253  -0.1226   2.0145
     2.1332   2.1585   2.1773   2.2232   2.2929   2.3122   2.3227   2.4550
     2.6379   4.1946   4.8798   5.3462   5.4246   5.4844   5.6089   5.6545
     5.6772   5.7039   5.7240   5.7306   5.7795   6.2428   6.7013   6.8552
     7.9887   9.1732   9.2428   9.3366  10.0962  10.1684  11.2321  11.2794
    11.3295  11.8344  14.5405

     the Fermi energy is     8.5803 ev

!    total energy              =    -287.45967899 Ry
     estimated scf accuracy    <       0.00000049 Ry
     smearing contrib. (-TS)   =      -0.00000000 Ry
     internal energy E=F+TS    =    -287.45967899 Ry

     The total energy is F=E-TS. E is the sum of the following terms:
     one-electron contribution =      -8.35595059 Ry
     hartree contribution      =      60.95475343 Ry
     xc contribution           =    -101.59177110 Ry
     ewald contribution        =    -238.46671073 Ry

     convergence has been achieved in  20 iterations

     Forces acting on atoms (cartesian axes, Ry/au):

     atom    1 type  1   force =     0.00609930    0.00423852    0.01639435
     atom    2 type  1   force =     0.02024714    0.01457751   -0.01883033
     atom    3 type  1   force =     0.03346643    0.02076426    0.00092967
     atom    4 type  1   force =    -0.00964829   -0.00404885    0.01059624
     atom    5 type  1   force =    -0.00077744    0.00201639   -0.01843545
     atom    6 type  1   force =    -0.01486429   -0.00442966   -0.00384622
     atom    7 type  1   force =     0.01079740    0.00378839    0.01547388
     atom    8 type  1   force =    -0.01771351   -0.01405248   -0.00707468
     atom    9 type  1   force =    -0.00530691    0.01571692    0.00043047
     atom   10 type  1   force =    -0.01037550   -0.00693136    0.01208994
     atom   11 type  1   force =     0.02214479    0.03217830   -0.01795005
     atom   12 type  1   force =    -0.00410684   -0.00080883   -0.00256106
     atom   13 type  1   force =     0.01142347    0.00527906    0.01148403
     atom   14 type  1   force =     0.00240181    0.00448890   -0.03195200
     atom   15 type  1   force =     0.00290433    0.00833427   -0.02399589
     atom   16 type  1   force =    -0.00758244   -0.00481050    0.01119208
     atom   17 type  1   force =    -0.03481799   -0.01922064   -0.02713798
     atom   18 type  1   force =    -0.01306668   -0.01804448   -0.00415527
     atom   19 type  1   force =     0.00796541    0.01103317    0.01546486
     atom   20 type  1   force =    -0.02334312   -0.01998581   -0.00814809
     atom   21 type  1   force =     0.00946627   -0.02047893    0.00136080
     atom   22 type  1   force =    -0.00989042   -0.00843660    0.01758256
     atom   23 type  1   force =     0.04985660   -0.00242900   -0.01848677
     atom   24 type  1   force =    -0.01822348   -0.00442297    0.01668109
     atom   25 type  2   force =    -0.00636448    0.00843037    0.02578282
     atom   26 type  2   force =    -0.00069158   -0.00274594    0.02711099

     Total force =     0.084967     Total SCF correction =     0.001487


     Computing stress (Cartesian axis) and pressure

          total   stress  (Ry/bohr**3)                   (kbar)     P=       46.38
   0.00068881   0.00053606  -0.00004861          101.33       78.86       -7.15
   0.00053606   0.00008671  -0.00000519           78.86       12.75       -0.76
  -0.00004861  -0.00000519   0.00017036           -7.15       -0.76       25.06

     Energy error            =      1.2E-01 Ry
     Gradient error          =      3.2E-02 Ry/Bohr
     Cell gradient error     =      1.0E+02 kbar

     number of scf cycles    =   4
     number of bfgs steps    =   3

     enthalpy           old  =    -287.3347869823 Ry
     enthalpy           new  =    -287.4596789869 Ry

     CASE: enthalpy          _new < enthalpy          _old

     new trust radius        =       0.1555918255 bohr
     new conv_thr            =       0.0000003195 Ry

     new unit-cell volume =   1300.65005 a.u.^3 (   192.73645 Ang^3 )
     density =      2.50093 g/cm^3

CELL_PARAMETERS (alat=  8.00000437)
   1.178362542   0.011228236  -0.010391238
  -0.579456759   1.004202053   0.004909440
  -0.021354328  -0.000607822   2.135240076

ATOMIC_POSITIONS (crystal)
C               -0.0000346947        0.0000012521        0.1716889273    0   0   1
C                0.0000570828       -0.0000031981        0.4895488698    0   0   1
C                0.0000002375       -0.0000000364        0.8333566089    0   0   1
C                0.1666421206        0.3333340286        0.1708355400    0   0   1
C                0.3333625579        0.1666654899        0.4975475713    0   0   1
C                0.1666821615        0.3333318048        0.8292186615    0   0   1
C                0.4999674554        0.0000011603        0.1713106939    0   0   1
C                0.5000205661       -0.0000011957        0.4958435599    0   0   1
C                0.4999982988        0.0000001884        0.8339792816    0   0   1
C                0.6666372973        0.3333342927        0.1717484827    0   0   1
C                0.8333743023        0.1666641765        0.4934339756    0   0   1
C                0.6666810497        0.3333317625        0.8292153455    0   0   1
C               -0.0000257576        0.5000009822        0.1708102942    0   0   1
C                0.0000673147        0.4999975536        0.4906203152    0   0   1
C                0.0000451150        0.4999987895        0.8284922750    0   0   1
C                0.1666402121        0.8333341331        0.1711987814    0   0   1
C                0.3333983195        0.6666631341        0.4897837600    0   0   1
C                0.1666824335        0.8333318145        0.8292157455    0   0   1
C                0.4999670509        0.5000011987        0.1714247582    0   0   1
C                0.5000281223        0.4999981582        0.4941019250    0   0   1
C                0.4999961446        0.5000002786        0.8343247904    0   0   1
C                0.6666263915        0.8333346474        0.1730805356    0   0   1
C                0.8333822712        0.6666634056        0.4913595438    0   0   1
C                0.6666343120        0.8333339320        0.8365483313    0   0   1
H                0.6766207638        0.7433708893        0.6356792266
H                0.6758730910        0.9130330291        0.6356373865



     Writing config-only to output data dir ../results/h2_abs/H2abs_C.save/ :
     XML data file
     NEW-OLD atomic charge density approx. for the potential

     Check: negative core charge=   -0.000004

     total cpu time spent up to now is      207.8 secs

     Self-consistent Calculation

     iteration #  1     ecut=    40.00 Ry     beta= 0.05
     Davidson diagonalization with overlap
     ethr =  1.00E-06,  avg # of iterations = 17.0

     total cpu time spent up to now is      212.5 secs

     total energy              =    -287.46984628 Ry
     estimated scf accuracy    <       0.01015633 Ry

     iteration #  2     ecut=    40.00 Ry     beta= 0.05
     Davidson diagonalization with overlap
     ethr =  1.04E-05,  avg # of iterations =  1.0

     total cpu time spent up to now is      214.1 secs

     total energy              =    -287.46445116 Ry
     estimated scf accuracy    <       0.00951187 Ry

     iteration #  3     ecut=    40.00 Ry     beta= 0.05
     Davidson diagonalization with overlap
     ethr =  9.71E-06,  avg # of iterations =  2.0

     total cpu time spent up to now is      215.9 secs

     total energy              =    -287.46610360 Ry
     estimated scf accuracy    <       0.00043091 Ry

     iteration #  4     ecut=    40.00 Ry     beta= 0.05
     Davidson diagonalization with overlap
     ethr =  4.40E-07,  avg # of iterations =  2.0

     total cpu time spent up to now is      217.6 secs

     total energy              =    -287.46619817 Ry
     estimated scf accuracy    <       0.00025982 Ry

     iteration #  5     ecut=    40.00 Ry     beta= 0.05
     Davidson diagonalization with overlap
     ethr =  2.65E-07,  avg # of iterations =  1.0

     total cpu time spent up to now is      219.1 secs

     total energy              =    -287.46608490 Ry
     estimated scf accuracy    <       0.00025157 Ry

     iteration #  6     ecut=    40.00 Ry     beta= 0.05
     Davidson diagonalization with overlap
     ethr =  2.57E-07,  avg # of iterations =  2.0

     total cpu time spent up to now is      220.7 secs

     total energy              =    -287.46612283 Ry
     estimated scf accuracy    <       0.00002096 Ry

     iteration #  7     ecut=    40.00 Ry     beta= 0.05
     Davidson diagonalization with overlap
     ethr =  2.14E-08,  avg # of iterations =  4.0

     total cpu time spent up to now is      222.5 secs

     total energy              =    -287.46612603 Ry
     estimated scf accuracy    <       0.00001906 Ry

     iteration #  8     ecut=    40.00 Ry     beta= 0.05
     Davidson diagonalization with overlap
     ethr =  1.94E-08,  avg # of iterations =  1.0

     total cpu time spent up to now is      224.0 secs

     total energy              =    -287.46612089 Ry
     estimated scf accuracy    <       0.00001627 Ry

     iteration #  9     ecut=    40.00 Ry     beta= 0.05
     Davidson diagonalization with overlap
     ethr =  1.66E-08,  avg # of iterations =  4.0

     total cpu time spent up to now is      225.8 secs

     total energy              =    -287.46612456 Ry
     estimated scf accuracy    <       0.00000336 Ry

     iteration # 10     ecut=    40.00 Ry     beta= 0.05
     Davidson diagonalization with overlap
     ethr =  3.43E-09,  avg # of iterations =  2.0

     total cpu time spent up to now is      227.4 secs

     total energy              =    -287.46612475 Ry
     estimated scf accuracy    <       0.00000332 Ry

     iteration # 11     ecut=    40.00 Ry     beta= 0.05
     Davidson diagonalization with overlap
     ethr =  3.39E-09,  avg # of iterations =  1.0

     total cpu time spent up to now is      229.0 secs

     total energy              =    -287.46612352 Ry
     estimated scf accuracy    <       0.00000287 Ry

     iteration # 12     ecut=    40.00 Ry     beta= 0.05
     Davidson diagonalization with overlap
     ethr =  2.93E-09,  avg # of iterations =  4.0

     total cpu time spent up to now is      230.7 secs

     total energy              =    -287.46612443 Ry
     estimated scf accuracy    <       0.00000103 Ry

     iteration # 13     ecut=    40.00 Ry     beta= 0.05
     Davidson diagonalization with overlap
     ethr =  1.06E-09,  avg # of iterations =  1.0

     total cpu time spent up to now is      232.2 secs

     total energy              =    -287.46612452 Ry
     estimated scf accuracy    <       0.00000085 Ry

     iteration # 14     ecut=    40.00 Ry     beta= 0.05
     Davidson diagonalization with overlap
     ethr =  8.72E-10,  avg # of iterations =  2.0

     total cpu time spent up to now is      233.8 secs

     total energy              =    -287.46612455 Ry
     estimated scf accuracy    <       0.00000059 Ry

     iteration # 15     ecut=    40.00 Ry     beta= 0.05
     Davidson diagonalization with overlap
     ethr =  6.02E-10,  avg # of iterations =  2.0

     total cpu time spent up to now is      235.3 secs

     End of self-consistent calculation

          k = 0.0000 0.0000 0.0000 (  3715 PWs)   bands (ev):

   -11.4570 -10.8791 -10.8450  -6.2443  -6.0416  -5.9910  -5.9048  -5.8398
    -5.7215  -5.6074  -5.5363  -5.4325  -5.2243  -4.9655  -4.9287  -4.8456
    -4.7883  -4.7616  -4.6930  -4.6612  -4.6445  -1.3078  -0.2885   1.7095
     1.7690   1.8458   1.8532   1.8600   2.0183   2.0938   2.1937   2.2599
     2.3697   3.7787   4.8094   4.9731   5.0544   5.1820   5.2369   5.2757
     5.3214   5.3479   5.4119   5.4359   5.4874   5.9645   6.4279   6.5139
     7.4940   8.8642   8.9322   9.0199   9.7318   9.8171  10.7884  10.8219
    10.8962  11.3247  14.0351

     the Fermi energy is     8.1220 ev

!    total energy              =    -287.46612582 Ry
     estimated scf accuracy    <       0.00000020 Ry
     smearing contrib. (-TS)   =      -0.00000000 Ry
     internal energy E=F+TS    =    -287.46612582 Ry

     The total energy is F=E-TS. E is the sum of the following terms:
     one-electron contribution =     -12.87377358 Ry
     hartree contribution      =      61.96022808 Ry
     xc contribution           =    -101.09612771 Ry
     ewald contribution        =    -235.45645262 Ry

     convergence has been achieved in  15 iterations

     Forces acting on atoms (cartesian axes, Ry/au):

     atom    1 type  1   force =    -0.01920716   -0.00965047    0.01440353
     atom    2 type  1   force =     0.04322887    0.02703600   -0.01079965
     atom    3 type  1   force =     0.00661144    0.00533543    0.00630449
     atom    4 type  1   force =     0.01648741    0.01068541    0.01070312
     atom    5 type  1   force =    -0.02745660   -0.01352252   -0.01689269
     atom    6 type  1   force =     0.01457597    0.00802230   -0.00281679
     atom    7 type  1   force =    -0.01624878   -0.01102910    0.01398946
     atom    8 type  1   force =     0.01181533    0.00393962   -0.01022246
     atom    9 type  1   force =    -0.03012554   -0.00103800    0.00303587
     atom   10 type  1   force =     0.01566646    0.00765826    0.01022245
     atom   11 type  1   force =    -0.00587433    0.01301322   -0.01536436
     atom   12 type  1   force =     0.02089345    0.01386221   -0.00368757
     atom   13 type  1   force =    -0.01593588   -0.00940274    0.00946703
     atom   14 type  1   force =     0.03340703    0.02096133   -0.02544810
     atom   15 type  1   force =    -0.02708498   -0.00833346   -0.01953605
     atom   16 type  1   force =     0.01825241    0.00961059    0.01084270
     atom   17 type  1   force =    -0.06046559   -0.03299568   -0.01814807
     atom   18 type  1   force =     0.01283423    0.00042619   -0.00321100
     atom   19 type  1   force =    -0.01936502   -0.00438906    0.01365457
     atom   20 type  1   force =     0.00839476   -0.00203257   -0.01014187
     atom   21 type  1   force =    -0.01692394   -0.03328664    0.00392380
     atom   22 type  1   force =     0.01456275    0.00581579    0.01571899
     atom   23 type  1   force =     0.01572284   -0.01488779   -0.01403474
     atom   24 type  1   force =     0.00761772    0.00931851    0.01554251
     atom   25 type  2   force =     0.00203355   -0.00157768    0.01069709
     atom   26 type  2   force =    -0.00341641    0.00646083    0.01179774

     Total force =     0.065692     Total SCF correction =     0.000813


     Computing stress (Cartesian axis) and pressure

          total   stress  (Ry/bohr**3)                   (kbar)     P=      -49.37
  -0.00092392  -0.00074646  -0.00002838         -135.91     -109.81       -4.17
  -0.00074646  -0.00008651  -0.00000445         -109.81      -12.73       -0.65
  -0.00002838  -0.00000445   0.00000361           -4.17       -0.65        0.53

     Energy error            =      6.4E-03 Ry
     Gradient error          =      2.5E-02 Ry/Bohr
     Cell gradient error     =      1.4E+02 kbar

     number of scf cycles    =   5
     number of bfgs steps    =   4

     enthalpy           old  =    -287.4596789869 Ry
     enthalpy           new  =    -287.4661258202 Ry

     CASE: enthalpy          _new < enthalpy          _old

     new trust radius        =       0.0701590497 bohr
     new conv_thr            =       0.0000002545 Ry

     new unit-cell volume =   1296.16748 a.u.^3 (   192.07220 Ang^3 )
     density =      2.50958 g/cm^3

CELL_PARAMETERS (alat=  8.00000437)
   1.171164439   0.002328754  -0.011042751
  -0.583561494   1.011063767   0.005152718
  -0.023084097  -0.001017116   2.135699847

ATOMIC_POSITIONS (crystal)
C               -0.0000488388        0.0000007620        0.1724168163    0   0   1
C                0.0000682041       -0.0000027413        0.4889994890    0   0   1
C               -0.0000049165       -0.0000002074        0.8336411570    0   0   1
C                0.1666319422        0.3333336700        0.1713590785    0   0   1
C                0.3333794088        0.1666660298        0.4966359013    0   0   1
C                0.1666847466        0.3333319275        0.8290980389    0   0   1
C                0.4999537939        0.0000006874        0.1720148076    0   0   1
C                0.5000295516       -0.0000008573        0.4953834120    0   0   1
C                0.4999958898        0.0000001008        0.8341104294    0   0   1
C                0.6666272843        0.3333339337        0.1722571126    0   0   1
C                0.8333893794        0.1666647099        0.4926415307    0   0   1
C                0.6666839905        0.3333319076        0.8290834428    0   0   1
C               -0.0000351121        0.5000006509        0.1712741743    0   0   1
C                0.0000928878        0.4999984344        0.4892864861    0   0   1
C                0.0000648453        0.4999994473        0.8274531286    0   0   1
C                0.1666298439        0.8333337652        0.1717295452    0   0   1
C                0.3334170248        0.6666638120        0.4888274183    0   0   1
C                0.1666853973        0.8333319485        0.8290741647    0   0   1
C                0.4999536675        0.5000007337        0.1721130707    0   0   1
C                0.5000370383        0.4999985162        0.4936465385    0   0   1
C                0.4999928862        0.5000001606        0.8344991546    0   0   1
C                0.6666110914        0.8333341079        0.1738680101    0   0   1
C                0.8333961569        0.6666639257        0.4906318719    0   0   1
C                0.6666190809        0.8333334204        0.8373666588    0   0   1
H                0.6766912210        0.7432226293        0.6362908102
H                0.6758623121        0.9137817176        0.6363038947



     Writing config-only to output data dir ../results/h2_abs/H2abs_C.save/ :
     XML data file
     NEW-OLD atomic charge density approx. for the potential

     Check: negative core charge=   -0.000004

     total cpu time spent up to now is      239.0 secs

     Self-consistent Calculation

     iteration #  1     ecut=    40.00 Ry     beta= 0.05
     Davidson diagonalization with overlap
     ethr =  1.00E-06,  avg # of iterations = 12.0

     total cpu time spent up to now is      242.5 secs

     total energy              =    -287.48318553 Ry
     estimated scf accuracy    <       0.00145537 Ry

     iteration #  2     ecut=    40.00 Ry     beta= 0.05
     Davidson diagonalization with overlap
     ethr =  1.49E-06,  avg # of iterations =  1.0

     total cpu time spent up to now is      244.0 secs

     total energy              =    -287.48248261 Ry
     estimated scf accuracy    <       0.00140229 Ry

     iteration #  3     ecut=    40.00 Ry     beta= 0.05
     Davidson diagonalization with overlap
     ethr =  1.43E-06,  avg # of iterations =  2.0

     total cpu time spent up to now is      245.7 secs

     total energy              =    -287.48263370 Ry
     estimated scf accuracy    <       0.00002407 Ry

     iteration #  4     ecut=    40.00 Ry     beta= 0.05
     Davidson diagonalization with overlap
     ethr =  2.46E-08,  avg # of iterations =  5.0

     total cpu time spent up to now is      247.9 secs

     total energy              =    -287.48264965 Ry
     estimated scf accuracy    <       0.00001978 Ry

     iteration #  5     ecut=    40.00 Ry     beta= 0.05
     Davidson diagonalization with overlap
     ethr =  2.02E-08,  avg # of iterations =  1.0

     total cpu time spent up to now is      249.4 secs

     total energy              =    -287.48264340 Ry
     estimated scf accuracy    <       0.00001987 Ry

     iteration #  6     ecut=    40.00 Ry     beta= 0.05
     Davidson diagonalization with overlap
     ethr =  2.02E-08,  avg # of iterations =  2.0

     total cpu time spent up to now is      250.9 secs

     total energy              =    -287.48264409 Ry
     estimated scf accuracy    <       0.00000467 Ry

     iteration #  7     ecut=    40.00 Ry     beta= 0.05
     Davidson diagonalization with overlap
     ethr =  4.76E-09,  avg # of iterations =  2.0

     total cpu time spent up to now is      252.5 secs

     total energy              =    -287.48264421 Ry
     estimated scf accuracy    <       0.00000294 Ry

     iteration #  8     ecut=    40.00 Ry     beta= 0.05
     Davidson diagonalization with overlap
     ethr =  3.00E-09,  avg # of iterations =  1.0

     total cpu time spent up to now is      254.0 secs

     total energy              =    -287.48264385 Ry
     estimated scf accuracy    <       0.00000189 Ry

     iteration #  9     ecut=    40.00 Ry     beta= 0.05
     Davidson diagonalization with overlap
     ethr =  1.93E-09,  avg # of iterations =  2.0

     total cpu time spent up to now is      255.7 secs

     total energy              =    -287.48264417 Ry
     estimated scf accuracy    <       0.00000060 Ry

     iteration # 10     ecut=    40.00 Ry     beta= 0.05
     Davidson diagonalization with overlap
     ethr =  6.10E-10,  avg # of iterations =  4.0

     total cpu time spent up to now is      257.6 secs

     total energy              =    -287.48264426 Ry
     estimated scf accuracy    <       0.00000058 Ry

     iteration # 11     ecut=    40.00 Ry     beta= 0.05
     Davidson diagonalization with overlap
     ethr =  5.91E-10,  avg # of iterations =  1.0

     total cpu time spent up to now is      259.1 secs

     total energy              =    -287.48264403 Ry
     estimated scf accuracy    <       0.00000049 Ry

     iteration # 12     ecut=    40.00 Ry     beta= 0.05
     Davidson diagonalization with overlap
     ethr =  5.02E-10,  avg # of iterations =  2.0

     total cpu time spent up to now is      260.7 secs

     End of self-consistent calculation

          k = 0.0000 0.0000 0.0000 (  3715 PWs)   bands (ev):

   -11.4517 -10.8821 -10.8345  -6.0955  -6.0526  -5.9805  -5.7837  -5.7403
    -5.7028  -5.6447  -5.6030  -5.4662  -5.2160  -4.9401  -4.9277  -4.8402
    -4.7617  -4.7369  -4.7213  -4.6504  -4.6375  -1.2908  -0.2821   1.8288
     1.8843   1.9312   1.9589   1.9709   1.9772   2.0384   2.1039   2.1227
     2.3813   3.8356   4.7627   5.0840   5.1344   5.1642   5.3258   5.3327
     5.3715   5.4076   5.4241   5.4555   5.5078   5.9875   6.4726   6.5131
     7.5153   8.9079   8.9841   9.0698   9.7700   9.8548  10.8550  10.8716
    10.9138  11.3568  14.1235

     the Fermi energy is     8.1889 ev

!    total energy              =    -287.48264448 Ry
     estimated scf accuracy    <       0.00000016 Ry
     smearing contrib. (-TS)   =      -0.00000000 Ry
     internal energy E=F+TS    =    -287.48264448 Ry

     The total energy is F=E-TS. E is the sum of the following terms:
     one-electron contribution =     -13.12701358 Ry
     hartree contribution      =      62.22897144 Ry
     xc contribution           =    -101.18670535 Ry
     ewald contribution        =    -235.39789699 Ry

     convergence has been achieved in  12 iterations

     Forces acting on atoms (cartesian axes, Ry/au):

     atom    1 type  1   force =    -0.00659394   -0.00262916    0.01383707
[...]

     Dense  grid:   178417 G-vectors     FFT dimensions: (  60,  60, 120)

     Smooth grid:    45143 G-vectors     FFT dimensions: (  40,  40,  72)

     Estimated max dynamical RAM per process >     222.38 MB

     Estimated total dynamical RAM >     444.75 MB

     Check: negative core charge=   -0.000002

     Initial potential from superposition of free atoms

     starting charge      97.9991, renormalised to      98.0000
     Starting wfcs are   98 randomized atomic wfcs

     total cpu time spent up to now is     1162.8 secs

     Self-consistent Calculation

     iteration #  1     ecut=    40.00 Ry     beta= 0.05
     Davidson diagonalization with overlap
     c_bands:  1 eigenvalues not converged
     ethr =  1.00E-06,  avg # of iterations = 20.0

     total cpu time spent up to now is     1183.8 secs

     total energy              =    -288.89156348 Ry
     estimated scf accuracy    <       2.77359420 Ry

     iteration #  2     ecut=    40.00 Ry     beta= 0.05
     Davidson diagonalization with overlap
     ethr =  2.83E-03,  avg # of iterations =  1.0

     total cpu time spent up to now is     1187.5 secs

     total energy              =    -287.28767219 Ry
     estimated scf accuracy    <       2.58856553 Ry

     iteration #  3     ecut=    40.00 Ry     beta= 0.05
     Davidson diagonalization with overlap
     ethr =  2.64E-03,  avg # of iterations =  2.0

     total cpu time spent up to now is     1191.4 secs

     total energy              =    -287.64919428 Ry
     estimated scf accuracy    <       0.07226389 Ry

     iteration #  4     ecut=    40.00 Ry     beta= 0.05
     Davidson diagonalization with overlap
     ethr =  7.37E-05,  avg # of iterations =  4.0

     total cpu time spent up to now is     1197.3 secs

     total energy              =    -287.71365393 Ry
     estimated scf accuracy    <       0.04518096 Ry

     iteration #  5     ecut=    40.00 Ry     beta= 0.05
     Davidson diagonalization with overlap
     ethr =  4.61E-05,  avg # of iterations =  2.0

     total cpu time spent up to now is     1199.9 secs

     total energy              =    -287.68469721 Ry
     estimated scf accuracy    <       0.05941195 Ry

     iteration #  6     ecut=    40.00 Ry     beta= 0.05
     Davidson diagonalization with overlap
     ethr =  4.61E-05,  avg # of iterations =  3.0

     total cpu time spent up to now is     1203.9 secs

     total energy              =    -287.69829904 Ry
     estimated scf accuracy    <       0.01403829 Ry

     iteration #  7     ecut=    40.00 Ry     beta= 0.05
     Davidson diagonalization with overlap
     ethr =  1.43E-05,  avg # of iterations =  2.0

     total cpu time spent up to now is     1207.8 secs

     total energy              =    -287.69321017 Ry
     estimated scf accuracy    <       0.01418901 Ry

     iteration #  8     ecut=    40.00 Ry     beta= 0.05
     Davidson diagonalization with overlap
     ethr =  1.43E-05,  avg # of iterations =  1.0

     total cpu time spent up to now is     1211.1 secs

     total energy              =    -287.69332635 Ry
     estimated scf accuracy    <       0.00338796 Ry

     iteration #  9     ecut=    40.00 Ry     beta= 0.05
     Davidson diagonalization with overlap
     ethr =  3.46E-06,  avg # of iterations =  7.0

     total cpu time spent up to now is     1215.4 secs

     total energy              =    -287.69399719 Ry
     estimated scf accuracy    <       0.00203928 Ry

     iteration # 10     ecut=    40.00 Ry     beta= 0.05
     Davidson diagonalization with overlap
     ethr =  2.08E-06,  avg # of iterations =  2.0

     total cpu time spent up to now is     1219.3 secs

     total energy              =    -287.69395948 Ry
     estimated scf accuracy    <       0.00155312 Ry

     iteration # 11     ecut=    40.00 Ry     beta= 0.05
     Davidson diagonalization with overlap
     ethr =  1.58E-06,  avg # of iterations =  2.0

     total cpu time spent up to now is     1222.4 secs

     total energy              =    -287.69370615 Ry
     estimated scf accuracy    <       0.00154353 Ry

     iteration # 12     ecut=    40.00 Ry     beta= 0.05
     Davidson diagonalization with overlap
     ethr =  1.58E-06,  avg # of iterations =  2.0

     total cpu time spent up to now is     1225.3 secs

     total energy              =    -287.69363305 Ry
     estimated scf accuracy    <       0.00086023 Ry

     iteration # 13     ecut=    40.00 Ry     beta= 0.05
     Davidson diagonalization with overlap
     ethr =  8.78E-07,  avg # of iterations =  1.0

     total cpu time spent up to now is     1227.7 secs

     total energy              =    -287.69348175 Ry
     estimated scf accuracy    <       0.00059562 Ry

     iteration # 14     ecut=    40.00 Ry     beta= 0.05
     Davidson diagonalization with overlap
     ethr =  6.08E-07,  avg # of iterations =  2.0

     total cpu time spent up to now is     1230.3 secs

     total energy              =    -287.69337545 Ry
     estimated scf accuracy    <       0.00032710 Ry

     iteration # 15     ecut=    40.00 Ry     beta= 0.05
     Davidson diagonalization with overlap
     ethr =  3.34E-07,  avg # of iterations =  2.0

     total cpu time spent up to now is     1233.0 secs

     total energy              =    -287.69346401 Ry
     estimated scf accuracy    <       0.00017250 Ry

     iteration # 16     ecut=    40.00 Ry     beta= 0.05
     Davidson diagonalization with overlap
     ethr =  1.76E-07,  avg # of iterations =  1.0

     total cpu time spent up to now is     1235.5 secs

     total energy              =    -287.69346925 Ry
     estimated scf accuracy    <       0.00019098 Ry

     iteration # 17     ecut=    40.00 Ry     beta= 0.05
     Davidson diagonalization with overlap
     ethr =  1.76E-07,  avg # of iterations =  1.0

     total cpu time spent up to now is     1237.9 secs

     total energy              =    -287.69346771 Ry
     estimated scf accuracy    <       0.00020043 Ry

     iteration # 18     ecut=    40.00 Ry     beta= 0.05
     Davidson diagonalization with overlap
     ethr =  1.76E-07,  avg # of iterations =  1.0

     total cpu time spent up to now is     1240.3 secs

     total energy              =    -287.69344797 Ry
     estimated scf accuracy    <       0.00019183 Ry

     iteration # 19     ecut=    40.00 Ry     beta= 0.05
     Davidson diagonalization with overlap
     ethr =  1.76E-07,  avg # of iterations =  2.0

     total cpu time spent up to now is     1242.9 secs

     total energy              =    -287.69346444 Ry
     estimated scf accuracy    <       0.00011605 Ry

     iteration # 20     ecut=    40.00 Ry     beta= 0.05
     Davidson diagonalization with overlap
     ethr =  1.18E-07,  avg # of iterations =  1.0

     total cpu time spent up to now is     1245.4 secs

     total energy              =    -287.69343204 Ry
     estimated scf accuracy    <       0.00012421 Ry

     iteration # 21     ecut=    40.00 Ry     beta= 0.05
     Davidson diagonalization with overlap
     ethr =  1.18E-07,  avg # of iterations =  2.0

     total cpu time spent up to now is     1247.9 secs

     total energy              =    -287.69341092 Ry
     estimated scf accuracy    <       0.00004948 Ry

     iteration # 22     ecut=    40.00 Ry     beta= 0.05
     Davidson diagonalization with overlap
     ethr =  5.05E-08,  avg # of iterations =  4.0

     total cpu time spent up to now is     1250.9 secs

     total energy              =    -287.69342543 Ry
     estimated scf accuracy    <       0.00001119 Ry

     iteration # 23     ecut=    40.00 Ry     beta= 0.05
     Davidson diagonalization with overlap
     ethr =  1.14E-08,  avg # of iterations =  2.0

     total cpu time spent up to now is     1253.7 secs

     total energy              =    -287.69342673 Ry
     estimated scf accuracy    <       0.00000510 Ry

     iteration # 24     ecut=    40.00 Ry     beta= 0.05
     Davidson diagonalization with overlap
     ethr =  5.21E-09,  avg # of iterations =  2.0

     total cpu time spent up to now is     1256.3 secs

     total energy              =    -287.69342628 Ry
     estimated scf accuracy    <       0.00000446 Ry

     iteration # 25     ecut=    40.00 Ry     beta= 0.05
     Davidson diagonalization with overlap
     ethr =  4.55E-09,  avg # of iterations =  2.0

     total cpu time spent up to now is     1258.9 secs

     total energy              =    -287.69342563 Ry
     estimated scf accuracy    <       0.00000271 Ry

     iteration # 26     ecut=    40.00 Ry     beta= 0.05
     Davidson diagonalization with overlap
     ethr =  2.77E-09,  avg # of iterations =  4.0

     total cpu time spent up to now is     1262.3 secs

     total energy              =    -287.69342596 Ry
     estimated scf accuracy    <       0.00000404 Ry

     iteration # 27     ecut=    40.00 Ry     beta= 0.05
     Davidson diagonalization with overlap
     c_bands:  1 eigenvalues not converged
     ethr =  2.77E-09,  avg # of iterations = 20.0

     total cpu time spent up to now is     1265.2 secs

     total energy              =    -287.69342642 Ry
     estimated scf accuracy    <       0.00000036 Ry

     iteration # 28     ecut=    40.00 Ry     beta= 0.05
     Davidson diagonalization with overlap
     ethr =  3.70E-10,  avg # of iterations =  4.0

     total cpu time spent up to now is     1268.5 secs

     total energy              =    -287.69342663 Ry
     estimated scf accuracy    <       0.00000022 Ry

     iteration # 29     ecut=    40.00 Ry     beta= 0.05
     Davidson diagonalization with overlap
     ethr =  2.20E-10,  avg # of iterations =  1.0

     total cpu time spent up to now is     1271.0 secs

     total energy              =    -287.69342670 Ry
     estimated scf accuracy    <       0.00000022 Ry

     iteration # 30     ecut=    40.00 Ry     beta= 0.05
     Davidson diagonalization with overlap
     ethr =  2.20E-10,  avg # of iterations =  1.0

     total cpu time spent up to now is     1273.4 secs

     total energy              =    -287.69342675 Ry
     estimated scf accuracy    <       0.00000025 Ry

     iteration # 31     ecut=    40.00 Ry     beta= 0.05
     Davidson diagonalization with overlap
     ethr =  2.20E-10,  avg # of iterations =  1.0

     total cpu time spent up to now is     1275.8 secs

     total energy              =    -287.69342677 Ry
     estimated scf accuracy    <       0.00000026 Ry

     iteration # 32     ecut=    40.00 Ry     beta= 0.05
     Davidson diagonalization with overlap
     ethr =  2.20E-10,  avg # of iterations =  1.0

     total cpu time spent up to now is     1278.3 secs

     total energy              =    -287.69342681 Ry
     estimated scf accuracy    <       0.00000022 Ry

     iteration # 33     ecut=    40.00 Ry     beta= 0.05
     Davidson diagonalization with overlap
     ethr =  2.20E-10,  avg # of iterations =  1.0

     total cpu time spent up to now is     1280.8 secs

     total energy              =    -287.69342690 Ry
     estimated scf accuracy    <       0.00000021 Ry

     iteration # 34     ecut=    40.00 Ry     beta= 0.05
     Davidson diagonalization with overlap
     ethr =  2.19E-10,  avg # of iterations =  2.0

     total cpu time spent up to now is     1283.3 secs

     total energy              =    -287.69342675 Ry
     estimated scf accuracy    <       0.00000021 Ry

     iteration # 35     ecut=    40.00 Ry     beta= 0.05
     Davidson diagonalization with overlap
     ethr =  2.15E-10,  avg # of iterations =  2.0

     total cpu time spent up to now is     1285.9 secs

     total energy              =    -287.69342681 Ry
     estimated scf accuracy    <       0.00000004 Ry

     iteration # 36     ecut=    40.00 Ry     beta= 0.05
     Davidson diagonalization with overlap
     ethr =  3.76E-11,  avg # of iterations =  4.0

     total cpu time spent up to now is     1288.9 secs

     total energy              =    -287.69342683 Ry
     estimated scf accuracy    <       0.00000003 Ry

     iteration # 37     ecut=    40.00 Ry     beta= 0.05
     Davidson diagonalization with overlap
     ethr =  3.26E-11,  avg # of iterations =  1.0

     total cpu time spent up to now is     1291.3 secs

     total energy              =    -287.69342690 Ry
     estimated scf accuracy    <       0.00000003 Ry

     iteration # 38     ecut=    40.00 Ry     beta= 0.05
     Davidson diagonalization with overlap
     ethr =  3.03E-11,  avg # of iterations =  2.0

     total cpu time spent up to now is     1293.9 secs

     total energy              =    -287.69342687 Ry
     estimated scf accuracy    <       0.00000003 Ry

     iteration # 39     ecut=    40.00 Ry     beta= 0.05
     Davidson diagonalization with overlap
     ethr =  3.00E-11,  avg # of iterations =  1.0

     total cpu time spent up to now is     1296.3 secs

     total energy              =    -287.69342684 Ry
     estimated scf accuracy    <       0.00000001 Ry

     iteration # 40     ecut=    40.00 Ry     beta= 0.05
     Davidson diagonalization with overlap
     ethr =  1.38E-11,  avg # of iterations =  1.0

     total cpu time spent up to now is     1298.8 secs

     total energy              =    -287.69342686 Ry
     estimated scf accuracy    <       0.00000001 Ry

     iteration # 41     ecut=    40.00 Ry     beta= 0.05
     Davidson diagonalization with overlap
     ethr =  1.29E-11,  avg # of iterations =  1.0

     total cpu time spent up to now is     1301.2 secs

     total energy              =    -287.69342687 Ry
     estimated scf accuracy    <       0.00000001 Ry

     iteration # 42     ecut=    40.00 Ry     beta= 0.05
     Davidson diagonalization with overlap
     ethr =  1.19E-11,  avg # of iterations =  1.0

     total cpu time spent up to now is     1303.5 secs

     End of self-consistent calculation

          k = 0.0000 0.0000 0.0000 (  5623 PWs)   bands (ev):

   -12.2737 -11.2855 -10.6477  -6.7323  -6.6916  -6.6271  -6.1768  -6.1662
    -6.1175  -5.9844  -5.9259  -5.9180  -5.1763  -5.1503  -5.1400  -5.0797
    -5.0489  -5.0395  -4.8172  -4.7725  -4.7676  -1.6735  -0.4595   1.3400
     1.3616   1.3795   1.7008   1.7070   1.7665   1.8872   1.9267   1.9333
     2.3990   3.6745   4.1275   4.1608   4.3475   4.8612   4.8749   4.9176
     4.9365   5.1630   5.1982   5.4875   5.6034   5.6513   6.3192   6.3382
     6.5616   8.9086   9.0627   9.0840  10.1383  10.2555  10.3965  10.7420
    10.7474  10.7803  13.5989

     the Fermi energy is     7.8110 ev

!    total energy              =    -287.69342691 Ry
     estimated scf accuracy    <          9.7E-09 Ry
     smearing contrib. (-TS)   =      -0.00000000 Ry
     internal energy E=F+TS    =    -287.69342691 Ry

     The total energy is F=E-TS. E is the sum of the following terms:
     one-electron contribution =     -91.24298030 Ry
     hartree contribution      =     100.30223270 Ry
     xc contribution           =    -101.53471661 Ry
     ewald contribution        =    -195.21796270 Ry

     convergence has been achieved in  42 iterations

     Forces acting on atoms (cartesian axes, Ry/au):

     atom    1 type  1   force =    -0.00097329   -0.00138887    0.00014311
     atom    2 type  1   force =     0.01208935    0.00813270   -0.00004430
     atom    3 type  1   force =     0.00610404    0.00177613   -0.00010914
     atom    4 type  1   force =    -0.00076227    0.00753053   -0.00039262
     atom    5 type  1   force =     0.00983890    0.00232555    0.00030672
     atom    6 type  1   force =     0.00554138   -0.00270892   -0.00003705
     atom    7 type  1   force =     0.00089002   -0.00414405    0.00008088
     atom    8 type  1   force =    -0.01865330    0.00139342    0.00001709
     atom    9 type  1   force =    -0.00235278    0.00137277   -0.00009702
     atom   10 type  1   force =    -0.00318208   -0.00149879   -0.00028593
     atom   11 type  1   force =    -0.00095928    0.01635615    0.00057742
     atom   12 type  1   force =    -0.00356226   -0.00048887    0.00004255
     atom   13 type  1   force =     0.00621480    0.00206190   -0.00009528
     atom   14 type  1   force =     0.00660289    0.00155987   -0.00000504
     atom   15 type  1   force =    -0.00602402   -0.00068394    0.00012727
     atom   16 type  1   force =     0.00544344   -0.00260820   -0.00035894
     atom   17 type  1   force =    -0.00836090   -0.00636961    0.00053310
     atom   18 type  1   force =    -0.00096542    0.00528745    0.00002033
     atom   19 type  1   force =    -0.00288475    0.00269804    0.00013007
     atom   20 type  1   force =    -0.01056564   -0.01335375   -0.00000101
     atom   21 type  1   force =     0.00131374   -0.00336844   -0.00014938
     atom   22 type  1   force =    -0.00573078   -0.00347243   -0.00074412
     atom   23 type  1   force =     0.01302960   -0.00797254    0.00058582
     atom   24 type  1   force =    -0.00215198   -0.00217125   -0.00020957
     atom   25 type  2   force =    -0.00171825    0.00269209    0.00003269
     atom   26 type  2   force =     0.00177887   -0.00295692   -0.00006765

     Total force =     0.004924     Total SCF correction =     0.000227


     Computing stress (Cartesian axis) and pressure

          total   stress  (Ry/bohr**3)                   (kbar)     P=       89.15
   0.00068767  -0.00000030  -0.00001450          101.16       -0.04       -2.13
  -0.00000030   0.00068773  -0.00000544           -0.04      101.17       -0.80
  -0.00001450  -0.00000544   0.00044267           -2.13       -0.80       65.12


     Writing all to output data dir ../results/h2_abs/H2abs_C.save/ :
     XML data file, charge density, pseudopotentials, collected wavefunctions

     init_run     :      3.73s CPU      3.18s WALL (       2 calls)
     electrons    :   1431.79s CPU   1177.00s WALL (      33 calls)
     update_pot   :      4.54s CPU      3.29s WALL (      31 calls)
     forces       :     44.93s CPU     37.96s WALL (      33 calls)
     stress       :    112.90s CPU     77.15s WALL (      33 calls)

     Called by init_run:
     wfcinit      :      1.83s CPU      1.41s WALL (       2 calls)
     potinit      :      0.24s CPU      0.18s WALL (       2 calls)
     hinit0       :      0.77s CPU      0.73s WALL (       2 calls)

     Called by electrons:
     c_bands      :    823.03s CPU    660.26s WALL (     582 calls)
     sum_band     :    330.81s CPU    295.25s WALL (     582 calls)
     v_of_rho     :     24.13s CPU     13.87s WALL (     611 calls)
     newd         :    172.54s CPU    162.52s WALL (     611 calls)
     mix_rho      :     78.03s CPU     46.50s WALL (     582 calls)

     Called by c_bands:
     init_us_2    :      7.66s CPU      5.44s WALL (    1166 calls)
     cegterg      :    805.56s CPU    650.15s WALL (     582 calls)

     Called by *egterg:
     cdiaghg      :     14.49s CPU     14.55s WALL (    1930 calls)
     h_psi        :    531.71s CPU    382.74s WALL (    1967 calls)
     s_psi        :     84.45s CPU     80.95s WALL (    1967 calls)
     g_psi        :      2.50s CPU      1.60s WALL (    1383 calls)

     Called by h_psi:
     h_psi:calbec :     81.58s CPU     77.64s WALL (    1967 calls)
     vloc_psi     :    371.45s CPU    227.08s WALL (    1967 calls)
     add_vuspsi   :     76.72s CPU     76.89s WALL (    1967 calls)

     General routines
     calbec       :    137.78s CPU    133.04s WALL (    2714 calls)
     fft          :     53.24s CPU     32.27s WALL (    3899 calls)
     ffts         :     30.45s CPU     18.83s WALL (   12812 calls)
     fftw         :    304.28s CPU    190.65s WALL (  206166 calls)
     interpolate  :     10.81s CPU      6.67s WALL (     611 calls)

     Parallel routines

     PWSCF        :  26m48.85s CPU  21m48.90s WALL


   This run was terminated on:  21:22:27   6Aug2024            

=------------------------------------------------------------------------------=
   JOB DONE.
=------------------------------------------------------------------------------=
